  ==> Input File <==

--------------------------------------------------------------------------
set {
	reference rhf
	basis cc-pvtz
}

set_num_threads( 4 )
memory 2 gb

molecule MOL {
0 1

H	 1.256428	 -2.327704	 -2.111053
C	 1.244222	 -1.358644	 -1.623652
C	 0.092413	 -1.283777	 -0.630557
H	 1.135685	 -0.593332	 -2.382228
H	 2.206749	 -1.220531	 -1.146996
N	 0.000297	 0.000045	 0.046090
H	 -0.828081	 -1.450858	 -1.172674
H	 0.170674	 -2.101462	 0.091382
C	 -1.359159	 0.315706	 0.454404
C	 0.950195	 0.119975	 1.140546
C	 -2.416729	 -0.286720	 -0.460525
H	 -1.478729	 1.390261	 0.442008
H	 -1.539692	 0.003361	 1.486761
C	 1.366713	 1.557642	 1.419946
H	 1.837944	 -0.442185	 0.885717
H	 0.555107	 -0.336014	 2.052628
H	 -2.285276	 0.073129	 -1.473515
H	 -2.371743	 -1.368476	 -0.483209
H	 -3.408658	 -0.007405	 -0.121593
H	 1.822556	 1.993827	 0.539686
H	 0.527267	 2.180428	 1.703221
H	 2.085762	 1.588524	 2.231627

	symmetry c1
}
set optking {
	frozen_dihedral = ("
		3 6 9 11
	")
}

ee = optimize('scf')
oeprop('DIPOLE', 'QUADRUPOLE', 'MULLIKEN_CHARGES')
f=open( 'psi4out.xyz', 'w' )
f.write( "22  " )
f.write( str(ee) + "\n" )
f.write( MOL.save_string_xyz() )
f.close()
--------------------------------------------------------------------------

    Molecular point group: c1
  Charge       = 0
  Multiplicity = 1
  Basis Set: CC-PVTZ
  Basis Set:
  @DF-RHF Final Energy:  -290.46250675926638
    Total Energy =                       -290.4625067592662617
    Molecular point group: c1
  Basis Set: CC-PVTZ
  Basis Set:
  Basis Set: CC-PVTZ
  Basis Set:
  @DF-RHF Final Energy:  -290.45841550212521
    Total Energy =                       -290.4584155021251490
  Basis Set: CC-PVTZ
  Basis Set:
  Basis Set: CC-PVTZ
  Basis Set:
  @DF-RHF Final Energy:  -290.46861407057111
    Total Energy =                       -290.4686140705713342
  Basis Set: CC-PVTZ
  Basis Set:
  Basis Set: CC-PVTZ
  Basis Set:
  @DF-RHF Final Energy:  -290.47047489804061
    Total Energy =                       -290.4704748980406634
  Basis Set: CC-PVTZ
  Basis Set:
  @DF-RHF Final Energy:  -290.47065224140078
    Total Energy =                       -290.4706522414009555
  @DF-RHF Final Energy:  -290.47079160453859
    Total Energy =                       -290.4707916045383627
  @DF-RHF Final Energy:  -290.47081154475211
    Total Energy =                       -290.4708115447520527
  @DF-RHF Final Energy:  -290.47082054948845
    Total Energy =                       -290.4708205494885647
  @DF-RHF Final Energy:  -290.47083189594531
    Total Energy =                       -290.4708318959454800
  @DF-RHF Final Energy:  -290.47083505122129
    Total Energy =                       -290.4708350512213428
  Basis Set: CC-PVTZ
  Basis Set:
  @DF-RHF Final Energy:  -290.47083678464656
    Total Energy =                       -290.4708367846464512
  Basis Set: CC-PVTZ
  Basis Set:
  Basis Set: CC-PVTZ
  Basis Set:
  @DF-RHF Final Energy:  -290.47083325988552
    Total Energy =                       -290.4708332598856941
  Basis Set: CC-PVTZ
  Basis Set:
  Basis Set: CC-PVTZ
  Basis Set:
  @DF-RHF Final Energy:  -290.47083757277937
    Total Energy =                       -290.4708375727793737
  Basis Set: CC-PVTZ
  Basis Set:
  Charge       = 0
  Multiplicity = 1
  Basis Set: CC-PVTZ
  Basis Set:

    Orbital Energies (a.u.)
    -----------------------

    Doubly Occupied:

       1A    -15.531096     2A    -11.239368     3A    -11.237224
       4A    -11.236744     5A    -11.209857     6A    -11.203455
       7A    -11.202850     8A     -1.222807     9A     -1.025406
      10A     -1.024223    11A     -0.958432    12A     -0.856459
      13A     -0.845352    14A     -0.760114    15A     -0.649821
      16A     -0.641631    17A     -0.632172    18A     -0.595388
      19A     -0.593244    20A     -0.547428    21A     -0.530555
      22A     -0.520875    23A     -0.516718    24A     -0.501883
      25A     -0.491242    26A     -0.486616    27A     -0.466170
      28A     -0.460683    29A     -0.336027

  @DF-RHF Final Energy:  -290.47083784771809

   => Energetics <=

    Nuclear Repulsion Energy =            337.9252010207277976
    One-Electron Energy =               -1061.7443952718410856
    Two-Electron Energy =                 433.3483564033949733
    DFT Exchange-Correlation Energy =       0.0000000000000000
    Empirical Dispersion Energy =           0.0000000000000000
    PCM Polarization Energy =               0.0000000000000000
    EFP Energy =                            0.0000000000000000
    Total Energy =                       -290.4708378477182578
    Molecular point group: c1
  Basis Set: CC-PVTZ
  Basis Set:

  -Total Gradient:
     Atom            X                  Y                   Z
    ------   -----------------  -----------------  -----------------
       1        0.000002580328    -0.000009903160    -0.000005887225
       2       -0.000011053332     0.000001795123    -0.000007085442
       3       -0.000526233972     0.001761777497    -0.003349583944
       4        0.000001584449    -0.000003309257     0.000002909234
       5       -0.000000122325     0.000004616895     0.000004165441
       6        0.000660840798    -0.003968195955     0.005965621699
       7       -0.000006363918    -0.000004631774     0.000003582453
       8        0.000007892714    -0.000003452828    -0.000002306092
       9        0.000067915740     0.005263916704    -0.004693875578
      10        0.000007962393    -0.000015863115    -0.000020368991
      11       -0.000207332163    -0.002956388915     0.002076623478
      12       -0.000038132538    -0.000016848370     0.000032321040
      13        0.000036345261    -0.000042172933     0.000010615908
      14       -0.000003499257    -0.000000272868    -0.000006771598
      15       -0.000003026725    -0.000010271680    -0.000008637728
      16        0.000004968589     0.000007636290    -0.000004684168
      17       -0.000003011899    -0.000012009163    -0.000010846005
      18        0.000000240836    -0.000001580434     0.000010374735
      19        0.000008497140     0.000009721986    -0.000000927849
      20        0.000000821953    -0.000004570159    -0.000000834114
      21        0.000000242322    -0.000000642766    -0.000006322978
      22       -0.000001116394     0.000000648878     0.000011917725

  **** Optimization is complete! (in 14 steps) ****
    Final optimized geometry and variables:
    Molecular point group: c1

    Geometry (in Angstrom), charge = 0, multiplicity = 1:

    H            1.360069010807    -2.224099013968    -2.170752907167
    C            1.374933106088    -1.287728380970    -1.623168645764
    C            0.155075947813    -1.208270048599    -0.711101926334
    H            1.361954959711    -0.472712219417    -2.336608892204
    H            2.311259334093    -1.246730222104    -1.082482072441
    N            0.027815118157     0.068783293242    -0.034715401991
    H           -0.711725825242    -1.359782436167    -1.331495147038
    H            0.177545321638    -2.044384762962    -0.003579368688
    C           -1.305388343091     0.473148122728     0.395784189297
    C            1.009580942435     0.264487212223     1.013077297986
    C           -2.478143322437    -0.027045573236    -0.436177943563
    H           -1.339043351314     1.554964126131     0.407719796724
    H           -1.481506280383     0.151974624286     1.427538870485
    C            1.222809696477     1.723864189976     1.396512627814
    H            1.955637352919    -0.129674607877     0.673440242343
    H            0.740084313271    -0.306770527743     1.908027978912
    H           -2.367835600490     0.225653749061    -1.484577688221
    H           -2.620677524672    -1.096231073923    -0.353381416791
    H           -3.381783704615     0.450646834005    -0.075639418063
    H            1.466232169997     2.313640961833     0.520704516398
    H            0.351006184705     2.159708618960     1.867058742873
    H            2.043925424032     1.800896335488     2.100521588694

  Mulliken Charges: (a.u.)
   Center  Symbol    Alpha    Beta     Spin     Total
       1     H     0.45207  0.45207  0.00000  0.09587
       2     C     3.14515  3.14515  0.00000 -0.29031
       3     C     3.03937  3.03937  0.00000 -0.07874
       4     H     0.45178  0.45178  0.00000  0.09644
       5     H     0.45472  0.45472  0.00000  0.09057
       6     N     3.61746  3.61746  0.00000 -0.23493
       7     H     0.44736  0.44736  0.00000  0.10528
       8     H     0.46939  0.46939  0.00000  0.06123
       9     C     3.02522  3.02522  0.00000 -0.05044
      10     C     3.04043  3.04043  0.00000 -0.08085
      11     C     3.16179  3.16179  0.00000 -0.32359
      12     H     0.45522  0.45522  0.00000  0.08956
      13     H     0.47258  0.47258  0.00000  0.05485
      14     C     3.14991  3.14991  0.00000 -0.29982
      15     H     0.45051  0.45051  0.00000  0.09899
      16     H     0.46685  0.46685  0.00000  0.06630
      17     H     0.45074  0.45074  0.00000  0.09851
      18     H     0.45104  0.45104  0.00000  0.09792
      19     H     0.44473  0.44473  0.00000  0.11054
      20     H     0.45047  0.45047  0.00000  0.09906
      21     H     0.45311  0.45311  0.00000  0.09378
      22     H     0.45012  0.45012  0.00000  0.09977

   Total alpha = 29.00000, Total beta = 29.00000, Total charge = -0.00000
