  ==> Input File <==

--------------------------------------------------------------------------
set {
	reference rhf
	basis cc-pvtz
}

set_num_threads( 4 )
memory 2 gb

molecule MOL {
0 1

H	 -3.162190	 0.493205	 -0.000107
C	 -2.363908	 -0.234727	 0.000005
O	 -1.158738	 0.454634	 -0.000087
H	 -2.464314	 -0.863616	 -0.882153
H	 -2.464327	 -0.863359	 0.882345
C	 -0.028611	 -0.359694	 0.000037
C	 -0.404199	 -1.734906	 -0.513888
H	 0.378676	 -0.433831	 1.008629
H	 0.747276	 0.077463	 -0.628879
C	 0.784036	 -2.689635	 -0.544538
H	 -1.189916	 -2.136497	 0.116430
H	 -0.824192	 -1.629267	 -1.508070
H	 1.205080	 -2.828775	 0.445639
H	 0.487783	 -3.663265	 -0.915078
H	 1.573113	 -2.318310	 -1.189940

	symmetry c1
}
set optking {
	frozen_dihedral = ("
		8 6 3 2
	")
}

ee = optimize('scf')
oeprop('DIPOLE', 'QUADRUPOLE', 'MULLIKEN_CHARGES')
f=open( 'psi4out.xyz', 'w' )
f.write( "15  " )
f.write( str(ee) + "\n" )
f.write( MOL.save_string_xyz() )
f.close()
--------------------------------------------------------------------------

    Molecular point group: c1
  Charge       = 0
  Multiplicity = 1
  Basis Set: CC-PVTZ
  Basis Set:
  @DF-RHF Final Energy:  -232.20560133296206
    Total Energy =                       -232.2056013329621464
    Molecular point group: c1
  Basis Set: CC-PVTZ
  Basis Set:
  Basis Set: CC-PVTZ
  Basis Set:
  @DF-RHF Final Energy:  -232.20719348512853
    Total Energy =                       -232.2071934851285846
  Basis Set: CC-PVTZ
  Basis Set:
  Basis Set: CC-PVTZ
  Basis Set:
  @DF-RHF Final Energy:  -232.21488030783286
    Total Energy =                       -232.2148803078330843
  Basis Set: CC-PVTZ
  Basis Set:
  Basis Set: CC-PVTZ
  Basis Set:
  @DF-RHF Final Energy:  -232.21815644557154
    Total Energy =                       -232.2181564455715375
  Basis Set: CC-PVTZ
  Basis Set:
  @DF-RHF Final Energy:  -232.21873137100249
    Total Energy =                       -232.2187313710026615
  Basis Set: CC-PVTZ
  Basis Set:
  @DF-RHF Final Energy:  -232.21921935834627
    Total Energy =                       -232.2192193583464359
  Basis Set: CC-PVTZ
  Basis Set:
  Basis Set: CC-PVTZ
  Basis Set:
  @DF-RHF Final Energy:  -232.21929955005399
    Total Energy =                       -232.2192995500540178
  Basis Set: CC-PVTZ
  Basis Set:
  Basis Set: CC-PVTZ
  Basis Set:
  @DF-RHF Final Energy:  -232.21930492653550
    Total Energy =                       -232.2193049265356990
  Basis Set: CC-PVTZ
  Basis Set:
  Charge       = 0
  Multiplicity = 1
  Basis Set: CC-PVTZ
  Basis Set:

    Orbital Energies (a.u.)
    -----------------------

    Doubly Occupied:

       1A    -20.541807     2A    -11.263968     3A    -11.259952
       4A    -11.220450     5A    -11.215135     6A     -1.371603
       7A     -1.060278     8A     -0.962731     9A     -0.886390
      10A     -0.798398    11A     -0.671865    12A     -0.661051
      13A     -0.628739    14A     -0.607200    15A     -0.559424
      16A     -0.540114    17A     -0.524407    18A     -0.500839
      19A     -0.491676    20A     -0.445812    21A     -0.405603

  @DF-RHF Final Energy:  -232.21930541446005

   => Energetics <=

    Nuclear Repulsion Energy =            192.3110270660064316
    One-Electron Energy =                -695.8257795251092830
    Two-Electron Energy =                 271.2954470446426285
    DFT Exchange-Correlation Energy =       0.0000000000000000
    Empirical Dispersion Energy =           0.0000000000000000
    PCM Polarization Energy =               0.0000000000000000
    EFP Energy =                            0.0000000000000000
    Total Energy =                       -232.2193054144602229
    Molecular point group: c1
  Basis Set: CC-PVTZ
  Basis Set:

  -Total Gradient:
     Atom            X                  Y                   Z
    ------   -----------------  -----------------  -----------------
       1        0.000003776102    -0.000000893226    -0.000001435657
       2       -0.000131558037    -0.000185826344    -0.004112792544
       3        0.000961804647     0.001169142032     0.005880179701
       4       -0.000005583540     0.000004832345     0.000007778104
       5       -0.000003214238     0.000001417013    -0.000000238296
       6       -0.003795893622    -0.004610343212    -0.000687953297
       7        0.000008256056    -0.000014265221    -0.000024674581
       8        0.002982460947     0.003635709198    -0.001068327493
       9       -0.000009954375     0.000008221632     0.000003637610
      10       -0.000014819452    -0.000000536717     0.000005931766
      11       -0.000000493708     0.000001101601    -0.000001285130
      12        0.000000608692    -0.000006626155    -0.000001632064
      13        0.000004287663    -0.000000291163    -0.000000084721
      14        0.000001288909    -0.000000839969     0.000002763207
      15       -0.000000966042    -0.000000801813    -0.000001866606

  **** Optimization is complete! (in 9 steps) ****
    Final optimized geometry and variables:
    Molecular point group: c1

    Geometry (in Angstrom), charge = 0, multiplicity = 1:

    H           -2.478725533021     1.722254415488     0.280821516638
    C           -1.825478816462     0.861807915379     0.253630765633
    O           -0.524773852476     1.348613763264     0.195020458751
    H           -2.085253374926     0.263620472098    -0.612840324929
    H           -2.005186945075     0.270894383775     1.149089688084
    C            0.554433237015     0.452711722051     0.200520049978
    C            0.302068510768    -0.949103502720    -0.334578418179
    H            0.969149011859     0.407712573321     1.206340465932
    H            1.318491397011     0.919443199982    -0.411454113278
    C            1.589443910315    -1.768227143617    -0.338602460010
    H           -0.443078302119    -1.459866699996     0.264501909528
    H           -0.090506727359    -0.886872322671    -1.344217292298
    H            1.997678503266    -1.863454159302     0.661754484044
    H            1.410980221844    -2.766726478672    -0.718389695638
    H            2.347201219027    -1.307454113258    -0.962769409628

  Mulliken Charges: (a.u.)
   Center  Symbol    Alpha    Beta     Spin     Total
       1     H     0.44282  0.44282  0.00000  0.11436
       2     C     3.03624  3.03624  0.00000 -0.07249
       3     O     4.17919  4.17919  0.00000 -0.35838
       4     H     0.46895  0.46895  0.00000  0.06210
       5     H     0.47260  0.47260  0.00000  0.05481
       6     C     2.96235  2.96235  0.00000  0.07531
       7     C     3.10269  3.10269  0.00000 -0.20537
       8     H     0.46862  0.46862  0.00000  0.06276
       9     H     0.45969  0.45969  0.00000  0.08062
      10     C     3.15256  3.15256  0.00000 -0.30512
      11     H     0.45099  0.45099  0.00000  0.09802
      12     H     0.44955  0.44955  0.00000  0.10091
      13     H     0.45414  0.45414  0.00000  0.09172
      14     H     0.44635  0.44635  0.00000  0.10729
      15     H     0.45326  0.45326  0.00000  0.09347

   Total alpha = 21.00000, Total beta = 21.00000, Total charge = -0.00000
