  ==> Input File <==

--------------------------------------------------------------------------
set {
	reference rhf
	basis 6-31G*
}

set_num_threads( 1 )
memory 2 gb

molecule MOL {
0 1

H	 1.690088	 -1.636338	 -0.452282
O	 2.016064	 -0.864478	 0.000222
C	 1.050492	 0.053836	 0.000068
C	 -0.318135	 -0.576402	 0.000164
O	 1.285279	 1.218255	 -0.000078
C	 -1.454360	 0.441875	 -0.000474
H	 -0.374042	 -1.230163	 -0.866135
H	 -0.374274	 -1.229227	 0.867154
C	 -2.826123	 -0.230780	 0.000056
H	 -1.357605	 1.085198	 -0.868380
H	 -1.357504	 1.086451	 0.866496
H	 -2.959731	 -0.858053	 -0.876869
H	 -3.619374	 0.509403	 -0.000080
H	 -2.959371	 -0.857318	 0.877556

	symmetry c1
}
set optking {
	frozen_dihedral = ("
		7 4 6 10,
		2 3 4 7
	")
}

ee = energy('scf')
oeprop('DIPOLE', 'QUADRUPOLE', 'MULLIKEN_CHARGES')
f=open( 'psi4out.xyz', 'w' )
f.write( "14  " )
f.write( str(ee) + "\n" )
f.write( MOL.save_string_xyz() )
f.close()
--------------------------------------------------------------------------

    Molecular point group: c1

    Geometry (in Angstrom), charge = 0, multiplicity = 1:

       Center              X                  Y                   Z               Mass
    ------------   -----------------  -----------------  -----------------  -----------------
           H          1.703411208585    -1.622328632901    -0.447103155135     1.007825032070
           O          2.029387208585    -0.850468632901     0.005400844865    15.994914619560
           C          1.063815208585     0.067845367099     0.005246844865    12.000000000000
           C         -0.304811791415    -0.562392632901     0.005342844865    12.000000000000
           O          1.298602208585     1.232264367099     0.005100844865    15.994914619560
           C         -1.441036791415     0.455884367099     0.004704844865    12.000000000000
           H         -0.360718791415    -1.216153632901    -0.860956155135     1.007825032070
           H         -0.360950791415    -1.215217632901     0.872332844865     1.007825032070
           C         -2.812799791415    -0.216770632901     0.005234844865    12.000000000000
           H         -1.344281791415     1.099207367099    -0.863201155135     1.007825032070
           H         -1.344180791415     1.100460367099     0.871674844865     1.007825032070
           H         -2.946407791415    -0.844043632901    -0.871690155135     1.007825032070
           H         -3.606050791415     0.523412367099     0.005098844865     1.007825032070
           H         -2.946047791415    -0.843308632901     0.882734844865     1.007825032070

  Charge       = 0
  Multiplicity = 1
  Basis Set: 6-31G*
  Basis Set:

    Orbital Energies (a.u.)
    -----------------------

    Doubly Occupied:

       1A    -20.612277     2A    -20.552427     3A    -11.381425
       4A    -11.251964     5A    -11.231852     6A    -11.222452
       7A     -1.470889     8A     -1.371355     9A     -1.089512
      10A     -0.980870    11A     -0.851715    12A     -0.817527
      13A     -0.720904    14A     -0.676154    15A     -0.661261
      16A     -0.626931    17A     -0.586850    18A     -0.582419
      19A     -0.552919    20A     -0.508924    21A     -0.497197
      22A     -0.489624    23A     -0.477418    24A     -0.441847

  @DF-RHF Final Energy:  -305.86530652039062

   => Energetics <=

    Nuclear Repulsion Energy =            240.3640442426597872
    One-Electron Energy =                -893.1452717517744304
    Two-Electron Energy =                 346.9159209887247926
    DFT Exchange-Correlation Energy =       0.0000000000000000
    Empirical Dispersion Energy =           0.0000000000000000
    PCM Polarization Energy =               0.0000000000000000
    EFP Energy =                            0.0000000000000000
    Total Energy =                       -305.8653065203898223

  Mulliken Charges: (a.u.)
   Center  Symbol    Alpha    Beta     Spin     Total
       1     H     0.26857  0.26857  0.00000  0.46286
       2     O     4.34945  4.34945  0.00000 -0.69891
       3     C     2.60953  2.60953  0.00000  0.78095
       4     C     3.23368  3.23368  0.00000 -0.46735
       5     O     4.26458  4.26458  0.00000 -0.52915
       6     C     3.15157  3.15157  0.00000 -0.30315
       7     H     0.41165  0.41165  0.00000  0.17670
       8     H     0.39749  0.39749  0.00000  0.20502
       9     C     3.24356  3.24356  0.00000 -0.48712
      10     H     0.40817  0.40817  0.00000  0.18366
      11     H     0.40644  0.40644  0.00000  0.18713
      12     H     0.42178  0.42178  0.00000  0.15643
      13     H     0.41283  0.41283  0.00000  0.17434
      14     H     0.42071  0.42071  0.00000  0.15859

   Total alpha = 24.00000, Total beta = 24.00000, Total charge = -0.00000
