                              Psi4 1.0.54 Driver

  ==> Input File <==

--------------------------------------------------------------------------
set {
	reference rhf
	basis cc-pvtz
}

set_num_threads( 4 )
memory 2 gb

molecule MOL {
0 1

O	 -2.664606	 -0.561200	 0.821077
C	 -1.918515	 -1.165545	 0.121401
C	 -0.881910	 -0.448129	 -0.720509
C	 -1.948773	 -2.673639	 0.047196
C	 0.376695	 -0.140025	 0.100361
H	 -1.324723	 0.476867	 -1.067510
H	 -0.620170	 -1.047168	 -1.586251
C	 1.630207	 -0.772146	 -0.501001
H	 0.486632	 0.935267	 0.162725
H	 0.248225	 -0.501310	 1.117842
C	 2.907848	 -0.545876	 0.309149
H	 1.772784	 -0.391628	 -1.509394
H	 1.468529	 -1.842059	 -0.599744
C	 3.373802	 0.906639	 0.372125
H	 3.699140	 -1.146831	 -0.127906
H	 2.764321	 -0.923458	 1.318191
H	 3.519798	 1.311927	 -0.623875
H	 4.316899	 0.983758	 0.900700
H	 2.661122	 1.540651	 0.885346
H	 -2.288157	 -2.975566	 -0.938531
H	 -2.618029	 -3.069583	 0.795457
H	 -0.954291	 -3.083737	 0.182892

	symmetry c1
}
set optking {
	frozen_dihedral = ("
		6 3 5 8
	")
}

ee,wfn = optimize('scf', return_wfn=True)
oeprop( wfn, 'DIPOLE', 'QUADRUPOLE', 'MULLIKEN_CHARGES')
f=open( 'psi4out.xyz', 'w' )
f.write( "22  " )
f.write( str(ee) + "\n" )
f.write( MOL.save_string_xyz() )
f.close()
--------------------------------------------------------------------------

    Molecular point group: c1
  Charge       = 0
  Multiplicity = 1
  Basis Set: CC-PVTZ
  Basis Set:
  @DF-RHF Final Energy:  -348.21740375208435
    Total Energy =                       -348.2174037520846923
    Molecular point group: c1
  Basis Set: CC-PVTZ
  Basis Set:
  Basis Set: CC-PVTZ
  Basis Set:
  @DF-RHF Final Energy:  -348.21766074299063
    Total Energy =                       -348.2176607429908017
  Basis Set: CC-PVTZ
  Basis Set:
  Basis Set: CC-PVTZ
  Basis Set:
  @DF-RHF Final Energy:  -348.21789414084475
    Total Energy =                       -348.2178941408447486
  Basis Set: CC-PVTZ
  Basis Set:
  Basis Set: CC-PVTZ
  Basis Set:
  @DF-RHF Final Energy:  -348.21801862878914
    Total Energy =                       -348.2180186287889683
  Basis Set: CC-PVTZ
  Basis Set:
  @DF-RHF Final Energy:  -348.21804435154138
    Total Energy =                       -348.2180443515414936
  @DF-RHF Final Energy:  -348.21806266619740
    Total Energy =                       -348.2180626661976248
  Basis Set: CC-PVTZ
  Basis Set:
  @DF-RHF Final Energy:  -348.21810885694418
    Total Energy =                       -348.2181088569440703
  Basis Set: CC-PVTZ
  Basis Set:
  Basis Set: CC-PVTZ
  Basis Set:
  @DF-RHF Final Energy:  -348.21816240033962
    Total Energy =                       -348.2181624003391676
  Basis Set: CC-PVTZ
  Basis Set:
  Basis Set: CC-PVTZ
  Basis Set:
  @DF-RHF Final Energy:  -348.21816881445170
    Total Energy =                       -348.2181688144520990
  Basis Set: CC-PVTZ
  Basis Set:
  Charge       = 0
  Multiplicity = 1
  Basis Set: CC-PVTZ
  Basis Set:

    Orbital Energies (a.u.)
    -----------------------

    Doubly Occupied:

       1A    -20.536425     2A    -11.318864     3A    -11.230392
       4A    -11.227493     5A    -11.226519     6A    -11.224095
       7A    -11.221616     8A    -11.212529     9A     -1.396389
      10A     -1.098510    11A     -1.046347    12A     -0.998028
      13A     -0.942217    14A     -0.862878    15A     -0.790713
      16A     -0.735078    17A     -0.660313    18A     -0.649922
      19A     -0.628306    20A     -0.623070    21A     -0.597952
      22A     -0.578692    23A     -0.569733    24A     -0.549129
      25A     -0.536645    26A     -0.514881    27A     -0.508476
      28A     -0.493406    29A     -0.473500    30A     -0.466764
      31A     -0.458430    32A     -0.399040

  @DF-RHF Final Energy:  -348.21816868029964

   => Energetics <=

    Nuclear Repulsion Energy =            375.4525741401138248
    One-Electron Energy =               -1215.7887836914605941
    Two-Electron Energy =                 492.1180408710471283
    DFT Exchange-Correlation Energy =       0.0000000000000000
    Empirical Dispersion Energy =           0.0000000000000000
    PCM Polarization Energy =               0.0000000000000000
    EFP Energy =                            0.0000000000000000
    Total Energy =                       -348.2181686802996410
    Molecular point group: c1
  Basis Set: CC-PVTZ
  Basis Set:

  -Total Gradient:
     Atom            X                  Y                   Z
    ------   -----------------  -----------------  -----------------
       1        0.000015417631    -0.000033728634    -0.000024065693
       2       -0.000002377215     0.000050334033     0.000041438491
       3        0.000363111514    -0.000089739309    -0.000476421466
       4       -0.000060466157    -0.000046443387    -0.000048683038
       5        0.000024107233     0.000445678589    -0.000137165482
       6       -0.000278685584     0.000010615193     0.000435700782
       7       -0.000019029964     0.000008863471     0.000009432329
       8       -0.000067642550    -0.000392315649     0.000210446161
       9        0.000041541481     0.000059994590     0.000022123490
      10       -0.000001805352    -0.000000889230    -0.000033405137
      11        0.000021954581     0.000015981379    -0.000074776033
      12       -0.000001959397    -0.000026090101    -0.000004201671
      13       -0.000021140123    -0.000005302377     0.000025272566
      14       -0.000006798405    -0.000007101272     0.000009233932
      15        0.000037400685     0.000008987987    -0.000019663998
      16        0.000000646424    -0.000026725996     0.000005331599
      17        0.000011724982    -0.000008651710    -0.000002906486
      18        0.000001376397     0.000010589585     0.000013238162
      19       -0.000079588600     0.000029620992     0.000009578956
      20        0.000017791578    -0.000005117549     0.000000997504
      21        0.000005176359    -0.000014339005     0.000015695949
      22       -0.000000755521     0.000015778398     0.000022799085

  **** Optimization is complete! (in 10 steps) ****
    Final optimized geometry and variables:
    Molecular point group: c1

    Geometry (in Angstrom), charge = 0, multiplicity = 1:

    O           -2.987876213642     0.126514170130     0.521302240346
    C           -2.069595827355    -0.431523012816     0.014929159659
    C           -1.013871850281     0.326151198897    -0.763035869821
    C           -1.903499188644    -1.930424629869     0.123418299304
    C            0.287508208188     0.516081958344     0.057776739957
    H           -1.441635070797     1.281871119322    -1.027509594262
    H           -0.796668640411    -0.210541030981    -1.680401551126
    C            1.519126004228    -0.099969244484    -0.604895972094
    H            0.441154765893     1.574948362618     0.213818876490
    H            0.169463971889     0.087483537434     1.048760941586
    C            2.810823660429     0.029385223495     0.203375822047
    H            1.660574664685     0.352867595238    -1.583489518274
    H            1.328488099920    -1.154374589398    -0.785781918397
    C            3.313054113791     1.460564889454     0.378924656984
    H            3.582354409895    -0.551919914678    -0.291751675398
    H            2.669575127130    -0.425835889757     1.180189944158
    H            3.457259686802     1.943135093690    -0.582401119095
    H            4.264054580057     1.471485918252     0.898554029851
    H            2.622908208500     2.066489760214     0.953365341190
    H           -2.080571854337    -2.376764131197    -0.849850569759
    H           -2.611064290047    -2.329500642594     0.833834948702
    H           -0.894417371138    -2.192500925317     0.418377819460

  Mulliken Charges: (a.u.)
   Center  Symbol    Alpha    Beta     Spin     Total
       1     O     4.17567  4.17567  0.00000 -0.35134
       2     C     2.85518  2.85518  0.00000  0.28964
       3     C     3.10018  3.10018  0.00000 -0.20037
       4     C     3.15799  3.15799  0.00000 -0.31599
       5     C     3.11646  3.11646  0.00000 -0.23292
       6     H     0.43559  0.43559  0.00000  0.12881
       7     H     0.44989  0.44989  0.00000  0.10022
       8     C     3.09741  3.09741  0.00000 -0.19482
       9     H     0.43587  0.43587  0.00000  0.12827
      10     H     0.44694  0.44694  0.00000  0.10612
      11     C     3.09119  3.09119  0.00000 -0.18237
      12     H     0.45020  0.45020  0.00000  0.09960
      13     H     0.44821  0.44821  0.00000  0.10358
      14     C     3.15241  3.15241  0.00000 -0.30482
      15     H     0.44743  0.44743  0.00000  0.10515
      16     H     0.45363  0.45363  0.00000  0.09273
      17     H     0.45420  0.45420  0.00000  0.09161
      18     H     0.44528  0.44528  0.00000  0.10944
      19     H     0.45281  0.45281  0.00000  0.09438
      20     H     0.44802  0.44802  0.00000  0.10396
      21     H     0.43453  0.43453  0.00000  0.13093
      22     H     0.45090  0.45090  0.00000  0.09820

   Total alpha = 32.00000, Total beta = 32.00000, Total charge = -0.00000

*** Psi4 exiting successfully. Buy a developer a beer!
