  ==> Input File <==

--------------------------------------------------------------------------
set {
	reference rhf
	basis cc-pvtz
}

set_num_threads( 4 )
memory 2 gb

molecule MOL {
0 1

H	 -1.088256	 -1.364742	 0.152233
O	 -1.432053	 -0.565244	 -0.200812
C	 -0.727158	 0.534527	 0.310686
C	 0.680222	 0.664433	 -0.252229
H	 -1.306802	 1.408001	 0.044211
H	 -0.690821	 0.490158	 1.397609
C	 0.910407	 -0.133338	 -1.532316
H	 0.885421	 1.714446	 -0.432779
H	 1.378323	 0.331781	 0.511084
H	 0.271041	 0.212114	 -2.337300
H	 1.934049	 -0.034117	 -1.872706
H	 0.715913	 -1.190311	 -1.377603

	symmetry c1
}
set optking {
	frozen_dihedral = ("
		8 4 3 2
	")
}

ee = optimize('scf')
oeprop('DIPOLE', 'QUADRUPOLE', 'MULLIKEN_CHARGES')
f=open( 'psi4out.xyz', 'w' )
f.write( "12  " )
f.write( str(ee) + "\n" )
f.write( MOL.save_string_xyz() )
f.close()
--------------------------------------------------------------------------

    Molecular point group: c1
  Charge       = 0
  Multiplicity = 1
  Basis Set: CC-PVTZ
  Basis Set:
  @DF-RHF Final Energy:  -193.18328208420144
    Total Energy =                       -193.1832820842012666
    Molecular point group: c1
  Basis Set: CC-PVTZ
  Basis Set:
  Basis Set: CC-PVTZ
  Basis Set:
  @DF-RHF Final Energy:  -193.18411930974321
    Total Energy =                       -193.1841193097430960
  Basis Set: CC-PVTZ
  Basis Set:
  Basis Set: CC-PVTZ
  Basis Set:
  @DF-RHF Final Energy:  -193.18457345541714
    Total Energy =                       -193.1845734554171941
  Basis Set: CC-PVTZ
  Basis Set:
  Basis Set: CC-PVTZ
  Basis Set:
  @DF-RHF Final Energy:  -193.18458925425421
    Total Energy =                       -193.1845892542542344
  Basis Set: CC-PVTZ
  Basis Set:
  Basis Set: CC-PVTZ
  Basis Set:
  @DF-RHF Final Energy:  -193.18459173381478
    Total Energy =                       -193.1845917338146705
  Basis Set: CC-PVTZ
  Basis Set:
  Charge       = 0
  Multiplicity = 1
  Basis Set: CC-PVTZ
  Basis Set:

    Orbital Energies (a.u.)
    -----------------------

    Doubly Occupied:

       1A    -20.547097     2A    -11.266356     3A    -11.216700
       4A    -11.206637     5A     -1.364633     6A     -1.045073
       7A     -0.924846     8A     -0.808919     9A     -0.688165
      10A     -0.634646    11A     -0.625887    12A     -0.573584
      13A     -0.527688    14A     -0.511835    15A     -0.489779
      16A     -0.460354    17A     -0.434108

  @DF-RHF Final Energy:  -193.18459192801345

   => Energetics <=

    Nuclear Repulsion Energy =            133.5067852645479434
    One-Electron Energy =                -526.7301415464232832
    Two-Electron Energy =                 200.0387643538621489
    DFT Exchange-Correlation Energy =       0.0000000000000000
    Empirical Dispersion Energy =           0.0000000000000000
    PCM Polarization Energy =               0.0000000000000000
    EFP Energy =                            0.0000000000000000
    Total Energy =                       -193.1845919280131909
    Molecular point group: c1
  Basis Set: CC-PVTZ
  Basis Set:

  -Total Gradient:
     Atom            X                  Y                   Z
    ------   -----------------  -----------------  -----------------
       1       -0.000004485067     0.000000763864    -0.000001041328
       2       -0.001496490129     0.002523213714    -0.003505700648
       3        0.001646013574    -0.003641093823     0.003708025556
       4        0.001805601013     0.001703056699     0.005056119650
       5        0.000006593346     0.000008207323     0.000005725075
       6        0.000011295616     0.000003673893    -0.000007616198
       7       -0.000004565677     0.000004171764    -0.000002323615
       8       -0.001955325491    -0.000601060620    -0.005255359569
       9        0.000000499140     0.000003270276     0.000008729401
      10       -0.000000006534    -0.000001449171    -0.000008545225
      11       -0.000005993617    -0.000002430713    -0.000000908324
      12       -0.000003136176    -0.000000323206     0.000002895226

  **** Optimization is complete! (in 6 steps) ****
    Final optimized geometry and variables:
    Molecular point group: c1

    Geometry (in Angstrom), charge = 0, multiplicity = 1:

    H           -0.974526487251    -1.448309271247     0.604771600304
    O           -1.296101708764    -0.646240112852     0.235408146131
    C           -0.557872923293     0.445605622429     0.715243802922
    C            0.879425771918     0.546085410697     0.170840192800
    H           -1.118772279872     1.314420410825     0.398451919721
    H           -0.548147550359     0.453760657828     1.801037493145
    C            1.107826336978    -0.208069221299    -1.138574965096
    H            1.086504103778     1.592935383507    -0.024359093729
    H            1.593723958964     0.204872530002     0.912843038801
    H            0.410310145177     0.111608332428    -1.903037335901
    H            2.113092514922    -0.026202041935    -1.501129559784
    H            0.988517183536    -1.277237111783    -1.018309456620

  Mulliken Charges: (a.u.)
   Center  Symbol    Alpha    Beta     Spin     Total
       1     H     0.39547  0.39547  0.00000  0.20907
       2     O     4.19977  4.19977  0.00000 -0.39954
       3     C     2.97579  2.97579  0.00000  0.04842
       4     C     3.10660  3.10660  0.00000 -0.21320
       5     H     0.45657  0.45657  0.00000  0.08686
       6     H     0.46256  0.46256  0.00000  0.07488
       7     C     3.13619  3.13619  0.00000 -0.27237
       8     H     0.45366  0.45366  0.00000  0.09268
       9     H     0.45255  0.45255  0.00000  0.09490
      10     H     0.45035  0.45035  0.00000  0.09930
      11     H     0.45087  0.45087  0.00000  0.09825
      12     H     0.45963  0.45963  0.00000  0.08074

   Total alpha = 17.00000, Total beta = 17.00000, Total charge =  0.00000
