                              Psi4 1.0.54 Driver

  ==> Input File <==

--------------------------------------------------------------------------
set {
	reference rhf
	basis cc-pvtz
}

set_num_threads( 4 )
memory 2 gb

molecule MOL {
0 1

H	 1.885200	 0.625753	 6.233233
C	 1.444370	 -0.234744	 5.743254
C	 0.526370	 0.190773	 4.602406
H	 2.253414	 -0.858304	 5.378785
H	 0.902422	 -0.801163	 6.493761
C	 -0.122098	 -0.996879	 3.894634
H	 1.093446	 0.773216	 3.885382
H	 -0.251346	 0.843628	 4.991973
C	 -1.051612	 -0.601055	 2.751736
H	 0.647986	 -1.654667	 3.511080
H	 -0.695840	 -1.569589	 4.617549
C	 -0.346112	 -0.073170	 1.513959
H	 -1.625098	 -1.465506	 2.426767
H	 -1.783759	 0.130228	 3.081437
C	 -1.180025	 0.697761	 0.509157
O	 0.810511	 -0.270621	 1.322883
C	 -2.285431	 -0.137488	 -0.145671
H	 -0.501016	 1.073699	 -0.244140
H	 -1.624689	 1.550770	 1.014969
C	 -3.646545	 0.082747	 0.508954
H	 -2.348635	 0.118247	 -1.199806
H	 -2.034895	 -1.192387	 -0.096473
C	 -4.757412	 -0.737227	 -0.138149
H	 -3.900211	 1.137405	 0.459735
H	 -3.580878	 -0.166775	 1.564416
H	 -4.867876	 -0.486707	 -1.187777
H	 -4.549650	 -1.800049	 -0.072540
H	 -5.709585	 -0.556397	 0.346597

	symmetry c1
}
set optking {
	frozen_dihedral = ("
		12 15 17 21
	")
}

ee,wfn = optimize('scf', return_wfn=True)
oeprop( wfn, 'DIPOLE', 'QUADRUPOLE', 'MULLIKEN_CHARGES')
f=open( 'psi4out.xyz', 'w' )
f.write( "28  " )
f.write( str(ee) + "\n" )
f.write( MOL.save_string_xyz() )
f.close()
--------------------------------------------------------------------------

    Molecular point group: c1
  Charge       = 0
  Multiplicity = 1
  Basis Set: CC-PVTZ
  Basis Set:
  @DF-RHF Final Energy:  -426.31456985939747
    Total Energy =                       -426.3145698593972384
    Molecular point group: c1
  Basis Set: CC-PVTZ
  Basis Set:
  Basis Set: CC-PVTZ
  Basis Set:
  @DF-RHF Final Energy:  -426.31498580001596
    Total Energy =                       -426.3149858000158474
  Basis Set: CC-PVTZ
  Basis Set:
  Basis Set: CC-PVTZ
  Basis Set:
  @DF-RHF Final Energy:  -426.30755594144125
    Total Energy =                       -426.3075559414407962
  Basis Set: CC-PVTZ
  Basis Set:
  Basis Set: CC-PVTZ
  Basis Set:
  @DF-RHF Final Energy:  -426.31396842158983
    Total Energy =                       -426.3139684215898342
  Basis Set: CC-PVTZ
  Basis Set:
  @DF-RHF Final Energy:  -426.31540008163711
    Total Energy =                       -426.3154000816376765
  @DF-RHF Final Energy:  -426.31547506171341
    Total Energy =                       -426.3154750617131867
  Basis Set: CC-PVTZ
  Basis Set:
  @DF-RHF Final Energy:  -426.31548319739227
    Total Energy =                       -426.3154831973926093
  Basis Set: CC-PVTZ
  Basis Set:
  Basis Set: CC-PVTZ
  Basis Set:
  @DF-RHF Final Energy:  -426.31548491745275
    Total Energy =                       -426.3154849174532046
  Basis Set: CC-PVTZ
  Basis Set:
  Basis Set: CC-PVTZ
  Basis Set:
  @DF-RHF Final Energy:  -426.31548619363787
    Total Energy =                       -426.3154861936370708
  Basis Set: CC-PVTZ
  Basis Set:
  Charge       = 0
  Multiplicity = 1
  Basis Set: CC-PVTZ
  Basis Set:

    Orbital Energies (a.u.)
    -----------------------

    Doubly Occupied:

       1A    -20.536429     2A    -11.316601     3A    -11.230267
       4A    -11.228719     5A    -11.226646     6A    -11.225087
       7A    -11.215176     8A    -11.214454     9A    -11.210010
      10A    -11.203505    11A     -1.396647    12A     -1.094662
      13A     -1.078149    14A     -1.022192    15A     -0.992801
      16A     -0.908444    17A     -0.875750    18A     -0.812999
      19A     -0.796955    20A     -0.725730    21A     -0.672497
      22A     -0.651611    23A     -0.625672    24A     -0.614651
      25A     -0.613163    26A     -0.592640    27A     -0.578371
      28A     -0.574088    29A     -0.547698    30A     -0.532134
      31A     -0.523338    32A     -0.516083    33A     -0.502278
      34A     -0.481669    35A     -0.480123    36A     -0.477303
      37A     -0.466159    38A     -0.463407    39A     -0.456142
      40A     -0.395133

  @DF-RHF Final Energy:  -426.31548658422446

   => Energetics <=

    Nuclear Repulsion Energy =            538.7737958977816106
    One-Electron Energy =               -1646.0277894388082132
    Two-Electron Energy =                 680.9385069568018025
    DFT Exchange-Correlation Energy =       0.0000000000000000
    Empirical Dispersion Energy =           0.0000000000000000
    PCM Polarization Energy =               0.0000000000000000
    EFP Energy =                            0.0000000000000000
    Total Energy =                       -426.3154865842248000
    Molecular point group: c1
  Basis Set: CC-PVTZ
  Basis Set:

  -Total Gradient:
     Atom            X                  Y                   Z
    ------   -----------------  -----------------  -----------------
       1       -0.000001717589    -0.000002141493    -0.000001897684
       2       -0.000010781020    -0.000005246703     0.000008681111
       3        0.000019492542    -0.000000643273    -0.000061015958
       4        0.000002516034     0.000000918987     0.000000713386
       5        0.000004480443    -0.000000574667     0.000000216444
       6       -0.000000341614     0.000014732106    -0.000012254616
       7       -0.000014298148    -0.000007505967     0.000015504351
       8       -0.000005034139    -0.000001569571     0.000002995190
       9       -0.000015824059    -0.000020189751    -0.000032535722
      10        0.000008581594    -0.000004820798     0.000005349239
      11       -0.000002009901    -0.000001409455    -0.000003044382
      12        0.000403229245    -0.000266235446    -0.000454072614
      13        0.000006367675     0.000011071531     0.000017106776
      14       -0.000005381536     0.000009096872    -0.000002787427
      15       -0.000431059550     0.000225543179     0.000635593459
      16       -0.000005469527     0.000014770914     0.000029588339
      17       -0.000488664953     0.000762550016    -0.000022436411
      18       -0.000004348354    -0.000000365887    -0.000001423130
      19        0.000000365970    -0.000009548378     0.000000757371
      20        0.000020748640     0.000004374107     0.000003448251
      21        0.000520670189    -0.000728287179    -0.000130182880
      22        0.000004177586     0.000005974118     0.000002775050
      23       -0.000007138508    -0.000001077317     0.000003291149
      24        0.000002511987    -0.000002000687     0.000000301060
      25       -0.000002338459    -0.000000032006    -0.000005939398
      26        0.000000924261    -0.000000285886     0.000004537504
      27        0.000001381627     0.000005431962    -0.000001543861
      28       -0.000001040431    -0.000002529331    -0.000001724600

  **** Optimization is complete! (in 10 steps) ****
    Final optimized geometry and variables:
    Molecular point group: c1

    Geometry (in Angstrom), charge = 0, multiplicity = 1:

    H            3.459691819119     0.492118822268     3.941006085534
    C            2.747334442739    -0.239816092678     3.578135521380
    C            1.878692979203     0.340370567359     2.467241963209
    H            3.307074983524    -1.098966227785     3.224852130092
    H            2.144857652506    -0.561475849576     4.421600037534
    C            0.852834389520    -0.660351835802     1.939774753358
    H            2.512131587905     0.671369317002     1.652923223668
    H            1.360160295695     1.220684017991     2.840112549534
    C           -0.035938035655    -0.107412648173     0.830262162361
    H            1.362667057617    -1.544508355493     1.577204714701
    H            0.215142118118    -0.977559358655     2.759935111960
    C            0.652194907128     0.068290915848    -0.511981368553
    H           -0.873689257736    -0.778100369362     0.657810972692
    H           -0.476737483529     0.841133134951     1.122354144401
    C           -0.081932967830     0.843222489658    -1.591627390570
    O            1.719666058182    -0.406418127836    -0.732666219281
    C           -1.285153501384     0.082713189215    -2.192854669259
    H            0.649109423660     1.042138833598    -2.361623545997
    H           -0.411734268618     1.796817568930    -1.191710851663
    C           -2.645552808312     0.470146905485    -1.616816892124
    H           -1.297490597888     0.263115318340    -3.261712672540
    H           -1.132137030127    -0.987198133575    -2.082581316088
    C           -3.794579211974    -0.313309488109    -2.242308181889
    H           -2.804699208544     1.532914232750    -1.776163637043
    H           -2.654123125567     0.320784953198    -0.542218340277
    H           -3.835411052488    -0.158161620991    -3.315138363294
    H           -3.683523702569    -1.378221457914    -2.067754859736
    H           -4.747958399183    -0.007900925855    -1.827384728246

  Mulliken Charges: (a.u.)
   Center  Symbol    Alpha    Beta     Spin     Total
       1     H     0.44866  0.44866  0.00000  0.10268
       2     C     3.15206  3.15206  0.00000 -0.30412
       3     C     3.08394  3.08394  0.00000 -0.16787
       4     H     0.45191  0.45191  0.00000  0.09618
       5     H     0.45711  0.45711  0.00000  0.08578
       6     C     3.08709  3.08709  0.00000 -0.17417
       7     H     0.44486  0.44486  0.00000  0.11028
       8     H     0.45866  0.45866  0.00000  0.08268
       9     C     3.13309  3.13309  0.00000 -0.26618
      10     H     0.44492  0.44492  0.00000  0.11015
      11     H     0.44790  0.44790  0.00000  0.10419
      12     C     2.86042  2.86042  0.00000  0.27916
      13     H     0.43377  0.43377  0.00000  0.13246
      14     H     0.44151  0.44151  0.00000  0.11699
      15     C     3.10226  3.10226  0.00000 -0.20451
      16     O     4.17845  4.17845  0.00000 -0.35691
      17     C     3.11113  3.11113  0.00000 -0.22225
      18     H     0.43316  0.43316  0.00000  0.13367
      19     H     0.44867  0.44867  0.00000  0.10266
      20     C     3.08579  3.08579  0.00000 -0.17157
      21     H     0.44045  0.44045  0.00000  0.11910
      22     H     0.44600  0.44600  0.00000  0.10799
      23     C     3.15028  3.15028  0.00000 -0.30056
      24     H     0.45198  0.45198  0.00000  0.09605
      25     H     0.45228  0.45228  0.00000  0.09543
      26     H     0.45291  0.45291  0.00000  0.09418
      27     H     0.45383  0.45383  0.00000  0.09234
      28     H     0.44692  0.44692  0.00000  0.10617

   Total alpha = 40.00000, Total beta = 40.00000, Total charge = -0.00000

*** Psi4 exiting successfully. Buy a developer a beer!
