  ==> Input File <==

--------------------------------------------------------------------------
set {
	reference rhf
	basis 6-31G*
}

set_num_threads( 1 )
memory 2 gb

molecule MOL {
0 1

H	 2.887247	 -0.246086	 -0.966258
N	 2.434251	 -0.367735	 -0.081097
C	 1.267428	 0.496480	 0.024474
H	 3.108386	 -0.135129	 0.623425
C	 -0.016086	 -0.325158	 -0.029487
H	 1.288818	 1.183521	 -0.816092
H	 1.267576	 1.109062	 0.929528
C	 -1.282277	 0.529072	 0.046735
H	 -0.012495	 -0.908639	 -0.945788
H	 -0.015903	 -1.041248	 0.791956
C	 -2.563920	 -0.301775	 -0.006060
H	 -1.284084	 1.244622	 -0.773004
H	 -1.271387	 1.115393	 0.963286
H	 -2.621848	 -0.873522	 -0.927727
H	 -3.445135	 0.329952	 0.047812
H	 -2.609542	 -1.004582	 0.821105

	symmetry c1
}
set optking {
	frozen_dihedral = ("
		6 3 5 9,
		12 8 5 9
	")
}

ee = energy('scf')
oeprop('DIPOLE', 'QUADRUPOLE', 'MULLIKEN_CHARGES')
f=open( 'psi4out.xyz', 'w' )
f.write( "16  " )
f.write( str(ee) + "\n" )
f.write( MOL.save_string_xyz() )
f.close()
--------------------------------------------------------------------------

    Molecular point group: c1

    Geometry (in Angstrom), charge = 0, multiplicity = 1:

       Center              X                  Y                   Z               Mass
    ------------   -----------------  -----------------  -----------------  -----------------
           H          2.884248239685    -0.251742147678    -0.953104333449     1.007825032070
           N          2.431252239685    -0.373391147678    -0.067943333449    14.003074004780
           C          1.264429239685     0.490823852322     0.037627666551    12.000000000000
           H          3.105387239685    -0.140785147678     0.636578666551     1.007825032070
           C         -0.019084760315    -0.330814147678    -0.016333333449    12.000000000000
           H          1.285819239685     1.177864852322    -0.802938333449     1.007825032070
           H          1.264577239685     1.103405852322     0.942681666551     1.007825032070
           C         -1.285275760315     0.523415852322     0.059888666551    12.000000000000
           H         -0.015493760315    -0.914295147678    -0.932634333449     1.007825032070
           H         -0.018901760315    -1.046904147678     0.805109666551     1.007825032070
           C         -2.566918760315    -0.307431147678     0.007093666551    12.000000000000
           H         -1.287082760315     1.238965852322    -0.759850333449     1.007825032070
           H         -1.274385760315     1.109736852322     0.976439666551     1.007825032070
           H         -2.624846760315    -0.879178147678    -0.914573333449     1.007825032070
           H         -3.448133760315     0.324295852322     0.060965666551     1.007825032070
           H         -2.612540760315    -1.010238147678     0.834258666551     1.007825032070

  Charge       = 0
  Multiplicity = 1
  Basis Set: 6-31G*
  Basis Set:

    Orbital Energies (a.u.)
    -----------------------

    Doubly Occupied:

       1A    -15.531616     2A    -11.240252     3A    -11.211221
       4A    -11.205283     5A    -11.202495     6A     -1.176271
       7A     -1.056355     8A     -0.956630     9A     -0.841389
      10A     -0.785979    11A     -0.675871    12A     -0.621666
      13A     -0.610765    14A     -0.576004    15A     -0.550966
      16A     -0.532537    17A     -0.489148    18A     -0.473890
      19A     -0.464206    20A     -0.457223    21A     -0.377589

  @DF-RHF Final Energy:  -212.31284205855337

   => Energetics <=

    Nuclear Repulsion Energy =            186.0792318645704881
    One-Electron Energy =                -654.7093732639560812
    Two-Electron Energy =                 256.3172993408323919
    DFT Exchange-Correlation Energy =       0.0000000000000000
    Empirical Dispersion Energy =           0.0000000000000000
    PCM Polarization Energy =               0.0000000000000000
    EFP Energy =                            0.0000000000000000
    Total Energy =                       -212.3128420585532012

  Mulliken Charges: (a.u.)
   Center  Symbol    Alpha    Beta     Spin     Total
       1     H     0.33185  0.33185  0.00000  0.33630
       2     N     3.92329  3.92329  0.00000 -0.84659
       3     C     3.07036  3.07036  0.00000 -0.14073
       4     H     0.33220  0.33220  0.00000  0.33561
       5     C     3.13725  3.13725  0.00000 -0.27450
       6     H     0.42874  0.42874  0.00000  0.14253
       7     H     0.42400  0.42400  0.00000  0.15201
       8     C     3.15757  3.15757  0.00000 -0.31514
       9     H     0.42276  0.42276  0.00000  0.15448
      10     H     0.42032  0.42032  0.00000  0.15937
      11     C     3.23795  3.23795  0.00000 -0.47590
      12     H     0.42515  0.42515  0.00000  0.14969
      13     H     0.42499  0.42499  0.00000  0.15003
      14     H     0.42157  0.42157  0.00000  0.15686
      15     H     0.42064  0.42064  0.00000  0.15871
      16     H     0.42137  0.42137  0.00000  0.15725

   Total alpha = 21.00000, Total beta = 21.00000, Total charge =  0.00000
