                              Psi4 1.0.54 Driver

  ==> Input File <==

--------------------------------------------------------------------------
set {
	reference rhf
	basis cc-pvtz
}

set_num_threads( 4 )
memory 2 gb

molecule MOL {
0 1

O	 1.847685	 1.294399	 -0.000190
C	 1.704209	 0.119472	 -0.000093
C	 0.380337	 -0.600947	 -0.000234
O	 2.715427	 -0.733672	 0.000025
C	 -0.824290	 0.329213	 -0.000115
H	 0.371455	 -1.255476	 -0.865660
H	 0.371410	 -1.255787	 0.864952
C	 -2.146151	 -0.432825	 -0.000068
H	 -0.773936	 0.979158	 -0.866319
H	 -0.773838	 0.979034	 0.866186
C	 -3.366283	 0.483552	 0.000557
H	 -2.189286	 -1.084450	 -0.869996
H	 -2.188867	 -1.085083	 0.869399
C	 -4.448094	 0.040007	 0.979518
H	 -3.782539	 0.525909	 -1.001987
H	 -3.053753	 1.495432	 0.242599
H	 -4.806222	 -0.956393	 0.742526
H	 -5.298828	 0.711100	 0.954620
H	 -4.071795	 0.021174	 1.997004
C	 4.020999	 -0.192556	 0.000019
H	 4.182809	 0.412891	 -0.879449
H	 4.692590	 -1.035653	 0.000152
H	 4.182726	 0.413087	 0.879368

	symmetry c1
}
set optking {
	frozen_dihedral = ("
		15 11 8 12
	")
}

ee,wfn = optimize('scf', return_wfn=True)
oeprop( wfn, 'DIPOLE', 'QUADRUPOLE', 'MULLIKEN_CHARGES')
f=open( 'psi4out.xyz', 'w' )
f.write( "23  " )
f.write( str(ee) + "\n" )
f.write( MOL.save_string_xyz() )
f.close()
--------------------------------------------------------------------------

    Molecular point group: c1
  Charge       = 0
  Multiplicity = 1
  Basis Set: CC-PVTZ
  Basis Set:
  @DF-RHF Final Energy:  -423.12621978630290
    Total Energy =                       -423.1262197863028405
    Molecular point group: c1
  Basis Set: CC-PVTZ
  Basis Set:
  Basis Set: CC-PVTZ
  Basis Set:
  @DF-RHF Final Energy:  -423.12649673549953
    Total Energy =                       -423.1264967354998134
  Basis Set: CC-PVTZ
  Basis Set:
  Basis Set: CC-PVTZ
  Basis Set:
  @DF-RHF Final Energy:  -423.12655813505796
    Total Energy =                       -423.1265581350576213
  Basis Set: CC-PVTZ
  Basis Set:
  Basis Set: CC-PVTZ
  Basis Set:
  @DF-RHF Final Energy:  -423.12627333987467
    Total Energy =                       -423.1262733398747287
  Basis Set: CC-PVTZ
  Basis Set:
  Basis Set: CC-PVTZ
  Basis Set:
  @DF-RHF Final Energy:  -423.12656884806626
    Total Energy =                       -423.1265688480661993
  Basis Set: CC-PVTZ
  Basis Set:
  Charge       = 0
  Multiplicity = 1
  Basis Set: CC-PVTZ
  Basis Set:

    Orbital Energies (a.u.)
    -----------------------

    Doubly Occupied:

       1A    -20.596262     2A    -20.534081     3A    -11.364537
       4A    -11.278421     5A    -11.233535     6A    -11.217382
       7A    -11.215705     8A    -11.214381     9A    -11.207764
      10A     -1.472164    11A     -1.365741    12A     -1.093289
      13A     -1.043468    14A     -0.987900    15A     -0.932266
      16A     -0.844492    17A     -0.795207    18A     -0.769396
      19A     -0.699030    20A     -0.686671    21A     -0.675624
      22A     -0.648468    23A     -0.612493    24A     -0.600329
      25A     -0.576497    26A     -0.566840    27A     -0.547877
      28A     -0.526263    29A     -0.523372    30A     -0.504454
      31A     -0.490881    32A     -0.469270    33A     -0.463679
      34A     -0.461404    35A     -0.457580    36A     -0.437998

  @DF-RHF Final Energy:  -423.12656963398086

   => Energetics <=

    Nuclear Repulsion Energy =            453.2750628588502764
    One-Electron Energy =               -1474.5738192741087005
    Two-Electron Energy =                 598.1721867812769915
    DFT Exchange-Correlation Energy =       0.0000000000000000
    Empirical Dispersion Energy =           0.0000000000000000
    PCM Polarization Energy =               0.0000000000000000
    EFP Energy =                            0.0000000000000000
    Total Energy =                       -423.1265696339813758
    Molecular point group: c1
  Basis Set: CC-PVTZ
  Basis Set:

  -Total Gradient:
     Atom            X                  Y                   Z
    ------   -----------------  -----------------  -----------------
       1        0.000004057773    -0.000013328274    -0.000002901189
       2       -0.000019652131     0.000048733229    -0.000001652011
       3        0.000031367524    -0.000027010868    -0.000015941205
       4        0.000032108296    -0.000083408754    -0.000003489744
       5       -0.000011729567     0.000009916367     0.000046623135
       6        0.000012306114    -0.000000628581     0.000000301631
       7        0.000008419010     0.000006939876    -0.000002500131
       8       -0.002661394982    -0.003559985432     0.002482387167
       9       -0.000011151924     0.000010493466     0.000004199409
      10        0.000005664084    -0.000001278270    -0.000001991894
      11        0.002936623224     0.003942417985    -0.001387650727
      12        0.001778577715     0.002367862575    -0.001878588450
      13       -0.000007242101     0.000022415112     0.000004338298
      14        0.000018814080     0.000008160525    -0.000001276285
      15       -0.002053538819    -0.002754761288     0.000746753294
      16        0.000008153257    -0.000018721988     0.000003354204
      17        0.000003916559     0.000002953591     0.000001844344
      18       -0.000005907927     0.000002968675     0.000000566370
      19       -0.000004148892    -0.000005314370     0.000002055676
      20       -0.000025065278     0.000069271882     0.000003766232
      21       -0.000002517469    -0.000011193157     0.000004837855
      22       -0.000035949910    -0.000005899928     0.000000392227
      23       -0.000001708634    -0.000010602368    -0.000005428207

  **** Optimization is complete! (in 6 steps) ****
    Final optimized geometry and variables:
    Molecular point group: c1

    Geometry (in Angstrom), charge = 0, multiplicity = 1:

    O            1.816175167263     1.269269766299    -0.138165124484
    C            1.680825951683     0.093380038456    -0.140970210673
    C            0.362523704326    -0.636353006770    -0.109953878940
    O            2.697689265026    -0.752581330625    -0.172655725909
    C           -0.847988474142     0.284942479529    -0.072901648146
    H            0.335609505512    -1.286729282422    -0.978146562391
    H            0.381020326549    -1.295651285186     0.751819686533
    C           -2.166287755424    -0.486481418993    -0.034762986292
    H           -0.828915586420     0.936580139481    -0.939453877659
    H           -0.777754926967     0.934481225149     0.792257705887
    C           -3.400501783971     0.433118432181    -0.049558367724
    H           -2.196300463916    -1.146885708511    -0.896483662150
    H           -2.184549069578    -1.118450342965     0.848115458367
    C           -4.504470999841    -0.029254098476     0.898671191005
    H           -3.813022033567     0.468216838616    -1.052268263127
    H           -3.110977924088     1.445732213024     0.209134286537
    H           -4.830224442943    -1.035911845979     0.657362639038
    H           -5.370186545389     0.620794872318     0.841237988863
    H           -4.159696325389    -0.033104765978     1.927442301070
    C            3.998721751475    -0.201814078408    -0.204223453146
    H            4.132791195665     0.409687474597    -1.084163026883
    H            4.676062808801    -1.039993319230    -0.226853526818
    H            4.179557523931     0.400011324934     0.674018560641

  Mulliken Charges: (a.u.)
   Center  Symbol    Alpha    Beta     Spin     Total
       1     O     4.19695  4.19695  0.00000 -0.39389
       2     C     2.80625  2.80625  0.00000  0.38750
       3     C     3.10277  3.10277  0.00000 -0.20554
       4     O     4.14651  4.14651  0.00000 -0.29301
       5     C     3.08438  3.08438  0.00000 -0.16876
       6     H     0.44018  0.44018  0.00000  0.11965
       7     H     0.43987  0.43987  0.00000  0.12025
       8     C     3.09326  3.09326  0.00000 -0.18651
       9     H     0.44521  0.44521  0.00000  0.10957
      10     H     0.44655  0.44655  0.00000  0.10690
      11     C     3.08696  3.08696  0.00000 -0.17392
      12     H     0.45342  0.45342  0.00000  0.09315
      13     H     0.45481  0.45481  0.00000  0.09038
      14     C     3.14823  3.14823  0.00000 -0.29646
      15     H     0.45180  0.45180  0.00000  0.09639
      16     H     0.45142  0.45142  0.00000  0.09716
      17     H     0.45480  0.45480  0.00000  0.09040
      18     H     0.44906  0.44906  0.00000  0.10188
      19     H     0.45579  0.45579  0.00000  0.08843
      20     C     3.03771  3.03771  0.00000 -0.07542
      21     H     0.45436  0.45436  0.00000  0.09127
      22     H     0.44536  0.44536  0.00000  0.10929
      23     H     0.45436  0.45436  0.00000  0.09129

   Total alpha = 36.00000, Total beta = 36.00000, Total charge =  0.00000

*** Psi4 exiting successfully. Buy a developer a beer!
