  ==> Input File <==

--------------------------------------------------------------------------
set {
	reference rhf
	basis cc-pvtz
}

set_num_threads( 4 )
memory 2 gb

molecule MOL {
0 1

H	 1.731432	 -1.707992	 -0.605085
C	 1.030168	 -1.469436	 0.186418
N	 0.526300	 -0.128137	 0.000000
H	 1.562211	 -1.534417	 1.127028
H	 0.251635	 -2.235219	 0.180489
C	 -0.247113	 0.037112	 -1.209233
H	 -0.016352	 0.144185	 0.790588
H	 -0.996493	 -0.743733	 -1.271440
H	 0.397975	 -0.057351	 -2.073512
H	 -0.763794	 0.997171	 -1.271673

	symmetry c1
}
set optking {
	frozen_dihedral = ("
		2 3 6 8
	")
}

ee = optimize('scf')
oeprop('DIPOLE', 'QUADRUPOLE', 'MULLIKEN_CHARGES')
f=open( 'psi4out.xyz', 'w' )
f.write( "10  " )
f.write( str(ee) + "\n" )
f.write( MOL.save_string_xyz() )
f.close()
--------------------------------------------------------------------------

    Molecular point group: c1
  Charge       = 0
  Multiplicity = 1
  Basis Set: CC-PVTZ
  Basis Set:
  @DF-RHF Final Energy:  -134.29182363859243
    Total Energy =                       -134.2918236385924615
    Molecular point group: c1
  Basis Set: CC-PVTZ
  Basis Set:
  Basis Set: CC-PVTZ
  Basis Set:
  @DF-RHF Final Energy:  -134.29281329742034
    Total Energy =                       -134.2928132974203095
  Basis Set: CC-PVTZ
  Basis Set:
  Basis Set: CC-PVTZ
  Basis Set:
  @DF-RHF Final Energy:  -134.29296023207075
    Total Energy =                       -134.2929602320706692
  Basis Set: CC-PVTZ
  Basis Set:
  Charge       = 0
  Multiplicity = 1
  Basis Set: CC-PVTZ
  Basis Set:

    Orbital Energies (a.u.)
    -----------------------

    Doubly Occupied:

       1A    -15.532768     2A    -11.234328     3A    -11.234299
       4A     -1.201236     5A     -0.948320     6A     -0.854700
       7A     -0.662574     8A     -0.614067     9A     -0.592644
      10A     -0.539080    11A     -0.510266    12A     -0.507163
      13A     -0.364876

  @DF-RHF Final Energy:  -134.29296138158480

   => Energetics <=

    Nuclear Repulsion Energy =             84.7571015526714433
    One-Electron Energy =                -348.5074868660337302
    Two-Electron Energy =                 129.4574239317774982
    DFT Exchange-Correlation Energy =       0.0000000000000000
    Empirical Dispersion Energy =           0.0000000000000000
    PCM Polarization Energy =               0.0000000000000000
    EFP Energy =                            0.0000000000000000
    Total Energy =                       -134.2929613815848029
    Molecular point group: c1
  Basis Set: CC-PVTZ
  Basis Set:

  -Total Gradient:
     Atom            X                  Y                   Z
    ------   -----------------  -----------------  -----------------
       1        0.000031709067    -0.000017957958    -0.000004315596
       2       -0.000818873744    -0.000213231691     0.000318976740
       3        0.001266419357     0.000109037984    -0.000783556954
       4       -0.000040590819     0.000071839086    -0.000010644415
       5        0.000001259301    -0.000013377409     0.000024301669
       6       -0.001247397491     0.000748238087     0.000983758389
       7       -0.000007384545     0.000017282291    -0.000030173355
       8        0.000781475655    -0.000708067256    -0.000556391967
       9        0.000014730231     0.000006108789     0.000006491628
      10        0.000018652987     0.000000128077     0.000051553861

  **** Optimization is complete! (in 4 steps) ****
    Final optimized geometry and variables:
    Molecular point group: c1

    Geometry (in Angstrom), charge = 0, multiplicity = 1:

    H            1.311682115063    -1.172440719327    -0.259171087906
    C            0.615699132083    -0.926486601272     0.534942974656
    N            0.105776922973     0.411065213257     0.337945148196
    H            1.155241089559    -0.978993194046     1.471998431319
    H           -0.161122407150    -1.693776094714     0.543302189794
    C           -0.675678517486     0.559159523862    -0.868860496107
    H           -0.438282689139     0.682903586023     1.127736320107
    H           -1.450262227897    -0.201903100181    -0.983157426256
    H           -0.026569971482     0.492742198483    -1.735058699891
    H           -1.146223260495     1.533683849241    -0.885279265287

  Mulliken Charges: (a.u.)
   Center  Symbol    Alpha    Beta     Spin     Total
       1     H     0.45709  0.45709  0.00000  0.08582
       2     C     3.08144  3.08144  0.00000 -0.16289
       3     N     3.62806  3.62806  0.00000 -0.25612
       4     H     0.45242  0.45242  0.00000  0.09516
       5     H     0.47452  0.47452  0.00000  0.05097
       6     C     3.08012  3.08012  0.00000 -0.16023
       7     H     0.44081  0.44081  0.00000  0.11838
       8     H     0.47596  0.47596  0.00000  0.04807
       9     H     0.45663  0.45663  0.00000  0.08673
      10     H     0.45294  0.45294  0.00000  0.09411

   Total alpha = 13.00000, Total beta = 13.00000, Total charge = -0.00000
