  ==> Input File <==

--------------------------------------------------------------------------
set {
	reference rhf
	basis 6-31G*
}

set_num_threads( 4 )
memory 2 gb

molecule MOL {
0 1

H	 -3.261111	 -0.295142	 1.469456
C	 -3.306842	 -0.277400	 0.373456
C	 -2.660244	 0.921717	 -0.272021
O	 -3.838538	 -1.161155	 -0.216482
C	 -1.220012	 1.144545	 0.209990
H	 -2.705793	 0.797307	 -1.347733
H	 -3.263782	 1.790044	 -0.010477
C	 -0.252658	 0.041456	 -0.226725
H	 -0.873521	 2.100229	 -0.171974
H	 -1.211708	 1.231594	 1.295398
C	 1.180775	 0.282413	 0.250794
H	 -0.266029	 -0.034465	 -1.312038
H	 -0.597733	 -0.921000	 0.146291
C	 2.148627	 -0.814315	 -0.201312
H	 1.516199	 1.249228	 -0.115937
H	 1.192670	 0.346017	 1.338083
C	 3.580890	 -0.659131	 0.322722
H	 2.166869	 -0.852443	 -1.289387
H	 1.762857	 -1.776509	 0.128956
C	 3.680953	 -0.352025	 1.817811
H	 4.063352	 0.143020	 -0.230209
H	 4.145593	 -1.562261	 0.100488
H	 3.111592	 0.538118	 2.072257
H	 3.307644	 -1.168816	 2.426472
H	 4.712923	 -0.177051	 2.106629

	symmetry c1
}
set optking {
	frozen_dihedral = ("
		20 17 14 18
	")
}

ee = optimize('scf')
oeprop('DIPOLE', 'QUADRUPOLE', 'MULLIKEN_CHARGES')
f=open( 'psi4out.xyz', 'w' )
f.write( "25  " )
f.write( str(ee) + "\n" )
f.write( MOL.save_string_xyz() )
f.close()
--------------------------------------------------------------------------

    Molecular point group: c1
  Charge       = 0
  Multiplicity = 1
  Basis Set: 6-31G*
  Basis Set:
  @DF-RHF Final Energy:  -387.11936766839767
    Total Energy =                       -387.1193676683983540
    Molecular point group: c1
  Basis Set: 6-31G*
  Basis Set:
  Basis Set: 6-31G*
  Basis Set:
  @DF-RHF Final Energy:  -387.12025558294749
    Total Energy =                       -387.1202555829476069
  Basis Set: 6-31G*
  Basis Set:
  Basis Set: 6-31G*
  Basis Set:
  @DF-RHF Final Energy:  -387.12086421338182
    Total Energy =                       -387.1208642133814237
  Basis Set: 6-31G*
  Basis Set:
  Basis Set: 6-31G*
  Basis Set:
  @DF-RHF Final Energy:  -387.12083556909545
    Total Energy =                       -387.1208355690953340
  Basis Set: 6-31G*
  Basis Set:
  Basis Set: 6-31G*
  Basis Set:
  @DF-RHF Final Energy:  -387.12097514131665
    Total Energy =                       -387.1209751413166487
  Basis Set: 6-31G*
  Basis Set:
  Basis Set: 6-31G*
  Basis Set:
  @DF-RHF Final Energy:  -387.12098491476257
    Total Energy =                       -387.1209849147624027
  Basis Set: 6-31G*
  Basis Set:
  Basis Set: 6-31G*
  Basis Set:
  @DF-RHF Final Energy:  -387.12098875398266
    Total Energy =                       -387.1209887539829424
  Basis Set: 6-31G*
  Basis Set:
  Charge       = 0
  Multiplicity = 1
  Basis Set: 6-31G*
  Basis Set:

    Orbital Energies (a.u.)
    -----------------------

    Doubly Occupied:

       1A    -20.562002     2A    -11.326162     3A    -11.235326
       4A    -11.234657     5A    -11.223933     6A    -11.219744
       7A    -11.218208     8A    -11.217181     9A    -11.210764
      10A     -1.401942    11A     -1.104017    12A     -1.069504
      13A     -1.012818    14A     -0.942240    15A     -0.876910
      16A     -0.821758    17A     -0.787942    18A     -0.778009
      19A     -0.664395    20A     -0.662905    21A     -0.634684
      22A     -0.622647    23A     -0.609288    24A     -0.588779
      25A     -0.567606    26A     -0.562675    27A     -0.526802
      28A     -0.523926    29A     -0.515522    30A     -0.496159
      31A     -0.489738    32A     -0.479444    33A     -0.461564
      34A     -0.459137    35A     -0.441824    36A     -0.409532

  @DF-RHF Final Energy:  -387.12098923642930

   => Energetics <=

    Nuclear Repulsion Energy =            440.1337175956062993
    One-Electron Energy =               -1396.5899222458374425
    Two-Electron Energy =                 569.3352154138018477
    DFT Exchange-Correlation Energy =       0.0000000000000000
    Empirical Dispersion Energy =           0.0000000000000000
    PCM Polarization Energy =               0.0000000000000000
    EFP Energy =                            0.0000000000000000
    Total Energy =                       -387.1209892364292955
    Molecular point group: c1
  Basis Set: 6-31G*
  Basis Set:

  -Total Gradient:
     Atom            X                  Y                   Z
    ------   -----------------  -----------------  -----------------
       1        0.000013794863    -0.000008055815    -0.000002227201
       2       -0.000037059064     0.000022229773    -0.000012251001
       3        0.000002860263    -0.000023322966     0.000026801831
       4        0.000008911189    -0.000015920198     0.000000412911
       5        0.000011655707     0.000009644514    -0.000016825301
       6        0.000003971894     0.000002073394     0.000006974379
       7       -0.000000593044    -0.000000510678     0.000007148024
       8       -0.000007089220    -0.000000237881    -0.000004318186
       9        0.000003246021     0.000006176903    -0.000010507309
      10        0.000008443882     0.000003201858    -0.000007901954
      11        0.000010906512     0.000016488460    -0.000016248698
      12        0.000023381207     0.000001551210     0.000002220260
      13       -0.000025864598     0.000000275321    -0.000001952478
      14        0.000499010382    -0.003322111810     0.000035084050
      15       -0.000004134520     0.000019095311     0.000007052371
      16        0.000012897180    -0.000014078277    -0.000009527618
      17        0.000261549160    -0.002970677348     0.000804306287
      18       -0.000519456364     0.003626826084    -0.000197113906
      19       -0.000003686733    -0.000015162600     0.000003501077
      20       -0.000258134930     0.002654749540    -0.000616862014
      21        0.000012660853     0.000008871778     0.000009169190
      22       -0.000007247494     0.000005274907    -0.000003774567
      23       -0.000005938590    -0.000000808451    -0.000000406531
      24       -0.000001941772    -0.000005884050    -0.000001362657
      25       -0.000002142776     0.000000311020    -0.000001390956

  **** Optimization is complete! (in 8 steps) ****
    Final optimized geometry and variables:
    Molecular point group: c1

    Geometry (in Angstrom), charge = 0, multiplicity = 1:

    H           -3.278636105342    -0.229700588163     1.129004790381
    C           -3.271790461597    -0.163087769775     0.033861648902
    C           -2.579059784292     1.053137070919    -0.526265388857
    O           -3.791847402537    -1.008896832531    -0.618821994110
    C           -1.158889883452     1.229933181892     0.029049176980
    H           -2.577594431375     0.978012214171    -1.607543208282
    H           -3.181109078219     1.918667325080    -0.252565657095
    C           -0.188000748858     0.133354052272    -0.416219492355
    H           -0.782043241145     2.197161200070    -0.290676697595
    H           -1.198486590518     1.265286510922     1.116478437145
    C            1.227393037429     0.332810691766     0.129566019069
    H           -0.158111423154     0.105218013820    -1.503384267958
    H           -0.559965038609    -0.839735084663    -0.100227002512
    C            2.190851608885    -0.773681173847    -0.312341948995
    H            1.607459645042     1.297730558193    -0.203851206895
    H            1.184303815665     0.379099363851     1.214497634365
    C            3.658533774580    -0.542793213236     0.074311970648
    H            2.134395504033    -0.844369712233    -1.396326508630
    H            1.849756275610    -1.726112145162     0.088023811451
    C            3.896730488899    -0.180956898333     1.541585521036
    H            4.064077486321     0.253039778108    -0.547413677790
    H            4.225786423368    -1.436286153956    -0.172577273791
    H            3.466405294145     0.781812188777     1.794386025096
    H            3.465566955108    -0.923009407889     2.208929468936
    H            4.960141361651    -0.128043392806     1.753404120435

  Mulliken Charges: (a.u.)
   Center  Symbol    Alpha    Beta     Spin     Total
       1     H     0.43262  0.43262  0.00000  0.13476
       2     C     2.83082  2.83082  0.00000  0.33836
       3     C     3.20818  3.20818  0.00000 -0.41636
       4     O     4.23776  4.23776  0.00000 -0.47551
       5     C     3.16648  3.16648  0.00000 -0.33296
       6     H     0.39972  0.39972  0.00000  0.20057
       7     H     0.40661  0.40661  0.00000  0.18678
       8     C     3.15471  3.15471  0.00000 -0.30942
       9     H     0.41288  0.41288  0.00000  0.17424
      10     H     0.41968  0.41968  0.00000  0.16064
      11     C     3.15570  3.15570  0.00000 -0.31140
      12     H     0.41821  0.41821  0.00000  0.16357
      13     H     0.41843  0.41843  0.00000  0.16315
      14     C     3.15245  3.15245  0.00000 -0.30491
      15     H     0.42361  0.42361  0.00000  0.15277
      16     H     0.42056  0.42056  0.00000  0.15889
      17     C     3.15207  3.15207  0.00000 -0.30414
      18     H     0.42121  0.42121  0.00000  0.15759
      19     H     0.42198  0.42198  0.00000  0.15604
      20     C     3.24266  3.24266  0.00000 -0.48532
      21     H     0.42330  0.42330  0.00000  0.15339
      22     H     0.41970  0.41970  0.00000  0.16059
      23     H     0.41981  0.41981  0.00000  0.16038
      24     H     0.42229  0.42229  0.00000  0.15541
      25     H     0.41856  0.41856  0.00000  0.16288

   Total alpha = 36.00000, Total beta = 36.00000, Total charge = -0.00000
