  ==> Input File <==

--------------------------------------------------------------------------
set {
	reference rhf
	basis 6-31G*
}

set_num_threads( 4 )
memory 2 gb

molecule MOL {
0 1

H	 2.425042	 2.347779	 -0.720601
N	 1.652066	 1.715697	 -0.801388
C	 1.865559	 0.531981	 0.018834
H	 1.583687	 1.464400	 -1.769377
C	 0.645745	 -0.382037	 -0.029944
H	 2.024697	 0.863271	 1.040490
H	 2.754794	 -0.034626	 -0.268596
C	 -0.679275	 0.379305	 0.025956
H	 0.698998	 -0.976915	 -0.937203
H	 0.693479	 -1.083846	 0.802235
C	 -1.903357	 -0.536963	 -0.023547
H	 -0.726309	 1.082987	 -0.803784
H	 -0.717680	 0.977832	 0.934877
C	 -3.225172	 0.228290	 0.028445
H	 -1.867824	 -1.134999	 -0.931459
H	 -1.860449	 -1.239604	 0.805977
H	 -3.313397	 0.915643	 -0.808262
H	 -4.073500	 -0.448134	 -0.008893
H	 -3.306061	 0.809945	 0.942516

	symmetry c1
}
set optking {
	frozen_dihedral = ("
		6 3 5 9
	")
}

ee = optimize('scf')
oeprop('DIPOLE', 'QUADRUPOLE', 'MULLIKEN_CHARGES')
f=open( 'psi4out.xyz', 'w' )
f.write( "19  " )
f.write( str(ee) + "\n" )
f.write( MOL.save_string_xyz() )
f.close()
--------------------------------------------------------------------------

    Molecular point group: c1
  Charge       = 0
  Multiplicity = 1
  Basis Set: 6-31G*
  Basis Set:
  @DF-RHF Final Energy:  -251.34828905563432
    Total Energy =                       -251.3482890556344955
    Molecular point group: c1
  Basis Set: 6-31G*
  Basis Set:
  Basis Set: 6-31G*
  Basis Set:
  @DF-RHF Final Energy:  -251.34909056299867
    Total Energy =                       -251.3490905629984695
  Basis Set: 6-31G*
  Basis Set:
  Basis Set: 6-31G*
  Basis Set:
  @DF-RHF Final Energy:  -251.34957487989814
    Total Energy =                       -251.3495748798981140
  Basis Set: 6-31G*
  Basis Set:
  Basis Set: 6-31G*
  Basis Set:
  @DF-RHF Final Energy:  -251.34959872388188
    Total Energy =                       -251.3495987238816838
  Basis Set: 6-31G*
  Basis Set:
  Charge       = 0
  Multiplicity = 1
  Basis Set: 6-31G*
  Basis Set:

    Orbital Energies (a.u.)
    -----------------------

    Doubly Occupied:

       1A    -15.533770     2A    -11.240900     3A    -11.210681
       4A    -11.208707     5A    -11.202927     6A    -11.202643
       7A     -1.177838     8A     -1.066013     9A     -0.994762
      10A     -0.902818    11A     -0.811402    12A     -0.778491
      13A     -0.666769    14A     -0.630315    15A     -0.621209
      16A     -0.584024    17A     -0.564195    18A     -0.546423
      19A     -0.528377    20A     -0.494582    21A     -0.476930
      22A     -0.462808    23A     -0.452969    24A     -0.446860
      25A     -0.379167

  @DF-RHF Final Energy:  -251.34959899352086

   => Energetics <=

    Nuclear Repulsion Energy =            249.3468978328310470
    One-Electron Energy =                -833.0218316316943401
    Two-Electron Energy =                 332.3253348053424929
    DFT Exchange-Correlation Energy =       0.0000000000000000
    Empirical Dispersion Energy =           0.0000000000000000
    PCM Polarization Energy =               0.0000000000000000
    EFP Energy =                            0.0000000000000000
    Total Energy =                       -251.3495989935208286
    Molecular point group: c1
  Basis Set: 6-31G*
  Basis Set:

  -Total Gradient:
     Atom            X                  Y                   Z
    ------   -----------------  -----------------  -----------------
       1        0.000000208140     0.000058391426    -0.000035810356
       2        0.000018587013    -0.000100664996     0.000100201154
       3       -0.002852771666     0.003783927757    -0.000509540904
       4       -0.000004168261     0.000003158076    -0.000013435410
       5       -0.002128149719     0.003403676591    -0.002659443534
       6        0.002655115907    -0.003743945445     0.000869599809
       7        0.000075798057     0.000062069742    -0.000068884799
       8        0.000104171567    -0.000092354352    -0.000153063176
       9        0.002225228655    -0.003308782206     0.002367322899
      10       -0.000094821877    -0.000099066896     0.000044729663
      11       -0.000049104346     0.000014182482     0.000097815312
      12        0.000078835096     0.000005341797    -0.000093505701
      13       -0.000043366939    -0.000008682493     0.000008183357
      14       -0.000016352692    -0.000019220530     0.000041374801
      15        0.000019673217     0.000071592613     0.000006246501
      16        0.000010949060    -0.000030179750    -0.000012870415
      17        0.000013652621    -0.000006945272    -0.000000863875
      18       -0.000002990940     0.000004515291     0.000003359301
      19       -0.000010492897     0.000002986167     0.000008585372

  **** Optimization is complete! (in 5 steps) ****
    Final optimized geometry and variables:
    Molecular point group: c1

    Geometry (in Angstrom), charge = 0, multiplicity = 1:

    H            2.831871531990     1.961977899781    -0.536622496232
    N            2.027202047727     1.379696399583    -0.666783014305
    C            2.108060352746     0.199897910001     0.180331583657
    H            2.014892126735     1.115564607176    -1.634070995635
    C            0.868772278083    -0.691515269266     0.068226486659
    H            2.228830161615     0.518823079640     1.211189074462
    H            2.985333309312    -0.414939306586    -0.037083555492
    C           -0.466925378126     0.046870463504     0.140575614090
    H            0.931717046947    -1.290090412293    -0.840109838764
    H            0.919785504677    -1.416912852341     0.879224699712
    C           -1.667838845673    -0.901084622164     0.141641275605
    H           -0.548718360995     0.739877319555    -0.689760335997
    H           -0.486804858800     0.656880647455     1.041805832379
    C           -3.005921432211    -0.166590691992     0.219257957777
    H           -1.645606579747    -1.513038096838    -0.758193157945
    H           -1.586907171885    -1.590656056304     0.979677850888
    H           -3.132884678479     0.505738777772    -0.624526597742
    H           -3.839289588883    -0.862730779765     0.216330480349
    H           -3.074246490770     0.427672283890     1.126142334514

  Mulliken Charges: (a.u.)
   Center  Symbol    Alpha    Beta     Spin     Total
       1     H     0.33149  0.33149  0.00000  0.33701
       2     N     3.91993  3.91993  0.00000 -0.83987
       3     C     3.06187  3.06187  0.00000 -0.12373
       4     H     0.33546  0.33546  0.00000  0.32908
       5     C     3.16206  3.16206  0.00000 -0.32413
       6     H     0.42069  0.42069  0.00000  0.15863
       7     H     0.43301  0.43301  0.00000  0.13397
       8     C     3.14302  3.14302  0.00000 -0.28603
       9     H     0.42620  0.42620  0.00000  0.14759
      10     H     0.42288  0.42288  0.00000  0.15425
      11     C     3.15226  3.15226  0.00000 -0.30451
      12     H     0.41346  0.41346  0.00000  0.17309
      13     H     0.42379  0.42379  0.00000  0.15241
      14     C     3.23844  3.23844  0.00000 -0.47688
      15     H     0.42535  0.42535  0.00000  0.14929
      16     H     0.42530  0.42530  0.00000  0.14941
      17     H     0.42176  0.42176  0.00000  0.15647
      18     H     0.42111  0.42111  0.00000  0.15779
      19     H     0.42193  0.42193  0.00000  0.15614

   Total alpha = 25.00000, Total beta = 25.00000, Total charge =  0.00000
