  ==> Input File <==

--------------------------------------------------------------------------
set {
	reference rhf
	basis 6-31G*
}

set_num_threads( 1 )
memory 2 gb

molecule MOL {
0 1

O	 -2.024821	 -0.356643	 0.654969
C	 -1.083277	 0.139568	 0.115197
C	 0.323299	 -0.082943	 0.642902
C	 -1.240755	 1.029533	 -1.097647
C	 1.355627	 -0.005344	 -0.493127
H	 0.396251	 -1.044647	 1.143147
H	 0.528637	 0.693580	 1.371677
C	 2.786168	 -0.195604	 0.007473
H	 1.132807	 -0.760304	 -1.243899
H	 1.259610	 0.958506	 -0.981915
H	 3.495561	 -0.130713	 -0.811210
H	 2.912696	 -1.165395	 0.480041
H	 3.049284	 0.565503	 0.735850
H	 -0.719714	 1.971693	 -0.954400
H	 -2.288911	 1.214429	 -1.287166
H	 -0.797232	 0.546773	 -1.964501

	symmetry c1
}
set optking {
	frozen_dihedral = ("
		9 5 3 2
	")
}

ee = energy('scf')
oeprop('DIPOLE', 'QUADRUPOLE', 'MULLIKEN_CHARGES')
f=open( 'psi4out.xyz', 'w' )
f.write( "16  " )
f.write( str(ee) + "\n" )
f.write( MOL.save_string_xyz() )
f.close()
--------------------------------------------------------------------------

    Molecular point group: c1

    Geometry (in Angstrom), charge = 0, multiplicity = 1:

       Center              X                  Y                   Z               Mass
    ------------   -----------------  -----------------  -----------------  -----------------
           O         -2.052066153740    -0.447144697164     0.689429348047    15.994914619560
           C         -1.110522153740     0.049066302836     0.149657348047    12.000000000000
           C          0.296053846260    -0.173444697164     0.677362348047    12.000000000000
           C         -1.268000153740     0.939031302836    -1.063186651953    12.000000000000
           C          1.328381846260    -0.095845697164    -0.458666651953    12.000000000000
           H          0.369005846260    -1.135148697164     1.177607348047     1.007825032070
           H          0.501391846260     0.603078302836     1.406137348047     1.007825032070
           C          2.758922846260    -0.286105697164     0.041933348047    12.000000000000
           H          1.105561846260    -0.850805697164    -1.209438651953     1.007825032070
           H          1.232364846260     0.868004302836    -0.947454651953     1.007825032070
           H          3.468315846260    -0.221214697164    -0.776749651953     1.007825032070
           H          2.885450846260    -1.255896697164     0.514501348047     1.007825032070
           H          3.022038846260     0.475001302836     0.770310348047     1.007825032070
           H         -0.746959153740     1.881191302836    -0.919939651953     1.007825032070
           H         -2.316156153740     1.123927302836    -1.252705651953     1.007825032070
           H         -0.824477153740     0.456271302836    -1.930040651953     1.007825032070

  Charge       = 0
  Multiplicity = 1
  Basis Set: 6-31G*
  Basis Set:

    Orbital Energies (a.u.)
    -----------------------

    Doubly Occupied:

       1A    -20.546849     2A    -11.325060     3A    -11.233299
       4A    -11.231342     5A    -11.228588     6A    -11.220861
       7A     -1.392519     8A     -1.089301     9A     -1.009288
      10A     -0.951426    11A     -0.833067    12A     -0.735031
      13A     -0.659434    14A     -0.653898    15A     -0.623335
      16A     -0.599796    17A     -0.577539    18A     -0.553979
      19A     -0.541665    20A     -0.518589    21A     -0.505208
      22A     -0.485542    23A     -0.473196    24A     -0.397540

  @DF-RHF Final Energy:  -270.02587160233787

   => Energetics <=

    Nuclear Repulsion Energy =            238.4124804170666607
    One-Electron Energy =                -838.1040723143898958
    Two-Electron Energy =                 329.6657202949850216
    DFT Exchange-Correlation Energy =       0.0000000000000000
    Empirical Dispersion Energy =           0.0000000000000000
    PCM Polarization Energy =               0.0000000000000000
    EFP Energy =                            0.0000000000000000
    Total Energy =                       -270.0258716023381567

  Mulliken Charges: (a.u.)
   Center  Symbol    Alpha    Beta     Spin     Total
       1     O     4.26277  4.26277  0.00000 -0.52553
       2     C     2.73180  2.73180  0.00000  0.53640
       3     C     3.20189  3.20189  0.00000 -0.40378
       4     C     3.29661  3.29661  0.00000 -0.59322
       5     C     3.16845  3.16845  0.00000 -0.33690
       6     H     0.39914  0.39914  0.00000  0.20172
       7     H     0.40484  0.40484  0.00000  0.19033
       8     C     3.23867  3.23867  0.00000 -0.47733
       9     H     0.41684  0.41684  0.00000  0.16633
      10     H     0.41713  0.41713  0.00000  0.16574
      11     H     0.41626  0.41626  0.00000  0.16748
      12     H     0.41812  0.41812  0.00000  0.16376
      13     H     0.41992  0.41992  0.00000  0.16015
      14     H     0.40876  0.40876  0.00000  0.18249
      15     H     0.39472  0.39472  0.00000  0.21056
      16     H     0.40409  0.40409  0.00000  0.19182

   Total alpha = 24.00000, Total beta = 24.00000, Total charge =  0.00000
