  ==> Input File <==

--------------------------------------------------------------------------
set {
	reference rhf
	basis 6-31G*
}

set_num_threads( 4 )
memory 2 gb

molecule MOL {
0 1

O	 3.225979	 0.970355	 -0.599647
C	 2.701189	 0.057885	 -0.047330
C	 1.245376	 -0.013843	 0.345420
O	 3.347903	 -1.046386	 0.304773
C	 0.455112	 1.231400	 -0.050772
H	 0.838542	 -0.913825	 -0.103701
H	 1.208210	 -0.175333	 1.419774
C	 -0.998893	 1.219485	 0.433193
H	 0.482531	 1.345121	 -1.130325
H	 0.957290	 2.103070	 0.354729
C	 -1.920834	 0.253803	 -0.316870
H	 -1.395572	 2.227089	 0.332675
H	 -1.024880	 0.990215	 1.497509
C	 -3.380964	 0.358690	 0.128124
H	 -1.855378	 0.453948	 -1.385268
H	 -1.583911	 -0.770813	 -0.176806
C	 -4.310623	 -0.605435	 -0.611015
H	 -3.730224	 1.378930	 -0.021418
H	 -3.445715	 0.169213	 1.198454
C	 -5.767499	 -0.491666	 -0.163499
H	 -4.246392	 -0.418138	 -1.680798
H	 -3.965664	 -1.626081	 -0.459139
H	 -6.401242	 -1.187133	 -0.705073
H	 -6.153192	 0.509369	 -0.334856
H	 -5.870102	 -0.707292	 0.896337
C	 4.728119	 -1.109107	 -0.004993
H	 4.882018	 -1.033965	 -1.071845
H	 5.068212	 -2.067527	 0.355250
H	 5.265056	 -0.311663	 0.488280

	symmetry c1
}
set optking {
	frozen_dihedral = ("
		11 8 5 9
	")
}

ee = optimize('scf')
oeprop('DIPOLE', 'QUADRUPOLE', 'MULLIKEN_CHARGES')
f=open( 'psi4out.xyz', 'w' )
f.write( "29  " )
f.write( str(ee) + "\n" )
f.write( MOL.save_string_xyz() )
f.close()
--------------------------------------------------------------------------

    Molecular point group: c1
  Charge       = 0
  Multiplicity = 1
  Basis Set: 6-31G*
  Basis Set:
  @DF-RHF Final Energy:  -501.04393630608570
    Total Energy =                       -501.0439363060859250
    Molecular point group: c1
  Basis Set: 6-31G*
  Basis Set:
  Basis Set: 6-31G*
  Basis Set:
  @DF-RHF Final Energy:  -501.04391477784202
    Total Energy =                       -501.0439147778422466
  Basis Set: 6-31G*
  Basis Set:
  Basis Set: 6-31G*
  Basis Set:
  @DF-RHF Final Energy:  -501.04397484739764
    Total Energy =                       -501.0439748473970667
  Basis Set: 6-31G*
  Basis Set:
  Basis Set: 6-31G*
  Basis Set:
  @DF-RHF Final Energy:  -501.04391715264205
    Total Energy =                       -501.0439171526421660
  Basis Set: 6-31G*
  Basis Set:
  Basis Set: 6-31G*
  Basis Set:
  @DF-RHF Final Energy:  -501.04399092484414
    Total Energy =                       -501.0439909248436834
  Basis Set: 6-31G*
  Basis Set:
  Charge       = 0
  Multiplicity = 1
  Basis Set: 6-31G*
  Basis Set:

    Orbital Energies (a.u.)
    -----------------------

    Doubly Occupied:

       1A    -20.603359     2A    -20.545174     3A    -11.371962
       4A    -11.280653     5A    -11.234720     6A    -11.219126
       7A    -11.217615     8A    -11.215942     9A    -11.215790
      10A    -11.214386    11A    -11.209019    12A     -1.469040
      13A     -1.362487    14A     -1.097958    15A     -1.066827
      16A     -1.019547    17A     -0.977219    18A     -0.928329
      19A     -0.860946    20A     -0.799459    21A     -0.790493
      22A     -0.764435    23A     -0.700802    24A     -0.682231
      25A     -0.672222    26A     -0.650209    27A     -0.628932
      28A     -0.604788    29A     -0.595320    30A     -0.580926
      31A     -0.566789    32A     -0.548399    33A     -0.532748
      34A     -0.530350    35A     -0.515641    36A     -0.510851
      37A     -0.496789    38A     -0.477944    39A     -0.470303
      40A     -0.462695    41A     -0.458659    42A     -0.455875
      43A     -0.441329    44A     -0.435034

  @DF-RHF Final Energy:  -501.04399091300627

   => Energetics <=

    Nuclear Repulsion Energy =            609.8077770295930122
    One-Electron Energy =               -1890.7368859450871241
    Two-Electron Energy =                 779.8851180024881842
    DFT Exchange-Correlation Energy =       0.0000000000000000
    Empirical Dispersion Energy =           0.0000000000000000
    PCM Polarization Energy =               0.0000000000000000
    EFP Energy =                            0.0000000000000000
    Total Energy =                       -501.0439909130058140
    Molecular point group: c1
  Basis Set: 6-31G*
  Basis Set:

  -Total Gradient:
     Atom            X                  Y                   Z
    ------   -----------------  -----------------  -----------------
       1        0.000003404218     0.000009763789     0.000025087816
       2       -0.000014392408    -0.000014739292    -0.000058399549
       3       -0.000002718812     0.000013092129     0.000009822033
       4        0.000005575824     0.000001622803     0.000019059241
       5       -0.000035738253     0.001516033786    -0.000094500659
       6        0.000006275941     0.000000868641    -0.000000903639
       7       -0.000005959043    -0.000004298528     0.000006700810
       8        0.000235487772    -0.001023255906     0.000688260856
       9       -0.000036100468    -0.001060020753    -0.000092163399
      10       -0.000003524070     0.000014434443     0.000000262411
      11       -0.000162648105     0.000566317818    -0.000530592513
      12        0.000015164617     0.000015729671     0.000003510922
      13       -0.000005423299    -0.000011624906    -0.000007269852
      14        0.000003869844    -0.000020809351     0.000025725477
      15       -0.000005054287    -0.000006817783    -0.000010126354
      16        0.000000042870     0.000004580126     0.000009976886
      17        0.000000848651     0.000004030239    -0.000001966253
      18        0.000000920334    -0.000006347348     0.000013403610
      19        0.000004633103    -0.000013074166     0.000005123408
      20       -0.000003576285     0.000014865699    -0.000014007716
      21        0.000007894342    -0.000009864412    -0.000005857387
      22       -0.000006602477     0.000003586092     0.000011870418
      23       -0.000000777904     0.000003293484    -0.000003197725
      24       -0.000005037436     0.000002149934     0.000002682145
      25        0.000004977600    -0.000001293189    -0.000003673977
      26       -0.000001984241     0.000001575090     0.000000737966
      27       -0.000000545843     0.000000083007     0.000000116536
      28       -0.000000042411     0.000000073298     0.000000343692
      29        0.000001030205     0.000000045586    -0.000000025203

  **** Optimization is complete! (in 6 steps) ****
    Final optimized geometry and variables:
    Molecular point group: c1

    Geometry (in Angstrom), charge = 0, multiplicity = 1:

    O            3.237872520591     0.885862229222    -0.570951015790
    C            2.706640068895    -0.006879577805     0.006900810441
    C            1.255863243194    -0.046348939663     0.421827868155
    O            3.340758756393    -1.114098056526     0.372405248464
    C            0.479859656210     1.204792203985     0.014381556481
    H            0.826361582668    -0.947305975607    -0.004156390442
    H            1.232024389792    -0.187338641586     1.499302646807
    C           -0.979096469946     1.197300215526     0.485379097135
    H            0.516986023984     1.307603498107    -1.065753448129
    H            0.986147265622     2.073647160025     0.420344002599
    C           -1.888318837485     0.221676421626    -0.267407621812
    H           -1.379596430422     2.201347140965     0.365900656735
    H           -1.017568829307     0.983113072223     1.552301776383
    C           -3.346865401270     0.292854416545     0.189061625067
    H           -1.834107526999     0.436211419327    -1.333346347487
    H           -1.530157503338    -0.798035410179    -0.142943671629
    C           -4.265313777398    -0.671328905082    -0.563901761327
    H           -3.714024641663     1.309968273340     0.062601264972
    H           -3.401423008706     0.080596528141     1.255651554401
    C           -5.721446033346    -0.588840778639    -0.107194622341
    H           -4.209533618512    -0.462647955898    -1.630181754100
    H           -3.903784231925    -1.689181004503    -0.433335737029
    H           -6.347153828130    -1.283514845734    -0.659036909959
    H           -6.123431410390     0.409195879672    -0.257291574306
    H           -5.815244402196    -0.826403292183     0.948760411638
    C            4.715231448695    -1.205324318123     0.044697422632
    H            4.855026294677    -1.154210433877    -1.025518086500
    H            5.045192371090    -2.161646233667     0.419622169131
    H            5.271741227627    -0.406866897489     0.514058910204

  Mulliken Charges: (a.u.)
   Center  Symbol    Alpha    Beta     Spin     Total
       1     O     4.28600  4.28600  0.00000 -0.57201
       2     C     2.60495  2.60495  0.00000  0.79010
       3     C     3.20933  3.20933  0.00000 -0.41867
       4     O     4.30745  4.30745  0.00000 -0.61489
       5     C     3.15398  3.15398  0.00000 -0.30795
       6     H     0.39919  0.39919  0.00000  0.20162
       7     H     0.40113  0.40113  0.00000  0.19774
       8     C     3.15717  3.15717  0.00000 -0.31435
       9     H     0.41252  0.41252  0.00000  0.17497
      10     H     0.40902  0.40902  0.00000  0.18197
      11     C     3.15442  3.15442  0.00000 -0.30885
      12     H     0.41817  0.41817  0.00000  0.16365
      13     H     0.42391  0.42391  0.00000  0.15219
      14     C     3.15036  3.15036  0.00000 -0.30073
      15     H     0.42214  0.42214  0.00000  0.15571
      16     H     0.42410  0.42410  0.00000  0.15180
      17     C     3.15146  3.15146  0.00000 -0.30292
      18     H     0.42338  0.42338  0.00000  0.15323
      19     H     0.42401  0.42401  0.00000  0.15197
      20     C     3.23935  3.23935  0.00000 -0.47869
      21     H     0.42274  0.42274  0.00000  0.15452
      22     H     0.42342  0.42342  0.00000  0.15316
      23     H     0.41922  0.41922  0.00000  0.16155
      24     H     0.42155  0.42155  0.00000  0.15689
      25     H     0.42186  0.42186  0.00000  0.15628
      26     C     3.09241  3.09241  0.00000 -0.18482
      27     H     0.40909  0.40909  0.00000  0.18182
      28     H     0.40852  0.40852  0.00000  0.18296
      29     H     0.40912  0.40912  0.00000  0.18176

   Total alpha = 44.00000, Total beta = 44.00000, Total charge = -0.00000
