                              Psi4 1.0.54 Driver

  ==> Input File <==

--------------------------------------------------------------------------
set {
	reference rhf
	basis cc-pvtz
}

set_num_threads( 4 )
memory 2 gb

molecule MOL {
0 1

H	 0.000086	 2.348128	 -0.096704
N	 0.000071	 1.376062	 -0.314443
C	 -1.198586	 0.734735	 0.192398
C	 1.198619	 0.734590	 0.192460
H	 -1.283291	 0.812217	 1.278335
H	 -2.070813	 1.205436	 -0.245093
C	 -1.165287	 -0.732544	 -0.191129
H	 2.070910	 1.205156	 -0.245023
H	 1.283285	 0.812097	 1.278404
C	 1.165219	 -0.732672	 -0.191125
H	 -1.999433	 -1.262708	 0.246592
H	 -1.224576	 -0.826695	 -1.273525
O	 -0.000032	 -1.346844	 0.278673
H	 1.999380	 -1.262948	 0.246517
H	 1.224409	 -0.826785	 -1.273538

	symmetry c1
}
ee,wfn = energy('scf', return_wfn=True)
oeprop( wfn, 'DIPOLE', 'QUADRUPOLE', 'MULLIKEN_CHARGES')
oeprop( wfn, 'GRID_ESP')
f=open( 'psi4out.xyz', 'w' )
f.write( "15  " )
f.write( str(ee) + "\n" )
f.write( MOL.save_string_xyz() )
f.close()
--------------------------------------------------------------------------

    Molecular point group: c1

    Geometry (in Angstrom), charge = 0, multiplicity = 1:

       Center              X                  Y                   Z               Mass
    ------------   -----------------  -----------------  -----------------  -----------------
           H          0.000085781270     2.348163663819    -0.096712472256     1.007825032070
           N          0.000070781270     1.376097663819    -0.314451472256    14.003074004780
           C         -1.198586218730     0.734770663819     0.192389527744    12.000000000000
           C          1.198618781270     0.734625663819     0.192451527744    12.000000000000
           H         -1.283291218730     0.812252663819     1.278326527744     1.007825032070
           H         -2.070813218730     1.205471663819    -0.245101472256     1.007825032070
           C         -1.165287218730    -0.732508336181    -0.191137472256    12.000000000000
           H          2.070909781270     1.205191663819    -0.245031472256     1.007825032070
           H          1.283284781270     0.812132663819     1.278395527744     1.007825032070
           C          1.165218781270    -0.732636336181    -0.191133472256    12.000000000000
           H         -1.999433218730    -1.262672336181     0.246583527744     1.007825032070
           H         -1.224576218730    -0.826659336181    -1.273533472256     1.007825032070
           O         -0.000032218730    -1.346808336181     0.278664527744    15.994914619560
           H          1.999379781270    -1.262912336181     0.246508527744     1.007825032070
           H          1.224408781270    -0.826749336181    -1.273546472256     1.007825032070

  Charge       = 0
  Multiplicity = 1
  Basis Set: CC-PVTZ
  Basis Set:

    Orbital Energies (a.u.)
    -----------------------

    Doubly Occupied:

       1A    -20.546053     2A    -15.538302     3A    -11.263026
       4A    -11.263006     5A    -11.242598     6A    -11.242583
       7A     -1.383964     8A     -1.210425     9A     -1.037696
      10A     -0.928470    11A     -0.877959    12A     -0.778994
      13A     -0.708966    14A     -0.643117    15A     -0.642817
      16A     -0.608612    17A     -0.605448    18A     -0.589582
      19A     -0.543230    20A     -0.501048    21A     -0.493785
      22A     -0.453074    23A     -0.412856    24A     -0.369137

  @DF-RHF Final Energy:  -286.10400076433382

   => Energetics <=

    Nuclear Repulsion Energy =            265.6478416332302004
    One-Electron Energy =                -915.7342700936217170
    Two-Electron Energy =                 363.9824276960576981
    DFT Exchange-Correlation Energy =       0.0000000000000000
    Empirical Dispersion Energy =           0.0000000000000000
    PCM Polarization Energy =               0.0000000000000000
    EFP Energy =                            0.0000000000000000
    Total Energy =                       -286.1040007643338186

  Mulliken Charges: (a.u.)
   Center  Symbol    Alpha    Beta     Spin     Total
       1     H     0.43822  0.43822  0.00000  0.12357
       2     N     3.64759  3.64759  0.00000 -0.29517
       3     C     3.04204  3.04204  0.00000 -0.08408
       4     C     3.04204  3.04204  0.00000 -0.08407
       5     H     0.46680  0.46680  0.00000  0.06641
       6     H     0.45293  0.45293  0.00000  0.09414
       7     C     2.98266  2.98266  0.00000  0.03469
       8     H     0.45293  0.45293  0.00000  0.09413
       9     H     0.46680  0.46680  0.00000  0.06641
      10     C     2.98265  2.98265  0.00000  0.03470
      11     H     0.45035  0.45035  0.00000  0.09930
      12     H     0.46855  0.46855  0.00000  0.06290
      13     O     4.18755  4.18755  0.00000 -0.37509
      14     H     0.45036  0.45036  0.00000  0.09929
      15     H     0.46856  0.46856  0.00000  0.06289

   Total alpha = 24.00000, Total beta = 24.00000, Total charge =  0.00000

*** Psi4 exiting successfully. Buy a developer a beer!
