  ==> Input File <==

--------------------------------------------------------------------------
set {
	reference rhf
	basis 6-31G*
}

set_num_threads( 4 )
memory 2 gb

molecule MOL {
0 1

H	 3.298851	 -0.435647	 -0.020682
C	 2.239168	 -0.252690	 -0.016235
C	 1.599665	 0.070262	 1.174394
C	 1.520508	 -0.340375	 -1.196836
H	 2.164389	 0.136402	 2.086665
C	 0.238900	 0.305838	 1.183661
H	 2.018616	 -0.590427	 -2.115860
C	 0.155410	 -0.103812	 -1.186216
H	 -0.274098	 0.556730	 2.093076
C	 -0.488460	 0.219100	 0.000000
H	 -0.408682	 -0.170459	 -2.100713
C	 -1.949954	 0.470334	 0.000000
O	 -2.781584	 -0.381627	 0.000000
H	 -2.238022	 1.526388	 0.000000

	symmetry c1
}
set optking {
	frozen_dihedral = ("
		8 10 12 14
	")
}

ee = optimize('scf')
oeprop('DIPOLE', 'QUADRUPOLE', 'MULLIKEN_CHARGES')
f=open( 'psi4out.xyz', 'w' )
f.write( "14  " )
f.write( str(ee) + "\n" )
f.write( MOL.save_string_xyz() )
f.close()
--------------------------------------------------------------------------

    Molecular point group: c1
  Charge       = 0
  Multiplicity = 1
  Basis Set: 6-31G*
  Basis Set:
  @DF-RHF Final Energy:  -343.41885040256335
    Total Energy =                       -343.4188504025632369
    Molecular point group: c1
  Basis Set: 6-31G*
  Basis Set:
  Basis Set: 6-31G*
  Basis Set:
  @DF-RHF Final Energy:  -343.41869210777344
    Total Energy =                       -343.4186921077731540
  Basis Set: 6-31G*
  Basis Set:
  Basis Set: 6-31G*
  Basis Set:
  @DF-RHF Final Energy:  -343.41892200955868
    Total Energy =                       -343.4189220095584005
  Basis Set: 6-31G*
  Basis Set:
  Basis Set: 6-31G*
  Basis Set:
  @DF-RHF Final Energy:  -343.41940992877988
    Total Energy =                       -343.4194099287801691
  Basis Set: 6-31G*
  Basis Set:
  Charge       = 0
  Multiplicity = 1
  Basis Set: 6-31G*
  Basis Set:

    Orbital Energies (a.u.)
    -----------------------

    Doubly Occupied:

       1A    -20.572483     2A    -11.335978     3A    -11.251531
       4A    -11.247693     5A    -11.246793     6A    -11.244330
       7A    -11.243602     8A    -11.242441     9A     -1.411331
      10A     -1.169115    11A     -1.044893    12A     -1.028959
      13A     -0.886934    14A     -0.840736    15A     -0.794456
      16A     -0.720562    17A     -0.677028    18A     -0.651409
      19A     -0.639544    20A     -0.616504    21A     -0.600545
      22A     -0.533461    23A     -0.528493    24A     -0.511582
      25A     -0.501672    26A     -0.421934    27A     -0.346828
      28A     -0.345933

  @DF-RHF Final Energy:  -343.41941265884310

   => Energetics <=

    Nuclear Repulsion Energy =            322.1976143295219686
    One-Electron Energy =               -1103.9205147054308327
    Two-Electron Energy =                 438.3034877170658774
    DFT Exchange-Correlation Energy =       0.0000000000000000
    Empirical Dispersion Energy =           0.0000000000000000
    PCM Polarization Energy =               0.0000000000000000
    EFP Energy =                            0.0000000000000000
    Total Energy =                       -343.4194126588430436
    Molecular point group: c1
  Basis Set: 6-31G*
  Basis Set:

  -Total Gradient:
     Atom            X                  Y                   Z
    ------   -----------------  -----------------  -----------------
       1        0.000005829432     0.000006349261     0.000024100050
       2       -0.000017263776    -0.000088382781    -0.000232569382
       3       -0.000219140181     0.000049869764     0.000120578519
       4        0.000232690307     0.000058670838     0.000136473305
       5        0.000031054158    -0.000004692214    -0.000020711910
       6        0.000236031540     0.000022458885     0.000134004597
       7       -0.000012272278    -0.000003987548     0.000004695712
       8        0.000321055300     0.002953533920    -0.000279969126
       9       -0.000026449683    -0.000008148124    -0.000014498456
      10       -0.000862180827    -0.004308269868    -0.000865128142
      11       -0.000001037784    -0.000002185684     0.000002261444
      12        0.000293451469     0.001368166631     0.004645036045
      13       -0.000036305219    -0.000087600171     0.000008346458
      14        0.000054537548     0.000044217090    -0.003662619113

  **** Optimization is complete! (in 5 steps) ****
    Final optimized geometry and variables:
    Molecular point group: c1

    Geometry (in Angstrom), charge = 0, multiplicity = 1:

    H            3.313207551661    -0.416210773307    -0.011683872266
    C            2.252279310823    -0.242092682289    -0.003171967541
    C            1.611624095150     0.077387161914     1.183717066455
    C            1.524864021155    -0.332996415140    -1.178443850358
    H            2.173690914788     0.149639285203     2.097334798742
    C            0.246577052900     0.309039548127     1.194169999431
    H            2.019374417757    -0.576945035689    -2.101362552287
    C            0.156857889074    -0.113251584841    -1.168132988534
    H           -0.246223495675     0.565188861537     2.116015307034
    C           -0.487455941129     0.197476999170     0.020737349839
    H           -0.408273102950    -0.193426456246    -2.079634787647
    C           -1.960324886113     0.484365237335     0.018830534913
    O           -2.799857971712    -0.352498361762    -0.054668350748
    H           -2.237452812623     1.542418166597     0.040792044766

  Mulliken Charges: (a.u.)
   Center  Symbol    Alpha    Beta     Spin     Total
       1     H     0.39586  0.39586  0.00000  0.20829
       2     C     3.09825  3.09825  0.00000 -0.19651
       3     C     3.09802  3.09802  0.00000 -0.19604
       4     C     3.09808  3.09808  0.00000 -0.19617
       5     H     0.39531  0.39531  0.00000  0.20938
       6     C     3.10569  3.10569  0.00000 -0.21137
       7     H     0.39514  0.39514  0.00000  0.20972
       8     C     3.10294  3.10294  0.00000 -0.20587
       9     H     0.39315  0.39315  0.00000  0.21369
      10     C     3.03081  3.03081  0.00000 -0.06162
      11     H     0.38994  0.38994  0.00000  0.22012
      12     C     2.85181  2.85181  0.00000  0.29637
      13     O     4.22228  4.22228  0.00000 -0.44456
      14     H     0.42271  0.42271  0.00000  0.15458

   Total alpha = 28.00000, Total beta = 28.00000, Total charge = -0.00000
