  ==> Input File <==

--------------------------------------------------------------------------
set {
	reference rhf
	basis 6-31G*
}

set_num_threads( 4 )
memory 2 gb

molecule MOL {
0 1

H	 -3.650283	 0.221984	 0.000000
C	 -2.577024	 0.154109	 0.000000
C	 -1.960329	 -1.089307	 0.000000
C	 -1.811733	 1.307557	 0.000000
H	 -2.554473	 -1.985285	 0.000000
C	 -0.581547	 -1.175855	 0.000000
H	 -2.287118	 2.271701	 0.000000
C	 -0.428719	 1.219221	 0.000000
H	 -0.090826	 -2.129898	 0.000000
C	 0.198341	 -0.021559	 0.000000
H	 0.149947	 2.124040	 0.000000
C	 1.691355	 -0.173192	 0.000000
C	 2.321642	 -1.256130	 -0.850604
O	 2.375520	 0.550156	 0.661861
H	 1.964553	 -2.237585	 -0.555625
H	 3.393700	 -1.212272	 -0.723097
H	 2.078447	 -1.116164	 -1.898957

	symmetry c1
}
set optking {
	frozen_dihedral = ("
		13 12 10 8
	")
}

ee = optimize('scf')
oeprop('DIPOLE', 'QUADRUPOLE', 'MULLIKEN_CHARGES')
f=open( 'psi4out.xyz', 'w' )
f.write( "17  " )
f.write( str(ee) + "\n" )
f.write( MOL.save_string_xyz() )
f.close()
--------------------------------------------------------------------------

    Molecular point group: c1
  Charge       = 0
  Multiplicity = 1
  Basis Set: 6-31G*
  Basis Set:
  @DF-RHF Final Energy:  -382.47044736415592
    Total Energy =                       -382.4704473641558025
    Molecular point group: c1
  Basis Set: 6-31G*
  Basis Set:
  Basis Set: 6-31G*
  Basis Set:
  @DF-RHF Final Energy:  -382.47045456732303
    Total Energy =                       -382.4704545673228040
  Basis Set: 6-31G*
  Basis Set:
  Basis Set: 6-31G*
  Basis Set:
  @DF-RHF Final Energy:  -382.47172599026828
    Total Energy =                       -382.4717259902680553
  Basis Set: 6-31G*
  Basis Set:
  Basis Set: 6-31G*
  Basis Set:
  @DF-RHF Final Energy:  -382.47250355588767
    Total Energy =                       -382.4725035558877835
  Basis Set: 6-31G*
  Basis Set:
  Basis Set: 6-31G*
  Basis Set:
  @DF-RHF Final Energy:  -382.47251295886656
    Total Energy =                       -382.4725129588659911
  Basis Set: 6-31G*
  Basis Set:
  Basis Set: 6-31G*
  Basis Set:
  @DF-RHF Final Energy:  -382.47252077446524
    Total Energy =                       -382.4725207744656927
  Basis Set: 6-31G*
  Basis Set:
  Charge       = 0
  Multiplicity = 1
  Basis Set: 6-31G*
  Basis Set:

    Orbital Energies (a.u.)
    -----------------------

    Doubly Occupied:

       1A    -20.552147     2A    -11.332145     3A    -11.247686
       4A    -11.244532     5A    -11.244228     6A    -11.241492
       7A    -11.240912     8A    -11.238842     9A    -11.230330
      10A     -1.398030    11A     -1.165861    12A     -1.049955
      13A     -1.026414    14A     -0.996928    15A     -0.860603
      16A     -0.836005    17A     -0.760414    18A     -0.706432
      19A     -0.657956    20A     -0.645921    21A     -0.624228
      22A     -0.614437    23A     -0.599608    24A     -0.590676
      25A     -0.556902    26A     -0.525777    27A     -0.514839
      28A     -0.501588    29A     -0.490698    30A     -0.410515
      31A     -0.344736    32A     -0.341830

  @DF-RHF Final Energy:  -382.47252139750964

   => Energetics <=

    Nuclear Repulsion Energy =            403.3126670487103524
    One-Electron Energy =               -1317.9850385190620727
    Two-Electron Energy =                 532.1998500728420822
    DFT Exchange-Correlation Energy =       0.0000000000000000
    Empirical Dispersion Energy =           0.0000000000000000
    PCM Polarization Energy =               0.0000000000000000
    EFP Energy =                            0.0000000000000000
    Total Energy =                       -382.4725213975095812
    Molecular point group: c1
  Basis Set: 6-31G*
  Basis Set:

  -Total Gradient:
     Atom            X                  Y                   Z
    ------   -----------------  -----------------  -----------------
       1       -0.000001078877    -0.000009779541    -0.000011081631
       2        0.000011655576     0.000059634967     0.000032833697
       3        0.000057094206    -0.000026713528    -0.000016288343
       4       -0.000058425557    -0.000010550374    -0.000000473799
       5       -0.000004725369     0.000002389127    -0.000002291285
       6       -0.000064204935    -0.000016722888    -0.000004468100
       7        0.000005554095    -0.000000705705     0.000002847489
       8       -0.000009406298    -0.000056218543    -0.003731857699
       9        0.000016172500     0.000004433832     0.000002045445
      10        0.000123951040     0.001087092540     0.004087375417
      11       -0.000002971305     0.000000762449     0.000006728488
      12       -0.000147169971    -0.003220190901     0.002254714302
      13        0.000094501774     0.002132424897    -0.002561791967
      14        0.000003544733     0.000031919069    -0.000004896399
      15       -0.000022706228     0.000000123629    -0.000018419589
      16       -0.000005296804     0.000002878164    -0.000020655812
      17        0.000003511419     0.000019222806    -0.000014320214

  **** Optimization is complete! (in 7 steps) ****
    Final optimized geometry and variables:
    Molecular point group: c1

    Geometry (in Angstrom), charge = 0, multiplicity = 1:

    H           -3.638509383843     0.323847188375    -0.005803824189
    C           -2.567637386426     0.227449501130     0.011670447249
    C           -1.986008723231    -1.029592620843     0.016712314469
    C           -1.768931996512     1.361025464780     0.025321640207
    H           -2.602964189280    -1.910012011582     0.008387420731
    C           -0.606352044102    -1.153836298641     0.024445452002
    H           -2.218625737515     2.337490614229     0.014693607658
    C           -0.391764924076     1.236399679434     0.055477391656
    H           -0.167991612726    -2.135232633745     0.018127995518
    C            0.200184883060    -0.022434687099     0.060919420131
    H            0.235389843734     2.107621912112     0.080940583316
    C            1.699761796491    -0.101351200465     0.042111186031
    C            2.351255033672    -1.167914087110    -0.812382140281
    O            2.357287561409     0.712473552935     0.618593246798
    H            2.108862876938    -2.165333750411    -0.460147705600
    H            3.423378661185    -1.034114747014    -0.783710930112
    H            1.996526897146    -1.089272944871    -1.834960403422

  Mulliken Charges: (a.u.)
   Center  Symbol    Alpha    Beta     Spin     Total
       1     H     0.39577  0.39577  0.00000  0.20845
       2     C     3.09435  3.09435  0.00000 -0.18870
       3     C     3.10305  3.10305  0.00000 -0.20611
       4     C     3.10243  3.10243  0.00000 -0.20485
       5     H     0.39632  0.39632  0.00000  0.20735
       6     C     3.10333  3.10333  0.00000 -0.20666
       7     H     0.39536  0.39536  0.00000  0.20928
       8     C     3.09414  3.09414  0.00000 -0.18829
       9     H     0.39511  0.39511  0.00000  0.20978
      10     C     3.04306  3.04306  0.00000 -0.08613
      11     H     0.38116  0.38116  0.00000  0.23768
      12     C     2.73814  2.73814  0.00000  0.52372
      13     C     3.28884  3.28884  0.00000 -0.57769
      14     O     4.26163  4.26163  0.00000 -0.52326
      15     H     0.40865  0.40865  0.00000  0.18271
      16     H     0.39540  0.39540  0.00000  0.20919
      17     H     0.40324  0.40324  0.00000  0.19353

   Total alpha = 32.00000, Total beta = 32.00000, Total charge =  0.00000
