  ==> Input File <==

--------------------------------------------------------------------------
set {
	reference rhf
	basis 6-31G*
}

set_num_threads( 1 )
memory 2 gb

molecule MOL {
0 1

H	 2.591676	 2.013956	 0.335017
O	 3.341076	 1.666752	 -0.126416
C	 3.569581	 0.339145	 0.272707
C	 2.317729	 -0.529428	 0.216373
H	 4.314855	 -0.049150	 -0.409545
H	 4.000894	 0.310731	 1.272678
C	 1.213523	 -0.093116	 1.182411
H	 1.936865	 -0.519803	 -0.801574
H	 2.606826	 -1.555582	 0.437273
C	 -0.007396	 -1.016394	 1.140793
H	 0.909285	 0.921788	 0.942048
H	 1.609228	 -0.069825	 2.197899
C	 -1.108503	 -0.673814	 2.151013
H	 -0.426361	 -1.010809	 0.136162
H	 0.323557	 -2.036311	 1.325019
C	 -1.817013	 0.660932	 1.904140
H	 -1.850630	 -1.469199	 2.130405
H	 -0.688669	 -0.678958	 3.155777
C	 -2.975588	 0.908872	 2.872472
H	 -2.192958	 0.684201	 0.882262
H	 -1.108582	 1.481650	 1.986909
C	 -3.680478	 2.243462	 2.632339
H	 -3.697032	 0.099300	 2.785295
H	 -2.603581	 0.876328	 3.894448
H	 -4.092468	 2.294170	 1.628388
H	 -4.497340	 2.388902	 3.332495
H	 -2.993236	 3.076835	 2.748741

	symmetry c1
}
set optking {
	frozen_dihedral = ("
		14 10 7 4,
		14 10 13 16,
		10 7 4 8,
		8 4 3 2,
		10 13 16 20,
		20 16 19 22
	")
}

ee = energy('scf')
oeprop('DIPOLE', 'QUADRUPOLE', 'MULLIKEN_CHARGES')
f=open( 'psi4out.xyz', 'w' )
f.write( "27  " )
f.write( str(ee) + "\n" )
f.write( MOL.save_string_xyz() )
f.close()
--------------------------------------------------------------------------

    Molecular point group: c1

    Geometry (in Angstrom), charge = 0, multiplicity = 1:

       Center              X                  Y                   Z               Mass
    ------------   -----------------  -----------------  -----------------  -----------------
           H          2.455825737259     1.587120447395    -1.006993796461     1.007825032070
           O          3.205225737259     1.239916447395    -1.468426796461    15.994914619560
           C          3.433730737259    -0.087690552605    -1.069303796461    12.000000000000
           C          2.181878737259    -0.956263552605    -1.125637796461    12.000000000000
           H          4.179004737259    -0.475985552605    -1.751555796461     1.007825032070
           H          3.865043737259    -0.116104552605    -0.069332796461     1.007825032070
           C          1.077672737259    -0.519951552605    -0.159599796461    12.000000000000
           H          1.801014737259    -0.946638552605    -2.143584796461     1.007825032070
           H          2.470975737259    -1.982417552605    -0.904737796461     1.007825032070
           C         -0.143246262741    -1.443229552605    -0.201217796461    12.000000000000
           H          0.773434737259     0.494952447395    -0.399962796461     1.007825032070
           H          1.473377737259    -0.496660552605     0.855888203539     1.007825032070
           C         -1.244353262741    -1.100649552605     0.809002203539    12.000000000000
           H         -0.562211262741    -1.437644552605    -1.205848796461     1.007825032070
           H          0.187706737259    -2.463146552605    -0.016991796461     1.007825032070
           C         -1.952863262741     0.234096447395     0.562129203539    12.000000000000
           H         -1.986480262741    -1.896034552605     0.788394203539     1.007825032070
           H         -0.824519262741    -1.105793552605     1.813766203539     1.007825032070
           C         -3.111438262741     0.482036447395     1.530461203539    12.000000000000
           H         -2.328808262741     0.257365447395    -0.459748796461     1.007825032070
           H         -1.244432262741     1.054814447395     0.644898203539     1.007825032070
           C         -3.816328262741     1.816626447395     1.290328203539    12.000000000000
           H         -3.832882262741    -0.327535552605     1.443284203539     1.007825032070
           H         -2.739431262741     0.449492447395     2.552437203539     1.007825032070
           H         -4.228318262741     1.867334447395     0.286377203539     1.007825032070
           H         -4.633190262741     1.962066447395     1.990484203539     1.007825032070
           H         -3.129086262741     2.649999447395     1.406730203539     1.007825032070

  Charge       = 0
  Multiplicity = 1
  Basis Set: 6-31G*
  Basis Set:

    Orbital Energies (a.u.)
    -----------------------

    Doubly Occupied:

       1A    -20.550575     2A    -11.266334     3A    -11.224220
       4A    -11.220142     5A    -11.218761     6A    -11.217666
       7A    -11.217357     8A    -11.216100     9A    -11.210391
      10A     -1.357975    11A     -1.097745    12A     -1.063669
      13A     -1.013021    14A     -0.950041    15A     -0.890480
      16A     -0.822750    17A     -0.804093    18A     -0.780695
      19A     -0.684326    20A     -0.655795    21A     -0.643183
      22A     -0.614039    23A     -0.606641    24A     -0.584162
      25A     -0.580202    26A     -0.557921    27A     -0.541676
      28A     -0.531954    29A     -0.505697    30A     -0.496877
      31A     -0.488058    32A     -0.477578    33A     -0.469243
      34A     -0.462839    35A     -0.452115    36A     -0.440073
      37A     -0.426888

  @DF-RHF Final Energy:  -388.28094180554899

   => Energetics <=

    Nuclear Repulsion Energy =            460.0656828729804602
    One-Electron Energy =               -1438.0106502306707625
    Two-Electron Energy =                 589.6640255521391509
    DFT Exchange-Correlation Energy =       0.0000000000000000
    Empirical Dispersion Energy =           0.0000000000000000
    PCM Polarization Energy =               0.0000000000000000
    EFP Energy =                            0.0000000000000000
    Total Energy =                       -388.2809418055511514

  Mulliken Charges: (a.u.)
   Center  Symbol    Alpha    Beta     Spin     Total
       1     H     0.27840  0.27840  0.00000  0.44321
       2     O     4.37457  4.37457  0.00000 -0.74913
       3     C     2.98962  2.98962  0.00000  0.02077
       4     C     3.16940  3.16940  0.00000 -0.33880
       5     H     0.41528  0.41528  0.00000  0.16944
       6     H     0.43184  0.43184  0.00000  0.13633
       7     C     3.16328  3.16328  0.00000 -0.32656
       8     H     0.41485  0.41485  0.00000  0.17030
       9     H     0.42180  0.42180  0.00000  0.15639
      10     C     3.15198  3.15198  0.00000 -0.30396
      11     H     0.42820  0.42820  0.00000  0.14360
      12     H     0.42169  0.42169  0.00000  0.15662
      13     C     3.15374  3.15374  0.00000 -0.30747
      14     H     0.42154  0.42154  0.00000  0.15692
      15     H     0.42052  0.42052  0.00000  0.15895
      16     C     3.15262  3.15262  0.00000 -0.30524
      17     H     0.42074  0.42074  0.00000  0.15851
      18     H     0.42364  0.42364  0.00000  0.15271
      19     C     3.15129  3.15129  0.00000 -0.30257
      20     H     0.42372  0.42372  0.00000  0.15256
      21     H     0.42393  0.42393  0.00000  0.15214
      22     C     3.23929  3.23929  0.00000 -0.47857
      23     H     0.42267  0.42267  0.00000  0.15467
      24     H     0.42294  0.42294  0.00000  0.15413
      25     H     0.42147  0.42147  0.00000  0.15705
      26     H     0.41891  0.41891  0.00000  0.16217
      27     H     0.42209  0.42209  0.00000  0.15582

   Total alpha = 37.00000, Total beta = 37.00000, Total charge = -0.00000
