                              Psi4 1.0.54 Driver

  ==> Input File <==

--------------------------------------------------------------------------
set {
	reference rhf
	basis cc-pvtz
}

set_num_threads( 4 )
memory 2 gb

molecule MOL {
0 1

H	 -3.436473	 1.252944	 -1.023892
O	 -3.458596	 0.315260	 -0.960865
C	 -3.176635	 -0.080824	 0.355601
C	 -1.763371	 0.265266	 0.799691
H	 -3.321825	 -1.153438	 0.379502
H	 -3.895468	 0.357385	 1.043382
C	 -0.673390	 -0.426948	 -0.013392
H	 -1.631049	 1.344913	 0.747560
H	 -1.664587	 -0.001624	 1.849167
C	 0.737842	 -0.043159	 0.423759
H	 -0.806103	 -0.190518	 -1.063345
H	 -0.797221	 -1.503753	 0.074146
C	 1.824000	 -0.743224	 -0.390623
H	 0.850588	 1.033777	 0.343840
H	 0.868587	 -0.286314	 1.476203
C	 3.255957	 -0.453067	 0.062319
H	 1.718250	 -0.470599	 -1.438164
H	 1.658105	 -1.815850	 -0.339904
C	 3.555112	 -0.827209	 1.512032
H	 3.448951	 0.607218	 -0.069305
H	 3.951199	 -0.970319	 -0.593813
H	 2.870910	 -0.328995	 2.191537
H	 4.562274	 -0.533245	 1.784891
H	 3.471102	 -1.893880	 1.681620

	symmetry c1
}
set optking {
	frozen_dihedral = ("
		20 16 13 17
	")
}

ee,wfn = optimize('scf', return_wfn=True)
oeprop( wfn, 'DIPOLE', 'QUADRUPOLE', 'MULLIKEN_CHARGES')
f=open( 'psi4out.xyz', 'w' )
f.write( "24  " )
f.write( str(ee) + "\n" )
f.write( MOL.save_string_xyz() )
f.close()
--------------------------------------------------------------------------

    Molecular point group: c1
  Charge       = 0
  Multiplicity = 1
  Basis Set: CC-PVTZ
  Basis Set:
  @DF-RHF Final Energy:  -349.37936831598887
    Total Energy =                       -349.3793683159887564
    Molecular point group: c1
  Basis Set: CC-PVTZ
  Basis Set:
  Basis Set: CC-PVTZ
  Basis Set:
  @DF-RHF Final Energy:  -349.37964222690101
    Total Energy =                       -349.3796422269010122
  Basis Set: CC-PVTZ
  Basis Set:
  Basis Set: CC-PVTZ
  Basis Set:
  @DF-RHF Final Energy:  -349.38033317251524
    Total Energy =                       -349.3803331725150656
  Basis Set: CC-PVTZ
  Basis Set:
  Basis Set: CC-PVTZ
  Basis Set:
  @DF-RHF Final Energy:  -349.38036135815901
    Total Energy =                       -349.3803613581590639
  Basis Set: CC-PVTZ
  Basis Set:
  Basis Set: CC-PVTZ
  Basis Set:
  @DF-RHF Final Energy:  -349.38036569376226
    Total Energy =                       -349.3803656937623145
  Basis Set: CC-PVTZ
  Basis Set:
  Charge       = 0
  Multiplicity = 1
  Basis Set: CC-PVTZ
  Basis Set:

    Orbital Energies (a.u.)
    -----------------------

    Doubly Occupied:

       1A    -20.546275     2A    -11.265505     3A    -11.215146
       4A    -11.212098     5A    -11.210129     6A    -11.209434
       7A    -11.208910     8A    -11.205332     9A     -1.364108
      10A     -1.089838    11A     -1.049373    12A     -0.986596
      13A     -0.916138    14A     -0.851746    15A     -0.801651
      16A     -0.775583    17A     -0.681721    18A     -0.655835
      19A     -0.625885    20A     -0.619852    21A     -0.598732
      22A     -0.586654    23A     -0.557808    24A     -0.541812
      25A     -0.518552    26A     -0.509394    27A     -0.498330
      28A     -0.471459    29A     -0.468659    30A     -0.460492
      31A     -0.458256    32A     -0.451094    33A     -0.420910

  @DF-RHF Final Energy:  -349.38036595061334

   => Energetics <=

    Nuclear Repulsion Energy =            384.8060497831616544
    One-Electron Energy =               -1236.3062171746009881
    Two-Electron Energy =                 502.1198014408261088
    DFT Exchange-Correlation Energy =       0.0000000000000000
    Empirical Dispersion Energy =           0.0000000000000000
    PCM Polarization Energy =               0.0000000000000000
    EFP Energy =                            0.0000000000000000
    Total Energy =                       -349.3803659506132817
    Molecular point group: c1
  Basis Set: CC-PVTZ
  Basis Set:

  -Total Gradient:
     Atom            X                  Y                   Z
    ------   -----------------  -----------------  -----------------
       1       -0.000001629320     0.000006153918    -0.000010162260
       2       -0.000002525488     0.000022300903    -0.000010049982
       3        0.000006732324    -0.000024664732     0.000010200510
       4       -0.000016043768    -0.000007720298     0.000005823459
       5        0.000003851795    -0.000003980232     0.000013483811
       6        0.000002634556     0.000002039177    -0.000001728202
       7       -0.000005295069     0.000010703853     0.000000384085
       8        0.000002325466    -0.000002278209    -0.000003238277
       9       -0.000004110024     0.000003647490     0.000004556112
      10       -0.000009000719    -0.000007046820    -0.000002044211
      11        0.000011234233    -0.000004454528    -0.000003186848
      12       -0.000002134986     0.000005255361     0.000004054219
      13        0.000364615966    -0.001006791085    -0.000418184131
      14       -0.000003249367     0.000001124590     0.000004425835
      15       -0.000004469505    -0.000000630962    -0.000005539127
      16       -0.000348314960     0.000403142447     0.001020915653
      17       -0.000248620242     0.000798565114     0.000178595620
      18        0.000009880603     0.000004202966     0.000000930474
      19        0.000013654296     0.000021390146     0.000004785125
      20        0.000233119219    -0.000213942531    -0.000803312991
      21        0.000002309868     0.000005217234    -0.000003436638
      22        0.000000412835    -0.000004600161     0.000004532410
      23       -0.000005417649    -0.000000349457     0.000003935376
      24        0.000000039924    -0.000007284180     0.000004259973

  **** Optimization is complete! (in 6 steps) ****
    Final optimized geometry and variables:
    Molecular point group: c1

    Geometry (in Angstrom), charge = 0, multiplicity = 1:

    H           -3.347947767339     1.606499050563    -1.238966884437
    O           -3.417697142951     0.671321949379    -1.173653885637
    C           -3.168524584585     0.265898968715     0.146534755069
    C           -1.743911733841     0.542033093240     0.603241742591
    H           -3.367648630704    -0.798004974017     0.171754771376
    H           -3.871042359469     0.741754138042     0.826113249127
    C           -0.682269431002    -0.205586528163    -0.198200785432
    H           -1.557192982285     1.613593251035     0.550051140500
    H           -1.668500153856     0.273336318099     1.654170556189
    C            0.742423148108     0.109540812159     0.250278693362
    H           -0.794709952007     0.032406057634    -1.250041278353
    H           -0.859219340461    -1.274828551791    -0.107399440571
    C            1.798744266268    -0.656056640600    -0.544836131288
    H            0.922733381414     1.177684500054     0.147133692794
    H            0.838803956058    -0.114709873497     1.308171131099
    C            3.246611186136    -0.290528292990    -0.213286364222
    H            1.632832009273    -0.469245359761    -1.602187152193
    H            1.655284363275    -1.723769215535    -0.396198182621
    C            3.669975881697    -0.577739345309     1.224931829235
    H            3.411263208867     0.760020376701    -0.438342043935
    H            3.898079584277    -0.843403664308    -0.883538575272
    H            3.126960932223     0.031109122647     1.937533227953
    H            4.725952799698    -0.374524927754     1.361895843098
    H            3.499025313376    -1.618723467352     1.480827008717

  Mulliken Charges: (a.u.)
   Center  Symbol    Alpha    Beta     Spin     Total
       1     H     0.39531  0.39531  0.00000  0.20938
       2     O     4.20370  4.20370  0.00000 -0.40741
       3     C     2.97787  2.97787  0.00000  0.04426
       4     C     3.10178  3.10178  0.00000 -0.20355
       5     H     0.45881  0.45881  0.00000  0.08238
       6     H     0.46026  0.46026  0.00000  0.07947
       7     C     3.08736  3.08736  0.00000 -0.17472
       8     H     0.45914  0.45914  0.00000  0.08172
       9     H     0.45343  0.45343  0.00000  0.09314
      10     C     3.09195  3.09195  0.00000 -0.18389
      11     H     0.44584  0.44584  0.00000  0.10832
      12     H     0.45534  0.45534  0.00000  0.08932
      13     C     3.09481  3.09481  0.00000 -0.18963
      14     H     0.45554  0.45554  0.00000  0.08892
      15     H     0.45382  0.45382  0.00000  0.09235
      16     C     3.09011  3.09011  0.00000 -0.18022
      17     H     0.44952  0.44952  0.00000  0.10097
      18     H     0.45348  0.45348  0.00000  0.09305
      19     C     3.15354  3.15354  0.00000 -0.30708
      20     H     0.45481  0.45481  0.00000  0.09037
      21     H     0.44888  0.44888  0.00000  0.10224
      22     H     0.45363  0.45363  0.00000  0.09275
      23     H     0.44632  0.44632  0.00000  0.10736
      24     H     0.45475  0.45475  0.00000  0.09050

   Total alpha = 33.00000, Total beta = 33.00000, Total charge = -0.00000

*** Psi4 exiting successfully. Buy a developer a beer!
