                              Psi4 1.0.54 Driver

  ==> Input File <==

--------------------------------------------------------------------------
set {
	reference rhf
	basis cc-pvtz
}

set_num_threads( 4 )
memory 2 gb

molecule MOL {
0 1

H	 -0.366580	 2.045936	 -0.305741
C	 0.351829	 1.335402	 0.083179
N	 -0.000018	 0.000080	 -0.334836
H	 1.327156	 1.599860	 -0.305475
H	 0.380566	 1.445403	 1.171445
C	 0.417225	 -0.993471	 0.624926
C	 -1.402550	 -0.113738	 -0.654508
H	 0.200924	 -1.985124	 0.248190
H	 1.485202	 -0.923957	 0.788576
H	 -0.080844	 -0.883547	 1.592869
H	 -1.665003	 0.598759	 -1.426291
H	 -1.616983	 -1.106415	 -1.029657
H	 -2.050364	 0.068890	 0.208101

	symmetry c1
}
set optking {
	frozen_dihedral = ("
		6 3 2 1
	")
}

ee,wfn = optimize('scf', return_wfn=True)
oeprop( wfn, 'DIPOLE', 'QUADRUPOLE', 'MULLIKEN_CHARGES')
f=open( 'psi4out.xyz', 'w' )
f.write( "13  " )
f.write( str(ee) + "\n" )
f.write( MOL.save_string_xyz() )
f.close()
--------------------------------------------------------------------------

    Molecular point group: c1
  Charge       = 0
  Multiplicity = 1
  Basis Set: CC-PVTZ
  Basis Set:
  @DF-RHF Final Energy:  -173.32981894422531
    Total Energy =                       -173.3298189442251669
    Molecular point group: c1
  Basis Set: CC-PVTZ
  Basis Set:
  Basis Set: CC-PVTZ
  Basis Set:
  @DF-RHF Final Energy:  -173.33016605128100
    Total Energy =                       -173.3301660512810258
  Basis Set: CC-PVTZ
  Basis Set:
  Basis Set: CC-PVTZ
  Basis Set:
  @DF-RHF Final Energy:  -173.33024083627342
    Total Energy =                       -173.3302408362734468
  Basis Set: CC-PVTZ
  Basis Set:
  Charge       = 0
  Multiplicity = 1
  Basis Set: CC-PVTZ
  Basis Set:

    Orbital Energies (a.u.)
    -----------------------

    Doubly Occupied:

       1A    -15.538650     2A    -11.234122     3A    -11.234040
       4A    -11.233972     5A     -1.224542     6A     -0.951937
       7A     -0.951012     8A     -0.807950     9A     -0.641343
      10A     -0.630661    11A     -0.628588    12A     -0.549369
      13A     -0.545610    14A     -0.514698    15A     -0.501309
      16A     -0.498886    17A     -0.348368

  @DF-RHF Final Energy:  -173.33024301826720

   => Energetics <=

    Nuclear Repulsion Energy =            139.2977019749733358
    One-Electron Energy =                -509.1857722753313737
    Two-Electron Energy =                 196.5578272820908410
    DFT Exchange-Correlation Energy =       0.0000000000000000
    Empirical Dispersion Energy =           0.0000000000000000
    PCM Polarization Energy =               0.0000000000000000
    EFP Energy =                            0.0000000000000000
    Total Energy =                       -173.3302430182671969
    Molecular point group: c1
  Basis Set: CC-PVTZ
  Basis Set:

  -Total Gradient:
     Atom            X                  Y                   Z
    ------   -----------------  -----------------  -----------------
       1       -0.002848155642    -0.000526081684     0.004265999296
       2        0.002336781122     0.000760304276    -0.004662818061
       3        0.003842014331    -0.000544459222    -0.001318674100
       4        0.000013901806    -0.000003401044    -0.000000717649
       5        0.000000717949     0.000036871640    -0.000037488851
       6       -0.003518285057     0.000409107207     0.001682051657
       7        0.000154090058    -0.000097578156     0.000018596659
       8        0.000017138621    -0.000049501851     0.000028580952
       9       -0.000014121312     0.000023707985    -0.000016429316
      10        0.000010533575     0.000000255559     0.000026477712
      11        0.000045589142    -0.000000537429     0.000034144917
      12       -0.000048342297    -0.000023632861    -0.000017539498
      13        0.000008137704     0.000014945580    -0.000002183717

  **** Optimization is complete! (in 4 steps) ****
    Final optimized geometry and variables:
    Molecular point group: c1

    Geometry (in Angstrom), charge = 0, multiplicity = 1:

    H           -0.172791606848     2.003488729737    -0.249965930358
    C            0.535278552237     1.279667223033     0.130710768836
    N            0.168018009447    -0.059809415998    -0.289998478901
    H            1.529416164134     1.538030778533    -0.213473380419
    H            0.518019698124     1.386291513366     1.216998855736
    C            0.582723590982    -1.054120353054     0.670732190091
    C           -1.240689484310    -0.180928993653    -0.588174808669
    H            0.388810688016    -2.047940703512     0.287082148287
    H            1.647295627979    -0.971780832202     0.853853749885
    H            0.067878294059    -0.951985104678     1.630443788480
    H           -1.515441619560     0.510784598497    -1.373786557101
    H           -1.455930843393    -1.182735938099    -0.938501922905
    H           -1.880940325126     0.015602523930     0.277342362717

  Mulliken Charges: (a.u.)
   Center  Symbol    Alpha    Beta     Spin     Total
       1     H     0.45634  0.45634  0.00000  0.08732
       2     C     3.08754  3.08754  0.00000 -0.17507
       3     N     3.59821  3.59821  0.00000 -0.19642
       4     H     0.44975  0.44975  0.00000  0.10050
       5     H     0.47041  0.47041  0.00000  0.05918
       6     C     3.09057  3.09057  0.00000 -0.18115
       7     C     3.08957  3.08957  0.00000 -0.17913
       8     H     0.45312  0.45312  0.00000  0.09376
       9     H     0.45219  0.45219  0.00000  0.09562
      10     H     0.47328  0.47328  0.00000  0.05344
      11     H     0.45209  0.45209  0.00000  0.09581
      12     H     0.45297  0.45297  0.00000  0.09406
      13     H     0.47395  0.47395  0.00000  0.05209

   Total alpha = 17.00000, Total beta = 17.00000, Total charge = -0.00000

*** Psi4 exiting successfully. Buy a developer a beer!
