                              Psi4 1.0.54 Driver

  ==> Input File <==

--------------------------------------------------------------------------
set {
	reference rhf
	basis cc-pvtz
}

set_num_threads( 4 )
memory 2 gb

molecule MOL {
0 1

H	 -3.436473	 1.252944	 -1.023892
O	 -3.458596	 0.315260	 -0.960865
C	 -3.176635	 -0.080824	 0.355601
C	 -1.763371	 0.265266	 0.799691
H	 -3.321825	 -1.153438	 0.379502
H	 -3.895468	 0.357385	 1.043382
C	 -0.673390	 -0.426948	 -0.013392
H	 -1.631049	 1.344913	 0.747560
H	 -1.664587	 -0.001624	 1.849167
C	 0.737842	 -0.043159	 0.423759
H	 -0.806103	 -0.190518	 -1.063345
H	 -0.797221	 -1.503753	 0.074146
C	 1.786495	 -1.080157	 0.026256
H	 0.989277	 0.921873	 -0.005640
H	 0.758087	 0.088811	 1.503588
C	 3.205408	 -0.779920	 0.512458
H	 1.794276	 -1.185206	 -1.056220
H	 1.485198	 -2.046643	 0.420902
C	 3.846110	 0.456904	 -0.112772
H	 3.830849	 -1.640946	 0.297437
H	 3.198754	 -0.674076	 1.594203
H	 3.861253	 0.382006	 -1.195471
H	 4.870363	 0.570875	 0.223620
H	 3.315774	 1.364746	 0.148325

	symmetry c1
}
set optking {
	frozen_dihedral = ("
		13 10 7 11
	")
}

ee,wfn = optimize('scf', return_wfn=True)
oeprop( wfn, 'DIPOLE', 'QUADRUPOLE', 'MULLIKEN_CHARGES')
f=open( 'psi4out.xyz', 'w' )
f.write( "24  " )
f.write( str(ee) + "\n" )
f.write( MOL.save_string_xyz() )
f.close()
--------------------------------------------------------------------------

    Molecular point group: c1
  Charge       = 0
  Multiplicity = 1
  Basis Set: CC-PVTZ
  Basis Set:
  @DF-RHF Final Energy:  -349.37875899996567
    Total Energy =                       -349.3787589999654983
    Molecular point group: c1
  Basis Set: CC-PVTZ
  Basis Set:
  Basis Set: CC-PVTZ
  Basis Set:
  @DF-RHF Final Energy:  -349.37887961652297
    Total Energy =                       -349.3788796165231361
  Basis Set: CC-PVTZ
  Basis Set:
  Basis Set: CC-PVTZ
  Basis Set:
  @DF-RHF Final Energy:  -349.37896857698900
    Total Energy =                       -349.3789685769889957
  Basis Set: CC-PVTZ
  Basis Set:
  Basis Set: CC-PVTZ
  Basis Set:
  @DF-RHF Final Energy:  -349.37896224217064
    Total Energy =                       -349.3789622421703029
  Basis Set: CC-PVTZ
  Basis Set:
  Basis Set: CC-PVTZ
  Basis Set:
  @DF-RHF Final Energy:  -349.37897667923272
    Total Energy =                       -349.3789766792324940
  Basis Set: CC-PVTZ
  Basis Set:
  Charge       = 0
  Multiplicity = 1
  Basis Set: CC-PVTZ
  Basis Set:

    Orbital Energies (a.u.)
    -----------------------

    Doubly Occupied:

       1A    -20.546348     2A    -11.265406     3A    -11.215080
       4A    -11.212107     5A    -11.210224     6A    -11.209609
       7A    -11.208792     8A    -11.205226     9A     -1.364160
      10A     -1.089387    11A     -1.049324    12A     -0.986329
      13A     -0.916047    14A     -0.851013    15A     -0.801299
      16A     -0.776995    17A     -0.681732    18A     -0.655587
      19A     -0.624695    20A     -0.622414    21A     -0.597165
      22A     -0.581560    23A     -0.566062    24A     -0.535762
      25A     -0.518527    26A     -0.514124    27A     -0.495279
      28A     -0.476622    29A     -0.467163    30A     -0.461158
      31A     -0.453365    32A     -0.451152    33A     -0.421238

  @DF-RHF Final Energy:  -349.37897678438088

   => Energetics <=

    Nuclear Repulsion Energy =            384.5464211685812757
    One-Electron Energy =               -1235.7888956151218736
    Two-Electron Energy =                 501.8634976621599435
    DFT Exchange-Correlation Energy =       0.0000000000000000
    Empirical Dispersion Energy =           0.0000000000000000
    PCM Polarization Energy =               0.0000000000000000
    EFP Energy =                            0.0000000000000000
    Total Energy =                       -349.3789767843807113
    Molecular point group: c1
  Basis Set: CC-PVTZ
  Basis Set:

  -Total Gradient:
     Atom            X                  Y                   Z
    ------   -----------------  -----------------  -----------------
       1        0.000002866727    -0.000000477038     0.000006642985
       2        0.000002281939    -0.000017467689    -0.000018415066
       3       -0.000006964526     0.000015170119     0.000027607426
       4        0.000010238582    -0.000003333222    -0.000001804732
       5       -0.000004849613     0.000002431506    -0.000015071914
       6       -0.000002043595    -0.000003925171     0.000003714018
       7        0.001406381220    -0.004527767009    -0.000338645810
       8        0.000001221593     0.000006218040     0.000002977772
       9       -0.000003130911    -0.000000430567     0.000005024329
      10        0.000183848500     0.002588346568    -0.002887246906
      11       -0.001240909044     0.003254126966     0.000976960452
      12        0.000010469436     0.000005580122    -0.000003599083
      13       -0.000342454262    -0.001321447999     0.002242231126
      14       -0.000000291825     0.000001266970    -0.000010045912
      15       -0.000011792869     0.000005533919     0.000010778065
      16        0.000001620410     0.000004805776    -0.000000860392
      17        0.000002248929    -0.000005688239    -0.000002304075
      18        0.000006350881     0.000000826950     0.000004619431
      19       -0.000006199109    -0.000002208501     0.000000037819
      20       -0.000003292031     0.000004335335     0.000000839144
      21       -0.000002911824    -0.000002277460    -0.000003464816
      22       -0.000003876388     0.000002017335    -0.000002220719
      23        0.000001985851    -0.000002640392     0.000001375604
      24       -0.000000798076    -0.000002996319     0.000000871254

  **** Optimization is complete! (in 6 steps) ****
    Final optimized geometry and variables:
    Molecular point group: c1

    Geometry (in Angstrom), charge = 0, multiplicity = 1:

    H           -3.394962148541     1.453172596109    -1.099448365972
    O           -3.430919307751     0.514036661660    -1.079601190329
    C           -3.191563373597     0.055736704080     0.225122928222
    C           -1.784585344010     0.354825286877     0.720339021008
    H           -3.356764733073    -1.013988129930     0.197635777633
    H           -3.920836289612     0.477025559050     0.912481437777
    C           -0.685343911383    -0.331811839348    -0.088026334229
    H           -1.628401003639     1.432779408047     0.710395948754
    H           -1.720125591323     0.049344962368     1.761774010342
    C            0.721154758392     0.068665138347     0.362848079157
    H           -0.821922450238    -0.069407817271    -1.130808262251
    H           -0.808656832302    -1.408187898039    -0.008830691038
    C            1.794906121857    -0.932958580941    -0.059030291895
    H            0.948546010833     1.057881159615    -0.019868013525
    H            0.740979600461     0.151061567714     1.447758418171
    C            3.215514738463    -0.577850811832     0.383033569881
    H            1.776686923875    -1.051499110485    -1.140485168567
    H            1.536883939305    -1.903468867294     0.354915615922
    C            3.803831970822     0.658867382418    -0.291960096384
    H            3.861232527728    -1.425728506524     0.175830303660
    H            3.232013970517    -0.442225645122     1.461443546765
    H            3.797016764026     0.552547610366    -1.372039027539
    H            4.831379173699     0.813411115414     0.017116859481
    H            3.252067538697     1.557826111107    -0.045059617462

  Mulliken Charges: (a.u.)
   Center  Symbol    Alpha    Beta     Spin     Total
       1     H     0.39532  0.39532  0.00000  0.20936
       2     O     4.20376  4.20376  0.00000 -0.40753
       3     C     2.97747  2.97747  0.00000  0.04506
       4     C     3.10144  3.10144  0.00000 -0.20288
       5     H     0.45889  0.45889  0.00000  0.08223
       6     H     0.46027  0.46027  0.00000  0.07947
       7     C     3.08884  3.08884  0.00000 -0.17769
       8     H     0.45898  0.45898  0.00000  0.08203
       9     H     0.45340  0.45340  0.00000  0.09320
      10     C     3.09234  3.09234  0.00000 -0.18468
      11     H     0.44550  0.44550  0.00000  0.10899
      12     H     0.45512  0.45512  0.00000  0.08976
      13     C     3.09446  3.09446  0.00000 -0.18893
      14     H     0.45153  0.45153  0.00000  0.09694
      15     H     0.45761  0.45761  0.00000  0.08477
      16     C     3.09022  3.09022  0.00000 -0.18043
      17     H     0.45329  0.45329  0.00000  0.09343
      18     H     0.44973  0.44973  0.00000  0.10054
      19     C     3.15183  3.15183  0.00000 -0.30366
      20     H     0.44859  0.44859  0.00000  0.10282
      21     H     0.45540  0.45540  0.00000  0.08921
      22     H     0.45467  0.45467  0.00000  0.09066
      23     H     0.44687  0.44687  0.00000  0.10626
      24     H     0.45446  0.45446  0.00000  0.09107

   Total alpha = 33.00000, Total beta = 33.00000, Total charge =  0.00000

*** Psi4 exiting successfully. Buy a developer a beer!
