                              Psi4 1.0.54 Driver

  ==> Input File <==

--------------------------------------------------------------------------
set {
	reference rhf
	basis cc-pvtz
}

set_num_threads( 4 )
memory 2 gb

molecule MOL {
0 1

O	 3.444296	 0.395148	 0.996715
C	 2.841259	 0.166180	 -0.000295
C	 1.542794	 -0.614730	 -0.000853
C	 3.335065	 0.643997	 -1.347169
C	 0.288398	 0.247429	 0.000314
H	 1.557171	 -1.273139	 -0.866508
H	 1.557484	 -1.274998	 0.863344
C	 -0.993089	 -0.581367	 -0.000217
H	 0.305153	 0.900562	 -0.864701
H	 0.305567	 0.898805	 0.866656
C	 -2.258482	 0.271340	 0.000669
H	 -1.002280	 -1.233920	 -0.870484
H	 -1.002061	 -1.235367	 0.868958
C	 -3.544441	 -0.550271	 -0.000253
H	 -2.250545	 0.925250	 -0.867923
H	 -2.250598	 0.923423	 0.870642
C	 -4.804551	 0.308747	 0.000556
H	 -3.553737	 -1.201524	 -0.870151
H	 -3.553831	 -1.203282	 0.868313
H	 -4.842050	 0.949078	 -0.874436
H	 -5.698404	 -0.304480	 -0.000254
H	 -4.842277	 0.947103	 0.876982
H	 2.594019	 1.285512	 -1.811234
H	 4.260458	 1.185784	 -1.226731
H	 3.490051	 -0.200527	 -2.009590

	symmetry c1
}
set optking {
	frozen_dihedral = ("
		1 2 3 6
	")
}

ee,wfn = optimize('scf', return_wfn=True)
oeprop( wfn, 'DIPOLE', 'QUADRUPOLE', 'MULLIKEN_CHARGES')
f=open( 'psi4out.xyz', 'w' )
f.write( "25  " )
f.write( str(ee) + "\n" )
f.write( MOL.save_string_xyz() )
f.close()
--------------------------------------------------------------------------

    Molecular point group: c1
  Charge       = 0
  Multiplicity = 1
  Basis Set: CC-PVTZ
  Basis Set:
  @DF-RHF Final Energy:  -387.27200149729924
    Total Energy =                       -387.2720014972993567
    Molecular point group: c1
  Basis Set: CC-PVTZ
  Basis Set:
  Basis Set: CC-PVTZ
  Basis Set:
  @DF-RHF Final Energy:  -387.27269545071471
    Total Energy =                       -387.2726954507149912
  Basis Set: CC-PVTZ
  Basis Set:
  Basis Set: CC-PVTZ
  Basis Set:
  @DF-RHF Final Energy:  -387.27265507705926
    Total Energy =                       -387.2726550770589711
  Basis Set: CC-PVTZ
  Basis Set:
  Basis Set: CC-PVTZ
  Basis Set:
  @DF-RHF Final Energy:  -387.27273566874214
    Total Energy =                       -387.2727356687419160
  Basis Set: CC-PVTZ
  Basis Set:
  @DF-RHF Final Energy:  -387.27278936490342
    Total Energy =                       -387.2727893649032467
  @DF-RHF Final Energy:  -387.27279748256746
    Total Energy =                       -387.2727974825676256
  @DF-RHF Final Energy:  -387.27280385127386
    Total Energy =                       -387.2728038512738067
  Basis Set: CC-PVTZ
  Basis Set:
  @DF-RHF Final Energy:  -387.27281616276849
    Total Energy =                       -387.2728161627690042
  Basis Set: CC-PVTZ
  Basis Set:
  Basis Set: CC-PVTZ
  Basis Set:
  @DF-RHF Final Energy:  -387.27282191705228
    Total Energy =                       -387.2728219170520561
  Basis Set: CC-PVTZ
  Basis Set:
  Basis Set: CC-PVTZ
  Basis Set:
  @DF-RHF Final Energy:  -387.27282320414736
    Total Energy =                       -387.2728232041473575
  Basis Set: CC-PVTZ
  Basis Set:
  Charge       = 0
  Multiplicity = 1
  Basis Set: CC-PVTZ
  Basis Set:

    Orbital Energies (a.u.)
    -----------------------

    Doubly Occupied:

       1A    -20.536903     2A    -11.318968     3A    -11.229530
       4A    -11.227586     5A    -11.226245     6A    -11.220963
       7A    -11.217517     8A    -11.216869     9A    -11.209717
      10A     -1.396678    11A     -1.101485    12A     -1.061289
      13A     -1.013250    14A     -0.971851    15A     -0.896094
      16A     -0.819698    17A     -0.796891    18A     -0.733745
      19A     -0.669638    20A     -0.649645    21A     -0.640287
      22A     -0.612073    23A     -0.607949    24A     -0.588928
      25A     -0.568101    26A     -0.558448    27A     -0.543603
      28A     -0.539886    29A     -0.509287    30A     -0.503216
      31A     -0.490674    32A     -0.479321    33A     -0.468884
      34A     -0.468295    35A     -0.456634    36A     -0.398052

  @DF-RHF Final Energy:  -387.27282322581010

   => Energetics <=

    Nuclear Repulsion Energy =            439.7250093033189273
    One-Electron Energy =               -1396.0992666655463381
    Two-Electron Energy =                 569.1014341364173106
    DFT Exchange-Correlation Energy =       0.0000000000000000
    Empirical Dispersion Energy =           0.0000000000000000
    PCM Polarization Energy =               0.0000000000000000
    EFP Energy =                            0.0000000000000000
    Total Energy =                       -387.2728232258100434
    Molecular point group: c1
  Basis Set: CC-PVTZ
  Basis Set:

  -Total Gradient:
     Atom            X                  Y                   Z
    ------   -----------------  -----------------  -----------------
       1        0.000408743302    -0.000621520353    -0.000091854347
       2       -0.000493662140     0.000745784455     0.000225718020
       3       -0.000248851352     0.000416924177    -0.000532602481
       4       -0.000000110105     0.000001633668    -0.000001153867
       5        0.000000000130     0.000004533334     0.000000574866
       6        0.000333834014    -0.000531827360     0.000398563621
       7        0.000001500210    -0.000002614040     0.000002752986
       8       -0.000000038814    -0.000002382104    -0.000006442696
       9        0.000004793588    -0.000003599434    -0.000000831280
      10        0.000003943469     0.000002695760    -0.000002528745
      11        0.000000368270    -0.000003305246    -0.000000551581
      12       -0.000004113608     0.000003070422    -0.000001697649
      13       -0.000001069355    -0.000003632068    -0.000002658901
      14       -0.000000525439     0.000000333583     0.000004013698
      15        0.000001238596    -0.000003835056    -0.000001075323
      16        0.000000129551     0.000002889459    -0.000001152099
      17       -0.000000479007    -0.000000033925     0.000003351396
      18        0.000001210108     0.000002516398     0.000000062889
      19       -0.000000867868    -0.000002231250    -0.000000386049
      20        0.000000546974    -0.000000750077     0.000000008188
      21       -0.000000399098     0.000000120415     0.000000559756
      22       -0.000000633648     0.000000670246    -0.000000165335
      23        0.000012474748    -0.000007545498     0.000006636147
      24       -0.000012437680    -0.000011096502    -0.000004349568
      25       -0.000005594852     0.000013200998     0.000005208351

  **** Optimization is complete! (in 11 steps) ****
    Final optimized geometry and variables:
    Molecular point group: c1

    Geometry (in Angstrom), charge = 0, multiplicity = 1:

    O            3.420626383830     0.339680705565     1.082479275351
    C            2.850468102441     0.130009347695     0.061499042879
    C            1.578741315562    -0.693177663158     0.026925144251
    C            3.370094414242     0.664180330091    -1.253422796194
    C            0.322949053249     0.186597049913     0.010257940603
    H            1.587058347589    -1.341175856459    -0.844388679885
    H            1.575312617049    -1.317077861495     0.910878838103
    C           -0.965131449664    -0.631914064534     0.017523459023
    H            0.331759343290     0.830254465480    -0.864415722193
    H            0.343026549731     0.839823828376     0.876753839548
    C           -2.224466284207     0.229683994866     0.015244741041
    H           -0.977398732242    -1.289841302064    -0.848030580766
    H           -0.972201262798    -1.277490246028     0.891658410836
    C           -3.514908376005    -0.584909556395     0.027618146246
    H           -2.217477846610     0.875219600080    -0.859973590909
    H           -2.209358926244     0.889398103327     0.879331655210
    C           -4.770005442420     0.281283049047     0.026204397791
    H           -3.531505870029    -1.244090323225    -0.836081952985
    H           -3.523429551610    -1.229441879046     0.902245473888
    H           -4.808492793112     0.913399183864    -0.854767505958
    H           -5.666919791759    -0.327185278800     0.035490855788
    H           -4.800153894136     0.927882463328     0.896823672222
    H            2.580681670139     1.134980573711    -1.826537117078
    H            4.168343329786     1.368199228478    -1.075435183586
    H            3.747703461221    -0.163832518641    -1.845005890043

  Mulliken Charges: (a.u.)
   Center  Symbol    Alpha    Beta     Spin     Total
       1     O     4.17645  4.17645  0.00000 -0.35291
       2     C     2.85890  2.85890  0.00000  0.28219
       3     C     3.09547  3.09547  0.00000 -0.19095
       4     C     3.15563  3.15563  0.00000 -0.31126
       5     C     3.10564  3.10564  0.00000 -0.21129
       6     H     0.44990  0.44990  0.00000  0.10020
       7     H     0.43874  0.43874  0.00000  0.12253
       8     C     3.08967  3.08967  0.00000 -0.17935
       9     H     0.45109  0.45109  0.00000  0.09781
      10     H     0.44250  0.44250  0.00000  0.11501
      11     C     3.08640  3.08640  0.00000 -0.17279
      12     H     0.45399  0.45399  0.00000  0.09201
      13     H     0.45081  0.45081  0.00000  0.09838
      14     C     3.08492  3.08492  0.00000 -0.16984
      15     H     0.45520  0.45520  0.00000  0.08959
      16     H     0.45303  0.45303  0.00000  0.09395
      17     C     3.15034  3.15034  0.00000 -0.30068
      18     H     0.45465  0.45465  0.00000  0.09070
      19     H     0.45369  0.45369  0.00000  0.09263
      20     H     0.45521  0.45521  0.00000  0.08958
      21     H     0.44789  0.44789  0.00000  0.10422
      22     H     0.45444  0.45444  0.00000  0.09112
      23     H     0.45110  0.45110  0.00000  0.09780
      24     H     0.43555  0.43555  0.00000  0.12889
      25     H     0.44878  0.44878  0.00000  0.10245

   Total alpha = 36.00000, Total beta = 36.00000, Total charge = -0.00000

*** Psi4 exiting successfully. Buy a developer a beer!
