  ==> Input File <==

--------------------------------------------------------------------------
set {
	reference rhf
	basis 6-31G*
}

set_num_threads( 1 )
memory 2 gb

molecule MOL {
0 1

H	 -2.138899	 -0.630570	 -0.647413
O	 -2.035884	 -0.060112	 0.102722
C	 -0.955155	 0.788182	 -0.092531
C	 0.353668	 0.040312	 -0.004810
H	 -0.985057	 1.290372	 -1.054184
H	 -0.974469	 1.533190	 0.688632
F	 0.394464	 -0.937475	 -0.903053
F	 1.368604	 0.853376	 -0.249821
F	 0.546173	 -0.502608	 1.179981

	symmetry c1
}
set optking {
	frozen_dihedral = ("
		7 4 3 5
	")
}

ee = energy('scf')
oeprop('DIPOLE', 'QUADRUPOLE', 'MULLIKEN_CHARGES')
f=open( 'psi4out.xyz', 'w' )
f.write( "9  " )
f.write( str(ee) + "\n" )
f.write( MOL.save_string_xyz() )
f.close()
--------------------------------------------------------------------------

    Molecular point group: c1

    Geometry (in Angstrom), charge = 0, multiplicity = 1:

       Center              X                  Y                   Z               Mass
    ------------   -----------------  -----------------  -----------------  -----------------
           H         -2.138496670684    -0.631010917686    -0.647103400625     1.007825032070
           O         -2.035481670684    -0.060552917686     0.103031599375    15.994914619560
           C         -0.954752670684     0.787741082314    -0.092221400625    12.000000000000
           C          0.354070329316     0.039871082314    -0.004500400625    12.000000000000
           H         -0.984654670684     1.289931082314    -1.053874400625     1.007825032070
           H         -0.974066670684     1.532749082314     0.688941599375     1.007825032070
           F          0.394866329316    -0.937915917686    -0.902743400625    18.998403224000
           F          1.369006329316     0.852935082314    -0.249511400625    18.998403224000
           F          0.546575329316    -0.503048917686     1.180290599375    18.998403224000

  Charge       = 0
  Multiplicity = 1
  Basis Set: 6-31G*
  Basis Set:

    Orbital Energies (a.u.)
    -----------------------

    Doubly Occupied:

       1A    -26.342882     2A    -26.342484     3A    -26.338400
       4A    -20.590695     5A    -11.499358     6A    -11.309773
       7A     -1.739339     8A     -1.638238     9A     -1.635870
      10A     -1.402693    11A     -1.047938    12A     -0.923060
      13A     -0.829681    14A     -0.828049    15A     -0.804237
      16A     -0.727895    17A     -0.711024    18A     -0.697423
      19A     -0.664052    20A     -0.657968    21A     -0.641723
      22A     -0.628786    23A     -0.612946    24A     -0.531696
      25A     -0.480523

  @DF-RHF Final Energy:  -450.66280690127041

   => Energetics <=

    Nuclear Repulsion Energy =            277.0281313070562419
    One-Electron Energy =               -1176.1284173714589087
    Two-Electron Energy =                 448.4374791631317407
    DFT Exchange-Correlation Energy =       0.0000000000000000
    Empirical Dispersion Energy =           0.0000000000000000
    PCM Polarization Energy =               0.0000000000000000
    EFP Energy =                            0.0000000000000000
    Total Energy =                       -450.6628069012709261

  Mulliken Charges: (a.u.)
   Center  Symbol    Alpha    Beta     Spin     Total
       1     H     0.27240  0.27240  0.00000  0.45521
       2     O     4.36120  4.36120  0.00000 -0.72240
       3     C     3.05476  3.05476  0.00000 -0.10952
       4     C     2.46303  2.46303  0.00000  1.07394
       5     H     0.40973  0.40973  0.00000  0.18054
       6     H     0.39558  0.39558  0.00000  0.20885
       7     F     4.68635  4.68635  0.00000 -0.37270
       8     F     4.68184  4.68184  0.00000 -0.36369
       9     F     4.67512  4.67512  0.00000 -0.35024

   Total alpha = 25.00000, Total beta = 25.00000, Total charge =  0.00000
