  ==> Input File <==

--------------------------------------------------------------------------
set {
	reference rhf
	basis 6-31G*
}

set_num_threads( 4 )
memory 2 gb

molecule MOL {
0 1

H	 -2.798360	 -0.862255	 -0.071053
N	 -1.863561	 -0.715187	 0.256814
C	 -1.344686	 0.554728	 -0.219830
H	 -1.300452	 -1.461917	 -0.101532
C	 -0.038054	 0.873317	 0.476122
H	 -1.176307	 0.583517	 -1.297244
H	 -2.062002	 1.334078	 0.018609
O	 0.904264	 -0.090834	 0.102573
H	 0.308646	 1.866123	 0.190164
H	 -0.184926	 0.859666	 1.553840
C	 2.135683	 0.032620	 0.739704
H	 2.775454	 -0.758629	 0.373215
H	 2.602506	 0.991426	 0.521189
H	 2.036544	 -0.064960	 1.818805

	symmetry c1
}
set optking {
	frozen_dihedral = ("
		6 3 2 4
	")
}

ee = optimize('scf')
oeprop('DIPOLE', 'QUADRUPOLE', 'MULLIKEN_CHARGES')
f=open( 'psi4out.xyz', 'w' )
f.write( "14  " )
f.write( str(ee) + "\n" )
f.write( MOL.save_string_xyz() )
f.close()
--------------------------------------------------------------------------

    Molecular point group: c1
  Charge       = 0
  Multiplicity = 1
  Basis Set: 6-31G*
  Basis Set:
  @DF-RHF Final Energy:  -248.12481252700314
    Total Energy =                       -248.1248125270030869
    Molecular point group: c1
  Basis Set: 6-31G*
  Basis Set:
  Basis Set: 6-31G*
  Basis Set:
  @DF-RHF Final Energy:  -248.12485935087813
    Total Energy =                       -248.1248593508780687
  Basis Set: 6-31G*
  Basis Set:
  Basis Set: 6-31G*
  Basis Set:
  @DF-RHF Final Energy:  -248.12486401547301
    Total Energy =                       -248.1248640154731788
  Basis Set: 6-31G*
  Basis Set:
  Charge       = 0
  Multiplicity = 1
  Basis Set: 6-31G*
  Basis Set:

    Orbital Energies (a.u.)
    -----------------------

    Doubly Occupied:

       1A    -20.555298     2A    -15.529895     3A    -11.264595
       4A    -11.263439     5A    -11.241157     6A     -1.379481
       7A     -1.174211     8A     -0.998391     9A     -0.905656
      10A     -0.814149    11A     -0.681834    12A     -0.674416
      13A     -0.642706    14A     -0.610006    15A     -0.606949
      16A     -0.537483    17A     -0.527971    18A     -0.497083
      19A     -0.472107    20A     -0.415609    21A     -0.381618

  @DF-RHF Final Energy:  -248.12486424252526

   => Energetics <=

    Nuclear Repulsion Energy =            194.5269248507422333
    One-Electron Energy =                -722.9554757798497349
    Two-Electron Energy =                 280.3036866865821821
    DFT Exchange-Correlation Energy =       0.0000000000000000
    Empirical Dispersion Energy =           0.0000000000000000
    PCM Polarization Energy =               0.0000000000000000
    EFP Energy =                            0.0000000000000000
    Total Energy =                       -248.1248642425252910
    Molecular point group: c1
  Basis Set: 6-31G*
  Basis Set:

  -Total Gradient:
     Atom            X                  Y                   Z
    ------   -----------------  -----------------  -----------------
       1       -0.000014549620     0.000002339313    -0.000005985012
       2        0.002221593610     0.000039026888     0.002342625939
       3       -0.002897461491     0.000837171559    -0.000867643173
       4       -0.001286318314    -0.000182700911    -0.001816265769
       5        0.000007871542    -0.000019228009     0.000043392236
       6        0.001972136924    -0.000682066269     0.000307214820
       7        0.000015350024    -0.000003575517     0.000002314153
       8       -0.000009777400     0.000000854535    -0.000012159451
       9       -0.000015387373    -0.000011808093    -0.000006033369
      10        0.000005807880     0.000014845935     0.000018379153
      11        0.000000478564     0.000005232779    -0.000003220317
      12       -0.000001299399     0.000000539656    -0.000001985595
      13        0.000005481783     0.000000086332     0.000001638298
      14       -0.000003926726    -0.000000718201    -0.000002271913

  **** Optimization is complete! (in 4 steps) ****
    Final optimized geometry and variables:
    Molecular point group: c1

    Geometry (in Angstrom), charge = 0, multiplicity = 1:

    H           -2.758230068361    -0.983409689410    -0.358240592569
    N           -1.834816891424    -0.827564088182    -0.002060954656
    C           -1.312374474604     0.439178586132    -0.487332423176
    H           -1.264839592918    -1.578282090922    -0.340672879468
    C           -0.005285145155     0.759906685203     0.208153798825
    H           -1.127729684009     0.452777299764    -1.562093119694
    H           -2.029564424724     1.221197824089    -0.260648472357
    O            0.937001178013    -0.199700580686    -0.175569797608
    H            0.338983486234     1.755269931052    -0.073724260740
    H           -0.149511616811     0.739442827718     1.285854424970
    C            2.166538192129    -0.085804904516     0.466304906571
    H            2.807448051797    -0.871345555842     0.089573417875
    H            2.633897567043     0.876314696904     0.263395559384
    H            2.064794454909    -0.199745402668     1.543531059769

  Mulliken Charges: (a.u.)
   Center  Symbol    Alpha    Beta     Spin     Total
       1     H     0.33313  0.33313  0.00000  0.33373
       2     N     3.92212  3.92212  0.00000 -0.84423
       3     C     3.07309  3.07309  0.00000 -0.14619
       4     H     0.32503  0.32503  0.00000  0.34994
       5     C     2.98597  2.98597  0.00000  0.02806
       6     H     0.42558  0.42558  0.00000  0.14885
       7     H     0.42046  0.42046  0.00000  0.15908
       8     O     4.30939  4.30939  0.00000 -0.61878
       9     H     0.43260  0.43260  0.00000  0.13481
      10     H     0.42309  0.42309  0.00000  0.15381
      11     C     3.07861  3.07861  0.00000 -0.15722
      12     H     0.41293  0.41293  0.00000  0.17414
      13     H     0.43052  0.43052  0.00000  0.13896
      14     H     0.42748  0.42748  0.00000  0.14505

   Total alpha = 21.00000, Total beta = 21.00000, Total charge =  0.00000
