  ==> Input File <==

--------------------------------------------------------------------------
set {
	reference rhf
	basis cc-pvtz
}

set_num_threads( 4 )
memory 2 gb

molecule MOL {
0 1

H	 1.195940	 -0.363589	 1.010310
C	 0.788096	 -0.429819	 0.000000
N	 -0.537714	 -0.645117	 0.000000
O	 1.478284	 -0.317739	 -0.963222
C	 -1.522613	 0.412524	 0.000000
H	 -0.845894	 -1.585866	 0.000000
H	 -2.150256	 0.356137	 -0.880771
H	 -1.005621	 1.357208	 0.000000
H	 -2.150256	 0.356137	 0.880771

	symmetry c1
}
set optking {
	frozen_dihedral = ("
		1 2 3 6
	")
}

ee = optimize('scf')
oeprop('DIPOLE', 'QUADRUPOLE', 'MULLIKEN_CHARGES')
f=open( 'psi4out.xyz', 'w' )
f.write( "9  " )
f.write( str(ee) + "\n" )
f.write( MOL.save_string_xyz() )
f.close()
--------------------------------------------------------------------------

    Molecular point group: c1
  Charge       = 0
  Multiplicity = 1
  Basis Set: CC-PVTZ
  Basis Set:
  @DF-RHF Final Energy:  -207.99957585355648
    Total Energy =                       -207.9995758535565074
    Molecular point group: c1
  Basis Set: CC-PVTZ
  Basis Set:
  Basis Set: CC-PVTZ
  Basis Set:
  @DF-RHF Final Energy:  -208.00355496748119
    Total Energy =                       -208.0035549674812501
  Basis Set: CC-PVTZ
  Basis Set:
  Basis Set: CC-PVTZ
  Basis Set:
  @DF-RHF Final Energy:  -208.00391644116115
    Total Energy =                       -208.0039164411613228
  Basis Set: CC-PVTZ
  Basis Set:
  Basis Set: CC-PVTZ
  Basis Set:
  @DF-RHF Final Energy:  -208.00503670665984
    Total Energy =                       -208.0050367066598085
  Basis Set: CC-PVTZ
  Basis Set:
  @DF-RHF Final Energy:  -208.00565204044420
    Total Energy =                       -208.0056520404442040
  @DF-RHF Final Energy:  -208.00618050479358
    Total Energy =                       -208.0061805047935479
  @DF-RHF Final Energy:  -208.00692757004316
    Total Energy =                       -208.0069275700432740
  @DF-RHF Final Energy:  -208.00862999334083
    Total Energy =                       -208.0086299933408327
  @DF-RHF Final Energy:  -208.00977230298847
    Total Energy =                       -208.0097723029885231
  @DF-RHF Final Energy:  -208.01071494525283
    Total Energy =                       -208.0107149452527437
  @DF-RHF Final Energy:  -208.01175505550421
    Total Energy =                       -208.0117550555042953
  @DF-RHF Final Energy:  -208.01433137527056
    Total Energy =                       -208.0143313752707570
  @DF-RHF Final Energy:  -208.01682634628952
    Total Energy =                       -208.0168263462894629
  @DF-RHF Final Energy:  -208.01797127623286
    Total Energy =                       -208.0179712762328563
  @DF-RHF Final Energy:  -208.01990132735096
    Total Energy =                       -208.0199013273510502
  @DF-RHF Final Energy:  -208.02065098277336
    Total Energy =                       -208.0206509827734180
  @DF-RHF Final Energy:  -208.02071544503499
    Total Energy =                       -208.0207154450350799
  @DF-RHF Final Energy:  -208.02070875350370
    Total Energy =                       -208.0207087535036123
  @DF-RHF Final Energy:  -208.02069568473667
    Total Energy =                       -208.0206956847366655
  @DF-RHF Final Energy:  -208.02070087781215
    Total Energy =                       -208.0207008778121462
  @DF-RHF Final Energy:  -208.02078960723108
    Total Energy =                       -208.0207896072311087
  @DF-RHF Final Energy:  -208.02083735883321
    Total Energy =                       -208.0208373588332336
  @DF-RHF Final Energy:  -208.02084537493334
    Total Energy =                       -208.0208453749333444
  @DF-RHF Final Energy:  -208.02084696551722
    Total Energy =                       -208.0208469655172223
  @DF-RHF Final Energy:  -208.02084790654536
    Total Energy =                       -208.0208479065452138
  @DF-RHF Final Energy:  -208.02084712550402
    Total Energy =                       -208.0208471255040763
  @DF-RHF Final Energy:  -208.02084604571581
    Total Energy =                       -208.0208460457159561
  @DF-RHF Final Energy:  -208.02026012106089
    Total Energy =                       -208.0202601210609146
  @DF-RHF Final Energy:  -208.01627129138973
    Total Energy =                       -208.0162712913897280
  @DF-RHF Final Energy:  -208.02082866567434
    Total Energy =                       -208.0208286656744576
  @DF-RHF Final Energy:  -208.02084564651435
    Total Energy =                       -208.0208456465143172
  @DF-RHF Final Energy:  -208.02084579449547
    Total Energy =                       -208.0208457944954148
  @DF-RHF Final Energy:  -208.02084521693018
    Total Energy =                       -208.0208452169301836
  @DF-RHF Final Energy:  -208.02034684341470
    Total Energy =                       -208.0203468434146146
  @DF-RHF Final Energy:  -208.02041669589170
    Total Energy =                       -208.0204166958916403
  @DF-RHF Final Energy:  -208.02084404664612
    Total Energy =                       -208.0208440466460331
  Basis Set: CC-PVTZ
  Basis Set:
  @DF-RHF Final Energy:  -208.02084364861491
    Total Energy =                       -208.0208436486149708
  Basis Set: CC-PVTZ
  Basis Set:
  Basis Set: CC-PVTZ
  Basis Set:
  @DF-RHF Final Energy:  -208.02084321851129
    Total Energy =                       -208.0208432185113736
  Basis Set: CC-PVTZ
  Basis Set:
  Basis Set: CC-PVTZ
  Basis Set:
  @DF-RHF Final Energy:  -208.02083848490372
    Total Energy =                       -208.0208384849036065
  Basis Set: CC-PVTZ
  Basis Set:
  Charge       = 0
  Multiplicity = 1
  Basis Set: CC-PVTZ
  Basis Set:

    Orbital Energies (a.u.)
    -----------------------

    Doubly Occupied:

       1A    -20.552720     2A    -15.571551     3A    -11.347306
       4A    -11.249881     5A     -1.421867     6A     -1.224622
       7A     -0.947715     8A     -0.811902     9A     -0.722790
      10A     -0.664621    11A     -0.645887    12A     -0.573058
      13A     -0.546874    14A     -0.532387    15A     -0.444041
      16A     -0.415786

  @DF-RHF Final Energy:  -208.02084429338805

   => Energetics <=

    Nuclear Repulsion Energy =            122.6020528241437120
    One-Electron Energy =                -525.8997799757972871
    Two-Electron Energy =                 195.2768828582655374
    DFT Exchange-Correlation Energy =       0.0000000000000000
    Empirical Dispersion Energy =           0.0000000000000000
    PCM Polarization Energy =               0.0000000000000000
    EFP Energy =                            0.0000000000000000
    Total Energy =                       -208.0208442933880519
    Molecular point group: c1
  Basis Set: CC-PVTZ
  Basis Set:

  -Total Gradient:
     Atom            X                  Y                   Z
    ------   -----------------  -----------------  -----------------
       1        0.002022335698     0.015932675052     0.004289906289
       2       -0.005281841851    -0.023080604351    -0.013072015177
       3        0.007574452638     0.000897027932     0.017340666059
       4        0.001268955577     0.002385324605     0.002586530359
       5        0.000995474480    -0.002580850743    -0.004305010513
       6       -0.005961689729     0.003747241545    -0.010432108685
       7        0.000878352011     0.001306629378     0.000862258218
       8       -0.001795794006    -0.000307607304     0.001550974320
       9        0.000299755185     0.001700163887     0.001178799128

    Molecular point group: c1

    Geometry (in Angstrom), charge = 0, multiplicity = 1:

    H            1.629442791296    -0.621413939981     0.808240926245
    C            0.825864689833    -0.352049737771     0.120846124176
    N           -0.446380514785    -0.390283129163     0.716913900841
    O            1.078425789794     0.145175293627    -0.918931375046
    C           -1.394310561646     0.567624998177     0.141798085825
    H           -0.843602814039    -1.303441318862     0.611625146597
    H           -1.429635029038     0.550672150105    -0.937415546995
    H           -1.127763272078     1.565512530571     0.462851349263
    H           -2.373286717481     0.360546123502     0.550493435180

  Mulliken Charges: (a.u.)
   Center  Symbol    Alpha    Beta     Spin     Total
       1     H     0.45172  0.45172  0.00000  0.09656
       2     C     2.88295  2.88295  0.00000  0.23409
       3     N     3.61950  3.61950  0.00000 -0.23900
       4     O     4.17337  4.17337  0.00000 -0.34674
       5     C     3.08224  3.08224  0.00000 -0.16448
       6     H     0.43398  0.43398  0.00000  0.13203
       7     H     0.45159  0.45159  0.00000  0.09683
       8     H     0.45064  0.45064  0.00000  0.09871
       9     H     0.45400  0.45400  0.00000  0.09200

   Total alpha = 16.00000, Total beta = 16.00000, Total charge = -0.00000
