  ==> Input File <==

--------------------------------------------------------------------------
set {
	reference rhf
	basis 6-31G*
}

set_num_threads( 4 )
memory 2 gb

molecule MOL {
0 1

O	 -0.973332	 -1.361380	 0.361649
C	 -0.663454	 -0.218554	 0.155184
C	 -1.722292	 0.868144	 0.149229
N	 0.623947	 0.147590	 -0.102813
H	 -1.762409	 1.378780	 -0.806660
H	 -2.673108	 0.393053	 0.337065
H	 -1.537478	 1.609391	 0.919280
C	 1.665360	 -0.855771	 0.000151
C	 1.085436	 1.518088	 -0.134560
H	 2.465253	 -0.618490	 -0.692587
H	 1.257730	 -1.821716	 -0.242189
H	 2.081488	 -0.891645	 1.004627
H	 1.899455	 1.601472	 -0.844813
H	 0.305792	 2.192332	 -0.451553
H	 1.452629	 1.845753	 0.836326

	symmetry c1
}
set optking {
	frozen_dihedral = ("
		2 4 8 10
	")
}

ee = optimize('scf')
oeprop('DIPOLE', 'QUADRUPOLE', 'MULLIKEN_CHARGES')
f=open( 'psi4out.xyz', 'w' )
f.write( "15  " )
f.write( str(ee) + "\n" )
f.write( MOL.save_string_xyz() )
f.close()
--------------------------------------------------------------------------

    Molecular point group: c1
  Charge       = 0
  Multiplicity = 1
  Basis Set: 6-31G*
  Basis Set:
  @DF-RHF Final Energy:  -286.02972658840395
    Total Energy =                       -286.0297265884038325
    Molecular point group: c1
  Basis Set: 6-31G*
  Basis Set:
  Basis Set: 6-31G*
  Basis Set:
  @DF-RHF Final Energy:  -286.02976514120974
    Total Energy =                       -286.0297651412098503
  Basis Set: 6-31G*
  Basis Set:
  Basis Set: 6-31G*
  Basis Set:
  @DF-RHF Final Energy:  -286.02975495458259
    Total Energy =                       -286.0297549545825859
  Basis Set: 6-31G*
  Basis Set:
  Basis Set: 6-31G*
  Basis Set:
  @DF-RHF Final Energy:  -286.02978728485539
    Total Energy =                       -286.0297872848556153
  Basis Set: 6-31G*
  Basis Set:
  Basis Set: 6-31G*
  Basis Set:
  @DF-RHF Final Energy:  -286.02978967888117
    Total Energy =                       -286.0297896788813432
  Basis Set: 6-31G*
  Basis Set:
  Charge       = 0
  Multiplicity = 1
  Basis Set: 6-31G*
  Basis Set:

    Orbital Energies (a.u.)
    -----------------------

    Doubly Occupied:

       1A    -20.514866     2A    -15.583679     3A    -11.341337
       4A    -11.266382     5A    -11.247877     6A    -11.228396
       7A     -1.384683     8A     -1.243426     9A     -1.014155
      10A     -0.972663    11A     -0.918761    12A     -0.737733
      13A     -0.680905    14A     -0.658977    15A     -0.651352
      16A     -0.589177    17A     -0.576325    18A     -0.568070
      19A     -0.561820    20A     -0.546484    21A     -0.529693
      22A     -0.502819    23A     -0.410686    24A     -0.366972

  @DF-RHF Final Energy:  -286.02979058900326

   => Energetics <=

    Nuclear Repulsion Energy =            252.4560718271292217
    One-Electron Energy =                -888.7772442447381991
    Two-Electron Energy =                 350.2913818286057221
    DFT Exchange-Correlation Energy =       0.0000000000000000
    Empirical Dispersion Energy =           0.0000000000000000
    PCM Polarization Energy =               0.0000000000000000
    EFP Energy =                            0.0000000000000000
    Total Energy =                       -286.0297905890032553
    Molecular point group: c1
  Basis Set: 6-31G*
  Basis Set:

  -Total Gradient:
     Atom            X                  Y                   Z
    ------   -----------------  -----------------  -----------------
       1        0.000037241567    -0.000024523145     0.000010890103
       2       -0.000013712474     0.000060598388     0.000133676215
       3        0.000019179434     0.000022263078     0.000014313290
       4       -0.000031709071    -0.000056046890    -0.000160567153
       5        0.000009551895     0.000021000265    -0.000014504038
       6        0.000028341608    -0.000012738431    -0.000000309257
       7       -0.000013464974     0.000012079385    -0.000004462726
       8       -0.000085692144    -0.000125230693    -0.000086296976
       9       -0.000036777839    -0.000046167976    -0.000012465526
      10        0.000096137433     0.000121574958     0.000125607966
      11       -0.000007690397     0.000005956292    -0.000007094618
      12       -0.000014359242     0.000013435913     0.000003997351
      13        0.000013055116     0.000011206056    -0.000012692979
      14       -0.000009274406     0.000011719408     0.000015437288
      15        0.000009173494    -0.000015126610    -0.000005528940

  **** Optimization is complete! (in 6 steps) ****
    Final optimized geometry and variables:
    Molecular point group: c1

    Geometry (in Angstrom), charge = 0, multiplicity = 1:

    O           -0.974740159768    -1.378210482836     0.309602116755
    C           -0.673856867579    -0.237122184409     0.082438654238
    C           -1.737302282448     0.844743524124     0.070087478789
    N            0.609984976873     0.128072502284    -0.197002700441
    H           -1.771626373988     1.359417632249    -0.883779531189
    H           -2.687535640208     0.365246648048     0.249605627202
    H           -1.561587743580     1.583364017704     0.844962206954
    C            1.646298938123    -0.879793641285    -0.079049764066
    C            1.071872926898     1.499171677872    -0.205536982868
    H            2.438989881076    -0.659569672693    -0.784528824454
    H            1.232846064186    -1.849582226728    -0.296739952510
    H            2.072633416487    -0.899334136262     0.921567414951
    H            1.887875436845     1.594326413587    -0.911679508718
    H            0.292322653056     2.177125068772    -0.514938239199
    H            1.435023264911     1.813051185509     0.771568170751

  Mulliken Charges: (a.u.)
   Center  Symbol    Alpha    Beta     Spin     Total
       1     O     4.30391  4.30391  0.00000 -0.60781
       2     C     2.62433  2.62433  0.00000  0.75134
       3     C     3.29856  3.29856  0.00000 -0.59711
       4     N     3.82295  3.82295  0.00000 -0.64589
       5     H     0.40656  0.40656  0.00000  0.18688
       6     H     0.39052  0.39052  0.00000  0.21895
       7     H     0.40763  0.40763  0.00000  0.18475
       8     C     3.14325  3.14325  0.00000 -0.28651
       9     C     3.14227  3.14227  0.00000 -0.28453
      10     H     0.41906  0.41906  0.00000  0.16188
      11     H     0.38728  0.38728  0.00000  0.22543
      12     H     0.41916  0.41916  0.00000  0.16168
      13     H     0.41039  0.41039  0.00000  0.17921
      14     H     0.40720  0.40720  0.00000  0.18561
      15     H     0.41694  0.41694  0.00000  0.16612

   Total alpha = 24.00000, Total beta = 24.00000, Total charge =  0.00000
