  ==> Input File <==

--------------------------------------------------------------------------
set {
	reference rhf
	basis 6-31G*
}

set_num_threads( 1 )
memory 2 gb

molecule MOL {
0 1

O	 -2.042549	 -1.228399	 -0.269030
C	 -1.653912	 -0.146171	 0.050137
C	 -0.332303	 0.024011	 0.778412
C	 -2.438579	 1.106236	 -0.272369
C	 0.845713	 -0.001731	 -0.208243
H	 -0.323783	 0.953829	 1.340327
H	 -0.235459	 -0.796807	 1.480410
C	 0.481058	 0.577402	 -1.575965
H	 1.197894	 -1.024065	 -0.334268
H	 1.669456	 0.560369	 0.221446
C	 1.653173	 0.561286	 -2.556318
H	 -0.350363	 0.015833	 -1.996447
H	 0.128811	 1.598452	 -1.449682
H	 2.006377	 -0.451264	 -2.729645
H	 2.488680	 1.142394	 -2.177261
H	 1.366652	 0.980163	 -3.515732
H	 -3.277823	 0.863061	 -0.908988
H	 -1.806773	 1.843019	 -0.759671
H	 -2.802853	 1.554979	 0.648059

	symmetry c1
}
set optking {
	frozen_dihedral = ("
		11 8 5 9,
		5 3 2 4
	")
}

ee = energy('scf')
oeprop('DIPOLE', 'QUADRUPOLE', 'MULLIKEN_CHARGES')
f=open( 'psi4out.xyz', 'w' )
f.write( "19  " )
f.write( str(ee) + "\n" )
f.write( MOL.save_string_xyz() )
f.close()
--------------------------------------------------------------------------

    Molecular point group: c1

    Geometry (in Angstrom), charge = 0, multiplicity = 1:

       Center              X                  Y                   Z               Mass
    ------------   -----------------  -----------------  -----------------  -----------------
           O         -1.543519163630    -1.359291496013     0.330201653066    15.994914619560
           C         -1.154882163630    -0.277063496013     0.649368653066    12.000000000000
           C          0.166726836370    -0.106881496013     1.377643653066    12.000000000000
           C         -1.939549163630     0.975343503987     0.326862653066    12.000000000000
           C          1.344742836370    -0.132623496013     0.390988653066    12.000000000000
           H          0.175246836370     0.822936503987     1.939558653066     1.007825032070
           H          0.263570836370    -0.927699496013     2.079641653066     1.007825032070
           C          0.980087836370     0.446509503987    -0.976733346934    12.000000000000
           H          1.696923836370    -1.154957496013     0.264963653066     1.007825032070
           H          2.168485836370     0.429476503987     0.820677653066     1.007825032070
           C          2.152202836370     0.430393503987    -1.957086346934    12.000000000000
           H          0.148666836370    -0.115059496013    -1.397215346934     1.007825032070
           H          0.627840836370     1.467559503987    -0.850450346934     1.007825032070
           H          2.505406836370    -0.582156496013    -2.130413346934     1.007825032070
           H          2.987709836370     1.011501503987    -1.578029346934     1.007825032070
           H          1.865681836370     0.849270503987    -2.916500346934     1.007825032070
           H         -2.778793163630     0.732168503987    -0.309756346934     1.007825032070
           H         -1.307743163630     1.712126503987    -0.160439346934     1.007825032070
           H         -2.303823163630     1.424086503987     1.247290653066     1.007825032070

  Charge       = 0
  Multiplicity = 1
  Basis Set: 6-31G*
  Basis Set:

    Orbital Energies (a.u.)
    -----------------------

    Doubly Occupied:

       1A    -20.546368     2A    -11.324313     3A    -11.229886
       4A    -11.228460     5A    -11.226430     6A    -11.224171
       7A    -11.214623     8A     -1.393200     9A     -1.094558
      10A     -1.024246    11A     -0.985885    12A     -0.889702
      13A     -0.814446    14A     -0.726440    15A     -0.663140
      16A     -0.636761    17A     -0.628009    18A     -0.619086
      19A     -0.577858    20A     -0.572781    21A     -0.564229
      22A     -0.536434    23A     -0.514417    24A     -0.497647
      25A     -0.486160    26A     -0.468070    27A     -0.461762
      28A     -0.396917

  @DF-RHF Final Energy:  -309.05629947121093

   => Energetics <=

    Nuclear Repulsion Energy =            313.3301591199067957
    One-Electron Energy =               -1039.6808029789531247
    Two-Electron Energy =                 417.2943443878354515
    DFT Exchange-Correlation Energy =       0.0000000000000000
    Empirical Dispersion Energy =           0.0000000000000000
    PCM Polarization Energy =               0.0000000000000000
    EFP Energy =                            0.0000000000000000
    Total Energy =                       -309.0562994712109344

  Mulliken Charges: (a.u.)
   Center  Symbol    Alpha    Beta     Spin     Total
       1     O     4.26283  4.26283  0.00000 -0.52566
       2     C     2.74431  2.74431  0.00000  0.51139
       3     C     3.20054  3.20054  0.00000 -0.40107
       4     C     3.28827  3.28827  0.00000 -0.57655
       5     C     3.15030  3.15030  0.00000 -0.30060
       6     H     0.41608  0.41608  0.00000  0.16784
       7     H     0.39903  0.39903  0.00000  0.20194
       8     C     3.17301  3.17301  0.00000 -0.34601
       9     H     0.41025  0.41025  0.00000  0.17950
      10     H     0.41669  0.41669  0.00000  0.16662
      11     C     3.23797  3.23797  0.00000 -0.47594
      12     H     0.40788  0.40788  0.00000  0.18425
      13     H     0.42329  0.42329  0.00000  0.15342
      14     H     0.41823  0.41823  0.00000  0.16354
      15     H     0.42146  0.42146  0.00000  0.15708
      16     H     0.41745  0.41745  0.00000  0.16510
      17     H     0.39784  0.39784  0.00000  0.20431
      18     H     0.40701  0.40701  0.00000  0.18597
      19     H     0.40757  0.40757  0.00000  0.18487

   Total alpha = 28.00000, Total beta = 28.00000, Total charge =  0.00000
