  ==> Input File <==

--------------------------------------------------------------------------
set {
	reference rhf
	basis cc-pvtz
}

set_num_threads( 4 )
memory 2 gb

molecule MOL {
0 1

O	 -0.694481	 1.313155	 -0.204815
C	 -0.862519	 0.151932	 -0.046791
C	 -2.171428	 -0.477048	 0.339095
O	 0.085519	 -0.757083	 -0.192238
H	 -2.467997	 -1.191667	 -0.417688
H	 -2.923379	 0.287970	 0.444097
H	 -2.053854	 -1.015120	 1.270901
C	 1.392036	 -0.330828	 -0.560749
C	 2.328036	 -1.504443	 -0.761825
H	 1.770762	 0.344317	 0.190624
H	 1.252524	 0.212294	 -1.483411
H	 3.291666	 -1.145679	 -1.105568
H	 2.476675	 -2.043307	 0.163872
H	 1.933193	 -2.185657	 -1.505894

	symmetry c1
}
set optking {
	frozen_dihedral = ("
		10 8 4 2
	")
}

ee = optimize('scf')
oeprop('DIPOLE', 'QUADRUPOLE', 'MULLIKEN_CHARGES')
f=open( 'psi4out.xyz', 'w' )
f.write( "14  " )
f.write( str(ee) + "\n" )
f.write( MOL.save_string_xyz() )
f.close()
--------------------------------------------------------------------------

    Molecular point group: c1
  Charge       = 0
  Multiplicity = 1
  Basis Set: CC-PVTZ
  Basis Set:
  @DF-RHF Final Energy:  -305.99059944309829
    Total Energy =                       -305.9905994430982901
    Molecular point group: c1
  Basis Set: CC-PVTZ
  Basis Set:
  Basis Set: CC-PVTZ
  Basis Set:
  @DF-RHF Final Energy:  -305.99189096522286
    Total Energy =                       -305.9918909652229786
  Basis Set: CC-PVTZ
  Basis Set:
  Basis Set: CC-PVTZ
  Basis Set:
  @DF-RHF Final Energy:  -305.99215792489565
    Total Energy =                       -305.9921579248957642
  Basis Set: CC-PVTZ
  Basis Set:
  Basis Set: CC-PVTZ
  Basis Set:
  @DF-RHF Final Energy:  -305.99157089397431
    Total Energy =                       -305.9915708939743695
  Basis Set: CC-PVTZ
  Basis Set:
  Basis Set: CC-PVTZ
  Basis Set:
  @DF-RHF Final Energy:  -305.99218008088258
    Total Energy =                       -305.9921800808823491
  Basis Set: CC-PVTZ
  Basis Set:
  Basis Set: CC-PVTZ
  Basis Set:
  @DF-RHF Final Energy:  -305.99218226601761
    Total Energy =                       -305.9921822660173802
  Basis Set: CC-PVTZ
  Basis Set:
  Charge       = 0
  Multiplicity = 1
  Basis Set: CC-PVTZ
  Basis Set:

    Orbital Energies (a.u.)
    -----------------------

    Doubly Occupied:

       1A    -20.595019     2A    -20.533124     3A    -11.367026
       4A    -11.283352     5A    -11.231823     6A    -11.220965
       7A     -1.471676     8A     -1.365710     9A     -1.059010
      10A     -1.001201    11A     -0.871926    12A     -0.782468
      13A     -0.692223    14A     -0.691803    15A     -0.669891
      16A     -0.612293    17A     -0.581553    18A     -0.565239
      19A     -0.553533    20A     -0.541877    21A     -0.508881
      22A     -0.505566    23A     -0.457232    24A     -0.442610

  @DF-RHF Final Energy:  -305.99218254256721

   => Energetics <=

    Nuclear Repulsion Energy =            246.1010689408932137
    One-Electron Energy =                -904.9744999624399497
    Two-Electron Energy =                 352.8812484789789323
    DFT Exchange-Correlation Energy =       0.0000000000000000
    Empirical Dispersion Energy =           0.0000000000000000
    PCM Polarization Energy =               0.0000000000000000
    EFP Energy =                            0.0000000000000000
    Total Energy =                       -305.9921825425677753
    Molecular point group: c1
  Basis Set: CC-PVTZ
  Basis Set:

  -Total Gradient:
     Atom            X                  Y                   Z
    ------   -----------------  -----------------  -----------------
       1        0.000011536376     0.000012601826    -0.000000648548
       2       -0.000026469027    -0.000042843259    -0.000103002548
       3       -0.000007647080    -0.000001861760    -0.000007333648
       4        0.000053468827     0.000011943993     0.000156558276
       5       -0.000000155926    -0.000002447632     0.000003820628
       6        0.000004468407     0.000000640296    -0.000000562034
       7       -0.000001064691     0.000000039629     0.000004362945
       8       -0.000073488475     0.000100821025    -0.000111773001
       9       -0.000011886107     0.000017892997     0.000004064071
      10        0.000059141573    -0.000097140297     0.000062289107
      11        0.000000756008    -0.000005533551    -0.000003860646
      12       -0.000002569604     0.000001022043     0.000000068547
      13       -0.000001946844     0.000006011781     0.000001539696
      14       -0.000004143442    -0.000001147095    -0.000005522845

  **** Optimization is complete! (in 7 steps) ****
    Final optimized geometry and variables:
    Molecular point group: c1

    Geometry (in Angstrom), charge = 0, multiplicity = 1:

    O           -0.710318324807     1.575244056839     0.044435386124
    C           -0.874048975401     0.412746393127     0.195310110320
    C           -2.174314316952    -0.225485876806     0.594160338631
    O            0.079419908323    -0.486843756900     0.030599856425
    H           -2.479159695570    -0.934096434565    -0.165043189421
    H           -2.927763126118     0.535380907880     0.716775631562
    H           -2.041630895660    -0.771696596045     1.519148904590
    C            1.367666304419    -0.023883230029    -0.350975867003
    C            2.264964001931    -1.229758908535    -0.502808171393
    H            1.737553314684     0.652483274436     0.406758332565
    H            1.284516294416     0.528681859909    -1.275978792944
    H            3.259171844404    -0.911092147820    -0.792918877386
    H            2.338659849040    -1.775771630462     0.429272969495
    H            1.884700874913    -1.900368538527    -1.263107837895

  Mulliken Charges: (a.u.)
   Center  Symbol    Alpha    Beta     Spin     Total
       1     O     4.19711  4.19711  0.00000 -0.39423
       2     C     2.80789  2.80789  0.00000  0.38421
       3     C     3.13776  3.13776  0.00000 -0.27552
       4     O     4.15210  4.15210  0.00000 -0.30421
       5     H     0.44588  0.44588  0.00000  0.10824
       6     H     0.43802  0.43802  0.00000  0.12397
       7     H     0.44585  0.44585  0.00000  0.10831
       8     C     2.97760  2.97760  0.00000  0.04480
       9     C     3.13291  3.13291  0.00000 -0.26583
      10     H     0.45402  0.45402  0.00000  0.09196
      11     H     0.45352  0.45352  0.00000  0.09297
      12     H     0.45440  0.45440  0.00000  0.09121
      13     H     0.45145  0.45145  0.00000  0.09709
      14     H     0.45148  0.45148  0.00000  0.09704

   Total alpha = 24.00000, Total beta = 24.00000, Total charge = -0.00000
