  ==> Input File <==

--------------------------------------------------------------------------
set {
	reference rhf
	basis 6-31G*
}

set_num_threads( 4 )
memory 2 gb

molecule MOL {
0 1

H	 3.893188	 0.355400	 -0.101367
N	 3.092854	 -0.246221	 -0.068770
C	 1.865559	 0.531981	 0.018834
H	 3.199514	 -0.826043	 0.741946
C	 0.645745	 -0.382037	 -0.029944
H	 1.841966	 1.207024	 -0.831236
H	 1.815756	 1.155410	 0.915079
C	 -0.679275	 0.379305	 0.025956
H	 0.698998	 -0.976915	 -0.937203
H	 0.693479	 -1.083846	 0.802235
C	 -1.392228	 0.250032	 1.373309
H	 -1.337258	 0.016664	 -0.762333
H	 -0.503418	 1.432984	 -0.185425
C	 -2.717737	 1.009003	 1.423295
H	 -1.570154	 -0.801782	 1.586012
H	 -0.738091	 0.614101	 2.162749
H	 -3.407111	 0.644230	 0.666974
H	 -3.198966	 0.897744	 2.390065
H	 -2.568637	 2.070879	 1.248424

	symmetry c1
}
set optking {
	frozen_dihedral = ("
		12 8 5 9
	")
}

ee = optimize('scf')
oeprop('DIPOLE', 'QUADRUPOLE', 'MULLIKEN_CHARGES')
f=open( 'psi4out.xyz', 'w' )
f.write( "19  " )
f.write( str(ee) + "\n" )
f.write( MOL.save_string_xyz() )
f.close()
--------------------------------------------------------------------------

    Molecular point group: c1
  Charge       = 0
  Multiplicity = 1
  Basis Set: 6-31G*
  Basis Set:
  @DF-RHF Final Energy:  -251.34699711139183
    Total Energy =                       -251.3469971113917154
    Molecular point group: c1
  Basis Set: 6-31G*
  Basis Set:
  Basis Set: 6-31G*
  Basis Set:
  @DF-RHF Final Energy:  -251.34724757316033
    Total Energy =                       -251.3472475731604163
  Basis Set: 6-31G*
  Basis Set:
  Basis Set: 6-31G*
  Basis Set:
  @DF-RHF Final Energy:  -251.34733250063042
    Total Energy =                       -251.3473325006302730
  Basis Set: 6-31G*
  Basis Set:
  Charge       = 0
  Multiplicity = 1
  Basis Set: 6-31G*
  Basis Set:

    Orbital Energies (a.u.)
    -----------------------

    Doubly Occupied:

       1A    -15.532586     2A    -11.240325     3A    -11.215267
       4A    -11.212647     5A    -11.209165     6A    -11.208110
       7A     -1.176881     8A     -1.071917     9A     -0.997163
      10A     -0.900094    11A     -0.819314    12A     -0.787078
      13A     -0.660708    14A     -0.637189    15A     -0.619587
      16A     -0.592139    17A     -0.564850    18A     -0.549078
      19A     -0.532448    20A     -0.495260    21A     -0.485622
      22A     -0.465428    23A     -0.456413    24A     -0.448413
      25A     -0.380964

  @DF-RHF Final Energy:  -251.34733286166878

   => Energetics <=

    Nuclear Repulsion Energy =            247.2985662288965898
    One-Electron Energy =                -828.7745055667876386
    Two-Electron Energy =                 330.1286064762221031
    DFT Exchange-Correlation Energy =       0.0000000000000000
    Empirical Dispersion Energy =           0.0000000000000000
    PCM Polarization Energy =               0.0000000000000000
    EFP Energy =                            0.0000000000000000
    Total Energy =                       -251.3473328616689741
    Molecular point group: c1
  Basis Set: 6-31G*
  Basis Set:

  -Total Gradient:
     Atom            X                  Y                   Z
    ------   -----------------  -----------------  -----------------
       1        0.000033021597    -0.000004428852    -0.000001489842
       2        0.000007254023    -0.000025300178    -0.000023556015
       3       -0.000013871450     0.000102244286     0.000003159768
       4        0.000001123046    -0.000005786376     0.000011506643
       5        0.001421909368     0.002742073563    -0.001693770865
       6       -0.000003953937     0.000027113545     0.000001588659
       7       -0.000007258102    -0.000022221101    -0.000012044910
       8       -0.001293183194    -0.002491056682     0.002061754238
       9       -0.001001147031    -0.001820488405     0.001151427506
      10       -0.000037567193    -0.000019581757     0.000000308916
      11       -0.000039073120    -0.000153271938     0.000024745645
      12        0.000852274923     0.001604506736    -0.001422119272
      13        0.000022085560     0.000019001613    -0.000059299188
      14        0.000074867781     0.000087274617    -0.000026551813
      15       -0.000030044560    -0.000016289830    -0.000010625191
      16        0.000003039124    -0.000034222073    -0.000010565671
      17        0.000009536490    -0.000018842045     0.000019364705
      18        0.000028897257     0.000014370047     0.000009744380
      19       -0.000027910585     0.000014904829    -0.000023577694

  **** Optimization is complete! (in 4 steps) ****
    Final optimized geometry and variables:
    Molecular point group: c1

    Geometry (in Angstrom), charge = 0, multiplicity = 1:

    H            3.719472509536     0.126806389180    -0.513756059804
    N            2.926352728608    -0.484842765769    -0.494425551558
    C            1.686818232832     0.275797926743    -0.453370120027
    H            3.017992769813    -1.053301067248     0.326107648802
    C            0.481123278490    -0.655149311615    -0.529520332072
    H            1.678196333147     0.941513676245    -1.310979017503
    H            1.598723425781     0.908524337991     0.433917750494
    C           -0.868600388438     0.086622399221    -0.456193473620
    H            0.552125074933    -1.245823282569    -1.436417150004
    H            0.542964291391    -1.372494602041     0.288025215920
    C           -1.564806010792    -0.026859838372     0.901622056543
    H           -1.533179980667    -0.274167063511    -1.236745034219
    H           -0.713047193501     1.140898753746    -0.681761160934
    C           -2.864580997207     0.772500842791     0.976272145464
    H           -1.771235646172    -1.074141961512     1.111180088713
    H           -0.886864887792     0.311768318978     1.682897355904
    H           -3.575490304457     0.434193604764     0.227597502969
    H           -3.335262556629     0.669689113635     1.949221653172
    H           -2.685243529189     1.830363178747     0.805594217051

  Mulliken Charges: (a.u.)
   Center  Symbol    Alpha    Beta     Spin     Total
       1     H     0.33238  0.33238  0.00000  0.33523
       2     N     3.92224  3.92224  0.00000 -0.84449
       3     C     3.06219  3.06219  0.00000 -0.12439
       4     H     0.33513  0.33513  0.00000  0.32974
       5     C     3.15413  3.15413  0.00000 -0.30827
       6     H     0.42019  0.42019  0.00000  0.15962
       7     H     0.43469  0.43469  0.00000  0.13063
       8     C     3.15903  3.15903  0.00000 -0.31805
       9     H     0.41060  0.41060  0.00000  0.17880
      10     H     0.42581  0.42581  0.00000  0.14839
      11     C     3.15214  3.15214  0.00000 -0.30427
      12     H     0.41928  0.41928  0.00000  0.16144
      13     H     0.42325  0.42325  0.00000  0.15351
      14     C     3.23988  3.23988  0.00000 -0.47977
      15     H     0.42207  0.42207  0.00000  0.15585
      16     H     0.42416  0.42416  0.00000  0.15167
      17     H     0.42140  0.42140  0.00000  0.15719
      18     H     0.41953  0.41953  0.00000  0.16093
      19     H     0.42189  0.42189  0.00000  0.15622

   Total alpha = 25.00000, Total beta = 25.00000, Total charge =  0.00000
