  ==> Input File <==

--------------------------------------------------------------------------
set {
	reference rhf
	basis 6-31G*
}

set_num_threads( 1 )
memory 2 gb

molecule MOL {
0 1

H	 0.871472	 0.849136	 -3.856591
O	 1.755115	 0.532415	 -3.974639
C	 2.439986	 0.571604	 -2.748479
C	 1.984249	 -0.505869	 -1.770685
H	 3.485120	 0.427219	 -2.990392
H	 2.347137	 1.556124	 -2.291445
C	 0.526734	 -0.365448	 -1.324815
H	 2.131914	 -1.477521	 -2.234855
H	 2.634493	 -0.468925	 -0.898226
C	 0.115918	 -1.429151	 -0.302766
H	 -0.120607	 -0.429246	 -2.195013
H	 0.374121	 0.623396	 -0.892105
C	 -1.309753	 -1.282496	 0.241564
H	 0.231716	 -2.416096	 -0.747039
H	 0.809666	 -1.390841	 0.534460
C	 -2.037799	 -0.007733	 -0.193645
H	 -1.890610	 -2.142323	 -0.085726
H	 -1.285946	 -1.330893	 1.329189
C	 -3.489788	 0.042957	 0.286558
H	 -2.017067	 0.064384	 -1.280144
H	 -1.513726	 0.868678	 0.179924
C	 -4.216917	 1.317354	 -0.141063
H	 -4.025645	 -0.823308	 -0.095450
H	 -3.513059	 -0.038752	 1.371301
H	 -4.239342	 1.411634	 -1.223113
H	 -5.243387	 1.322503	 0.212445
H	 -3.726170	 2.201406	 0.256408

	symmetry c1
}
set optking {
	frozen_dihedral = ("
		14 10 7 4,
		10 7 4 8,
		8 4 3 2,
		10 13 16 20,
		20 16 19 22,
		4 3 2 1
	")
}

ee = energy('scf')
oeprop('DIPOLE', 'QUADRUPOLE', 'MULLIKEN_CHARGES')
f=open( 'psi4out.xyz', 'w' )
f.write( "27  " )
f.write( str(ee) + "\n" )
f.write( MOL.save_string_xyz() )
f.close()
--------------------------------------------------------------------------

    Molecular point group: c1

    Geometry (in Angstrom), charge = 0, multiplicity = 1:

       Center              X                  Y                   Z               Mass
    ------------   -----------------  -----------------  -----------------  -----------------
           H          1.321620308069     0.945898139929    -2.703664300252     1.007825032070
           O          2.205263308069     0.629177139929    -2.821712300252    15.994914619560
           C          2.890134308069     0.668366139929    -1.595552300252    12.000000000000
           C          2.434397308069    -0.409106860071    -0.617758300252    12.000000000000
           H          3.935268308069     0.523981139929    -1.837465300252     1.007825032070
           H          2.797285308069     1.652886139929    -1.138518300252     1.007825032070
           C          0.976882308069    -0.268685860071    -0.171888300252    12.000000000000
           H          2.582062308069    -1.380758860071    -1.081928300252     1.007825032070
           H          3.084641308069    -0.372162860071     0.254700699748     1.007825032070
           C          0.566066308069    -1.332388860071     0.850160699748    12.000000000000
           H          0.329541308069    -0.332483860071    -1.042086300252     1.007825032070
           H          0.824269308069     0.720158139929     0.260821699748     1.007825032070
           C         -0.859604691931    -1.185733860071     1.394490699748    12.000000000000
           H          0.681864308069    -2.319333860071     0.405887699748     1.007825032070
           H          1.259814308069    -1.294078860071     1.687386699748     1.007825032070
           C         -1.587650691931     0.089029139929     0.959281699748    12.000000000000
           H         -1.440461691931    -2.045560860071     1.067200699748     1.007825032070
           H         -0.835797691931    -1.234130860071     2.482115699748     1.007825032070
           C         -3.039639691931     0.139719139929     1.439484699748    12.000000000000
           H         -1.566918691931     0.161146139929    -0.127217300252     1.007825032070
           H         -1.063577691931     0.965440139929     1.332850699748     1.007825032070
           C         -3.766768691931     1.414116139929     1.011863699748    12.000000000000
           H         -3.575496691931    -0.726545860071     1.057476699748     1.007825032070
           H         -3.062910691931     0.058010139929     2.524227699748     1.007825032070
           H         -3.789193691931     1.508396139929    -0.070186300252     1.007825032070
           H         -4.793238691931     1.419265139929     1.365371699748     1.007825032070
           H         -3.276021691931     2.298168139929     1.409334699748     1.007825032070

  Charge       = 0
  Multiplicity = 1
  Basis Set: 6-31G*
  Basis Set:

    Orbital Energies (a.u.)
    -----------------------

    Doubly Occupied:

       1A    -20.552013     2A    -11.266628     3A    -11.218948
       4A    -11.215988     5A    -11.215932     6A    -11.214909
       7A    -11.214238     8A    -11.214225     9A    -11.210067
      10A     -1.358739    11A     -1.097209    12A     -1.059913
      13A     -1.011389    14A     -0.946154    15A     -0.892473
      16A     -0.819585    17A     -0.810442    18A     -0.765005
      19A     -0.693632    20A     -0.660457    21A     -0.632381
      22A     -0.612642    23A     -0.605851    24A     -0.585064
      25A     -0.575488    26A     -0.552597    27A     -0.544566
      28A     -0.530080    29A     -0.506432    30A     -0.498293
      31A     -0.490055    32A     -0.476118    33A     -0.464078
      34A     -0.454765    35A     -0.445355    36A     -0.442188
      37A     -0.422974

  @DF-RHF Final Energy:  -388.27149148258468

   => Energetics <=

    Nuclear Repulsion Energy =            465.1635318842947981
    One-Electron Energy =               -1448.3163868568460657
    Two-Electron Energy =                 594.8813634899669296
    DFT Exchange-Correlation Energy =       0.0000000000000000
    Empirical Dispersion Energy =           0.0000000000000000
    PCM Polarization Energy =               0.0000000000000000
    EFP Energy =                            0.0000000000000000
    Total Energy =                       -388.2714914825843380

  Mulliken Charges: (a.u.)
   Center  Symbol    Alpha    Beta     Spin     Total
       1     H     0.27994  0.27994  0.00000  0.44011
       2     O     4.37105  4.37105  0.00000 -0.74210
       3     C     2.99731  2.99731  0.00000  0.00538
       4     C     3.15922  3.15922  0.00000 -0.31845
       5     H     0.41449  0.41449  0.00000  0.17102
       6     H     0.43226  0.43226  0.00000  0.13549
       7     C     3.16748  3.16748  0.00000 -0.33496
       8     H     0.41553  0.41553  0.00000  0.16895
       9     H     0.42466  0.42466  0.00000  0.15068
      10     C     3.15381  3.15381  0.00000 -0.30762
      11     H     0.42367  0.42367  0.00000  0.15267
      12     H     0.42215  0.42215  0.00000  0.15570
      13     C     3.15559  3.15559  0.00000 -0.31119
      14     H     0.41857  0.41857  0.00000  0.16286
      15     H     0.42138  0.42138  0.00000  0.15723
      16     C     3.15606  3.15606  0.00000 -0.31212
      17     H     0.42108  0.42108  0.00000  0.15783
      18     H     0.42024  0.42024  0.00000  0.15952
      19     C     3.14974  3.14974  0.00000 -0.29948
      20     H     0.42353  0.42353  0.00000  0.15295
      21     H     0.42321  0.42321  0.00000  0.15359
      22     C     3.23922  3.23922  0.00000 -0.47844
      23     H     0.42293  0.42293  0.00000  0.15414
      24     H     0.42315  0.42315  0.00000  0.15369
      25     H     0.42251  0.42251  0.00000  0.15498
      26     H     0.41886  0.41886  0.00000  0.16228
      27     H     0.42235  0.42235  0.00000  0.15529

   Total alpha = 37.00000, Total beta = 37.00000, Total charge = -0.00000
