  ==> Input File <==

--------------------------------------------------------------------------
set {
	reference rhf
	basis 6-31G*
}

set_num_threads( 4 )
memory 2 gb

molecule MOL {
0 1

H	 2.342343	 -1.901597	 -0.226578
O	 2.826016	 -1.159218	 0.122261
C	 2.077727	 -0.067559	 -0.035091
C	 0.624473	 -0.343591	 0.253101
O	 2.542965	 0.974826	 -0.363729
C	 -0.265902	 0.883932	 0.072916
H	 0.324016	 -1.163849	 -0.390541
H	 0.565024	 -0.726111	 1.268924
C	 -1.728698	 0.646073	 0.462102
H	 -0.209144	 1.219470	 -0.958188
H	 0.135059	 1.692851	 0.673903
C	 -2.482460	 -0.343073	 -0.431425
H	 -2.245265	 1.602650	 0.432430
H	 -1.779332	 0.308348	 1.496285
C	 -3.960546	 -0.461025	 -0.060175
H	 -2.395034	 -0.026811	 -1.468912
H	 -2.024850	 -1.327147	 -0.371646
H	 -4.472726	 -1.168004	 -0.705284
H	 -4.465146	 0.496508	 -0.151489
H	 -4.081218	 -0.800940	 0.964585

	symmetry c1
}
set optking {
	frozen_dihedral = ("
		1 2 3 5
	")
}

ee = optimize('scf')
oeprop('DIPOLE', 'QUADRUPOLE', 'MULLIKEN_CHARGES')
f=open( 'psi4out.xyz', 'w' )
f.write( "20  " )
f.write( str(ee) + "\n" )
f.write( MOL.save_string_xyz() )
f.close()
--------------------------------------------------------------------------

    Molecular point group: c1
  Charge       = 0
  Multiplicity = 1
  Basis Set: 6-31G*
  Basis Set:
  @DF-RHF Final Energy:  -383.93122445401849
    Total Energy =                       -383.9312244540189454
    Molecular point group: c1
  Basis Set: 6-31G*
  Basis Set:
  Basis Set: 6-31G*
  Basis Set:
  @DF-RHF Final Energy:  -383.93263921050954
    Total Energy =                       -383.9326392105094783
  Basis Set: 6-31G*
  Basis Set:
  Basis Set: 6-31G*
  Basis Set:
  @DF-RHF Final Energy:  -383.93279017380411
    Total Energy =                       -383.9327901738042215
  Basis Set: 6-31G*
  Basis Set:
  Basis Set: 6-31G*
  Basis Set:
  @DF-RHF Final Energy:  -383.93279288482483
    Total Energy =                       -383.9327928848247211
  Basis Set: 6-31G*
  Basis Set:
  Basis Set: 6-31G*
  Basis Set:
  @DF-RHF Final Energy:  -383.93278749521619
    Total Energy =                       -383.9327874952160755
  Basis Set: 6-31G*
  Basis Set:
  Basis Set: 6-31G*
  Basis Set:
  @DF-RHF Final Energy:  -383.93279490857020
    Total Energy =                       -383.9327949085703153
  Basis Set: 6-31G*
  Basis Set:
  Charge       = 0
  Multiplicity = 1
  Basis Set: 6-31G*
  Basis Set:

    Orbital Energies (a.u.)
    -----------------------

    Doubly Occupied:

       1A    -20.605034     2A    -20.553428     3A    -11.380681
       4A    -11.249563     5A    -11.227735     6A    -11.225636
       7A    -11.224693     8A    -11.216425     9A     -1.464191
      10A     -1.369751    11A     -1.100513    12A     -1.043615
      13A     -0.960417    14A     -0.866117    15A     -0.826442
      16A     -0.790958    17A     -0.718848    18A     -0.669803
      19A     -0.660603    20A     -0.637494    21A     -0.613775
      22A     -0.591047    23A     -0.572874    24A     -0.563551
      25A     -0.535972    26A     -0.517777    27A     -0.499127
      28A     -0.485785    29A     -0.474413    30A     -0.468825
      31A     -0.461883    32A     -0.441270

  @DF-RHF Final Energy:  -383.93279497937061

   => Energetics <=

    Nuclear Repulsion Energy =            375.6127103783903181
    One-Electron Energy =               -1267.0545184112852439
    Two-Electron Energy =                 507.5090130535243134
    DFT Exchange-Correlation Energy =       0.0000000000000000
    Empirical Dispersion Energy =           0.0000000000000000
    PCM Polarization Energy =               0.0000000000000000
    EFP Energy =                            0.0000000000000000
    Total Energy =                       -383.9327949793705557
    Molecular point group: c1
  Basis Set: 6-31G*
  Basis Set:

  -Total Gradient:
     Atom            X                  Y                   Z
    ------   -----------------  -----------------  -----------------
       1        0.002783852393     0.001291018134    -0.006252046053
       2       -0.003890740020    -0.002216357695     0.005364203090
       3        0.001905902550     0.002297430202     0.006573251612
       4        0.000032967994     0.000009974467     0.000074534382
       5       -0.000819443164    -0.001378171185    -0.005742139528
       6       -0.000008645742    -0.000005517131    -0.000005865453
       7        0.000006165554     0.000005797668    -0.000008037541
       8       -0.000006461377    -0.000004674996    -0.000004721449
       9        0.000009046769    -0.000008904007     0.000013386141
      10       -0.000001911431    -0.000010875313     0.000003588422
      11       -0.000003243899     0.000006384920     0.000001055296
      12       -0.000008492172     0.000016137029    -0.000017018962
      13        0.000009881778     0.000003516916    -0.000000682197
      14       -0.000001070464    -0.000000409061     0.000002084112
      15        0.000002554132    -0.000009924995     0.000006542650
      16       -0.000006366584     0.000003162794    -0.000008776983
      17       -0.000005807550     0.000004473475    -0.000000395161
      18        0.000001142685    -0.000005138313     0.000003982508
      19        0.000001822441    -0.000002341787    -0.000005697660
      20       -0.000001153884     0.000004418880     0.000002752776

  **** Optimization is complete! (in 7 steps) ****
    Final optimized geometry and variables:
    Molecular point group: c1

    Geometry (in Angstrom), charge = 0, multiplicity = 1:

    H            2.498894616374    -1.927729420918    -0.230725700042
    O            2.898015659428    -1.138045818703     0.110428023305
    C            2.090788158733    -0.067963283334    -0.029970619245
    C            0.628358672100    -0.341217923197     0.253161788634
    O            2.533509478702     0.979948072280    -0.344463156464
    C           -0.261818020058     0.886292794789     0.070424737213
    H            0.310118065082    -1.157276234237    -0.392448736534
    H            0.562756691343    -0.722394312934     1.269806690420
    C           -1.724981073720     0.653552984911     0.460941934952
    H           -0.203130151217     1.219379802097    -0.961182755413
    H            0.143719372919     1.693461646507     0.669813432910
    C           -2.484422927482    -0.332957833741    -0.430787372059
    H           -2.237224783283     1.612239704496     0.430410688395
    H           -1.776425264152     0.317754622797     1.495667799176
    C           -3.962851860783    -0.442939208284    -0.058538932510
    H           -2.395910202430    -0.019062633478    -1.468902888176
    H           -2.032421544638    -1.319939254433    -0.369522409124
    H           -4.478697615758    -1.149442037934    -0.701179208766
    H           -4.462593567980     0.516703879957    -0.152894273846
    H           -4.084673780512    -0.778726013361     0.967398286964

  Mulliken Charges: (a.u.)
   Center  Symbol    Alpha    Beta     Spin     Total
       1     H     0.26955  0.26955  0.00000  0.46089
       2     O     4.35844  4.35844  0.00000 -0.71689
       3     C     2.61434  2.61434  0.00000  0.77132
       4     C     3.22799  3.22799  0.00000 -0.45597
       5     O     4.25517  4.25517  0.00000 -0.51034
       6     C     3.15316  3.15316  0.00000 -0.30631
       7     H     0.41152  0.41152  0.00000  0.17696
       8     H     0.39857  0.39857  0.00000  0.20286
       9     C     3.15618  3.15618  0.00000 -0.31236
      10     H     0.41140  0.41140  0.00000  0.17720
      11     H     0.40472  0.40472  0.00000  0.19056
      12     C     3.15469  3.15469  0.00000 -0.30938
      13     H     0.41648  0.41648  0.00000  0.16705
      14     H     0.42329  0.42329  0.00000  0.15342
      15     C     3.23926  3.23926  0.00000 -0.47852
      16     H     0.42098  0.42098  0.00000  0.15805
      17     H     0.42547  0.42547  0.00000  0.14905
      18     H     0.41812  0.41812  0.00000  0.16376
      19     H     0.41966  0.41966  0.00000  0.16068
      20     H     0.42102  0.42102  0.00000  0.15796

   Total alpha = 32.00000, Total beta = 32.00000, Total charge =  0.00000
