                              Psi4 1.0.54 Driver

  ==> Input File <==

--------------------------------------------------------------------------
set {
	reference rhf
	basis cc-pvtz
}

set_num_threads( 4 )
memory 2 gb

molecule MOL {
0 1

O	 -2.817697	 1.304178	 0.001046
C	 -2.664672	 0.129869	 0.003507
C	 -3.797908	 -0.860100	 -0.001145
O	 -1.481217	 -0.452708	 0.001092
H	 -4.408836	 -0.679689	 -0.875387
H	 -3.443486	 -1.878443	 -0.002770
H	 -4.412123	 -0.683688	 0.871605
C	 -0.332055	 0.384012	 -0.000250
C	 0.892252	 -0.506059	 -0.000295
H	 -0.360822	 1.020205	 -0.874146
H	 -0.359817	 1.021310	 0.872861
C	 2.188199	 0.299473	 -0.001416
H	 0.857046	 -1.152781	 -0.871031
H	 0.857910	 -1.151798	 0.871202
C	 3.437151	 -0.577593	 -0.000991
H	 2.209565	 0.950707	 -0.871712
H	 2.210062	 0.952234	 0.867721
C	 3.259119	 -1.871366	 -0.788052
H	 3.708574	 -0.813456	 1.024072
H	 4.269487	 -0.015367	 -0.414761
H	 2.455173	 -2.472381	 -0.376596
H	 4.162423	 -2.469822	 -0.768071
H	 3.020107	 -1.668097	 -1.826516

	symmetry c1
}
set optking {
	frozen_dihedral = ("
		19 15 12 16
	")
}

ee,wfn = optimize('scf', return_wfn=True)
oeprop( wfn, 'DIPOLE', 'QUADRUPOLE', 'MULLIKEN_CHARGES')
f=open( 'psi4out.xyz', 'w' )
f.write( "23  " )
f.write( str(ee) + "\n" )
f.write( MOL.save_string_xyz() )
f.close()
--------------------------------------------------------------------------

    Molecular point group: c1
  Charge       = 0
  Multiplicity = 1
  Basis Set: CC-PVTZ
  Basis Set:
  @DF-RHF Final Energy:  -423.12760323200644
    Total Energy =                       -423.1276032320063223
    Molecular point group: c1
  Basis Set: CC-PVTZ
  Basis Set:
  Basis Set: CC-PVTZ
  Basis Set:
  @DF-RHF Final Energy:  -423.03261361014614
    Total Energy =                       -423.0326136101458587
  Basis Set: CC-PVTZ
  Basis Set:
  Basis Set: CC-PVTZ
  Basis Set:
  @DF-RHF Final Energy:  -423.11803015131699
    Total Energy =                       -423.1180301513172708
  Basis Set: CC-PVTZ
  Basis Set:
  Basis Set: CC-PVTZ
  Basis Set:
  @DF-RHF Final Energy:  -423.12967816637439
    Total Energy =                       -423.1296781663750153
  Basis Set: CC-PVTZ
  Basis Set:
  @DF-RHF Final Energy:  -423.13002201291499
    Total Energy =                       -423.1300220129149920
  Basis Set: CC-PVTZ
  Basis Set:
  @DF-RHF Final Energy:  -423.12894537610401
    Total Energy =                       -423.1289453761041841
  Basis Set: CC-PVTZ
  Basis Set:
  Basis Set: CC-PVTZ
  Basis Set:
  @DF-RHF Final Energy:  -423.13030033918932
    Total Energy =                       -423.1303003391894890
  Basis Set: CC-PVTZ
  Basis Set:
  Basis Set: CC-PVTZ
  Basis Set:
  @DF-RHF Final Energy:  -423.13031398695489
    Total Energy =                       -423.1303139869544339
  Basis Set: CC-PVTZ
  Basis Set:
  Charge       = 0
  Multiplicity = 1
  Basis Set: CC-PVTZ
  Basis Set:

    Orbital Energies (a.u.)
    -----------------------

    Doubly Occupied:

       1A    -20.595833     2A    -20.529437     3A    -11.366328
       4A    -11.279341     5A    -11.230626     6A    -11.222156
       7A    -11.221501     8A    -11.219833     9A    -11.211169
      10A     -1.471098    11A     -1.363932    12A     -1.094246
      13A     -1.041488    14A     -1.002548    15A     -0.932441
      16A     -0.858590    17A     -0.791190    18A     -0.770926
      19A     -0.694134    20A     -0.687910    21A     -0.673298
      22A     -0.640457    23A     -0.612007    24A     -0.602666
      25A     -0.575890    26A     -0.569499    27A     -0.550988
      28A     -0.539679    29A     -0.527936    30A     -0.508390
      31A     -0.499697    32A     -0.471358    33A     -0.467597
      34A     -0.462064    35A     -0.455241    36A     -0.438855

  @DF-RHF Final Energy:  -423.13031471268420

   => Energetics <=

    Nuclear Repulsion Energy =            455.4869270148982991
    One-Electron Energy =               -1478.8737921599815763
    Two-Electron Energy =                 600.2565504323993082
    DFT Exchange-Correlation Energy =       0.0000000000000000
    Empirical Dispersion Energy =           0.0000000000000000
    PCM Polarization Energy =               0.0000000000000000
    EFP Energy =                            0.0000000000000000
    Total Energy =                       -423.1303147126839121
    Molecular point group: c1
  Basis Set: CC-PVTZ
  Basis Set:

  -Total Gradient:
     Atom            X                  Y                   Z
    ------   -----------------  -----------------  -----------------
       1        0.000009643582    -0.000060687044     0.000042003594
       2        0.000027558401    -0.000015030149     0.000002174808
       3       -0.000008703806     0.000022383745     0.000001436981
       4       -0.000093538301     0.000067895799    -0.000018358754
       5        0.000014229188    -0.000007045507     0.000011887051
       6       -0.000004292753     0.000011769818    -0.000008453502
       7       -0.000005400437    -0.000000084677    -0.000016365533
       8        0.000017252672    -0.000048856985    -0.000046426550
       9        0.000009614944     0.000026913831     0.000042953735
      10        0.000007910222     0.000006695757     0.000012287556
      11       -0.000002801541    -0.000012900311     0.000006911520
      12       -0.001742072489    -0.005111857498    -0.001739802494
      13        0.000008814031     0.000004383707     0.000006102578
      14       -0.000021397792     0.000002861271    -0.000001519551
      15       -0.002542869255    -0.004538866214     0.002264560508
      16        0.001888680081     0.005036080814     0.001118284043
      17       -0.000009907480    -0.000011112922    -0.000014607629
      18        0.000025855249    -0.000003702402     0.000005169313
      19        0.002446946354     0.004618115696    -0.001674009901
      20       -0.000004471263    -0.000019178031     0.000020659666
      21        0.000016105094     0.000029543087    -0.000024043929
      22       -0.000056187720     0.000005784970    -0.000000982399
      23        0.000019033020    -0.000003106755     0.000010138888

  **** Optimization is complete! (in 9 steps) ****
    Final optimized geometry and variables:
    Molecular point group: c1

    Geometry (in Angstrom), charge = 0, multiplicity = 1:

    O           -2.804261540171     1.229733559976    -0.411411036688
    C           -2.553079887205     0.159005200980     0.027816659790
    C           -3.599365123911    -0.837895319808     0.447534578330
    O           -1.324949671913    -0.288792268375     0.203012528224
    H           -4.238879196752    -1.043209404289    -0.400326753256
    H           -3.160951252646    -1.754042171246     0.809684972308
    H           -4.210383249574    -0.390207243154     1.219905061481
    C           -0.250315818414     0.568605764786    -0.158027386313
    C            1.044555867455    -0.159906073623     0.132413991514
    H           -0.336934498377     0.820092875201    -1.206281949936
    H           -0.326379533588     1.486316114487     0.408652396346
    C            2.258358054685     0.683328569521    -0.245755902989
    H            1.043674074836    -1.097154291199    -0.410882139554
    H            1.078278977612    -0.408403802152     1.188817717237
    C            3.625640882741     0.091276109196     0.128519681598
    H            2.244673643472     0.919592249298    -1.306357559651
    H            2.175253331974     1.648412944646     0.248023120451
    C            3.798128060618    -1.403958569845    -0.115355021794
    H            3.854955977117     0.338719816034     1.160652740134
    H            4.376954610826     0.620951434001    -0.449958987484
    H            3.145237255329    -1.997215028849     0.512985168715
    H            4.817200541572    -1.706148643109     0.095503869568
    H            3.586678824777    -1.660405874383    -1.148509463031

  Mulliken Charges: (a.u.)
   Center  Symbol    Alpha    Beta     Spin     Total
       1     O     4.20237  4.20237  0.00000 -0.40474
       2     C     2.81541  2.81541  0.00000  0.36919
       3     C     3.13995  3.13995  0.00000 -0.27990
       4     O     4.14453  4.14453  0.00000 -0.28906
       5     H     0.44202  0.44202  0.00000  0.11596
       6     H     0.44191  0.44191  0.00000  0.11617
       7     H     0.44220  0.44220  0.00000  0.11560
       8     C     2.97998  2.97998  0.00000  0.04005
       9     C     3.08523  3.08523  0.00000 -0.17047
      10     H     0.45420  0.45420  0.00000  0.09159
      11     H     0.45304  0.45304  0.00000  0.09392
      12     C     3.10588  3.10588  0.00000 -0.21176
      13     H     0.44779  0.44779  0.00000  0.10443
      14     H     0.44954  0.44954  0.00000  0.10092
      15     C     3.08914  3.08914  0.00000 -0.17828
      16     H     0.44977  0.44977  0.00000  0.10046
      17     H     0.45026  0.45026  0.00000  0.09947
      18     C     3.15665  3.15665  0.00000 -0.31329
      19     H     0.45134  0.45134  0.00000  0.09731
      20     H     0.44998  0.44998  0.00000  0.10004
      21     H     0.45146  0.45146  0.00000  0.09707
      22     H     0.44436  0.44436  0.00000  0.11127
      23     H     0.45298  0.45298  0.00000  0.09404

   Total alpha = 36.00000, Total beta = 36.00000, Total charge = -0.00000

*** Psi4 exiting successfully. Buy a developer a beer!
