  ==> Input File <==

--------------------------------------------------------------------------
set {
	reference rhf
	basis 6-31G*
}

set_num_threads( 4 )
memory 2 gb

molecule MOL {
0 1

H	 3.093496	 -1.573221	 -1.321578
O	 2.441625	 -1.548148	 -0.627899
C	 1.688107	 -0.463589	 -0.807784
C	 0.624473	 -0.343591	 0.253101
O	 1.869465	 0.288858	 -1.708866
C	 -0.265902	 0.883932	 0.072916
H	 0.054889	 -1.266995	 0.236646
H	 1.130435	 -0.323901	 1.215061
C	 -1.728698	 0.646073	 0.462102
H	 -0.209144	 1.219470	 -0.958188
H	 0.135059	 1.692851	 0.673903
C	 -2.482460	 -0.343073	 -0.431425
H	 -2.245265	 1.602650	 0.432430
H	 -1.779332	 0.308348	 1.496285
C	 -3.960546	 -0.461025	 -0.060175
H	 -2.395034	 -0.026811	 -1.468912
H	 -2.024850	 -1.327147	 -0.371646
H	 -4.472726	 -1.168004	 -0.705284
H	 -4.465146	 0.496508	 -0.151489
H	 -4.081218	 -0.800940	 0.964585

	symmetry c1
}
set optking {
	frozen_dihedral = ("
		7 4 6 10
	")
}

ee = optimize('scf')
oeprop('DIPOLE', 'QUADRUPOLE', 'MULLIKEN_CHARGES')
f=open( 'psi4out.xyz', 'w' )
f.write( "20  " )
f.write( str(ee) + "\n" )
f.write( MOL.save_string_xyz() )
f.close()
--------------------------------------------------------------------------

    Molecular point group: c1
  Charge       = 0
  Multiplicity = 1
  Basis Set: 6-31G*
  Basis Set:
  @DF-RHF Final Energy:  -383.94511354971695
    Total Energy =                       -383.9451135497171208
    Molecular point group: c1
  Basis Set: 6-31G*
  Basis Set:
  Basis Set: 6-31G*
  Basis Set:
  @DF-RHF Final Energy:  -383.94538514993036
    Total Energy =                       -383.9453851499303596
  Basis Set: 6-31G*
  Basis Set:
  Basis Set: 6-31G*
  Basis Set:
  @DF-RHF Final Energy:  -383.94567370217482
    Total Energy =                       -383.9456737021746449
  Basis Set: 6-31G*
  Basis Set:
  Basis Set: 6-31G*
  Basis Set:
  @DF-RHF Final Energy:  -383.94568426795291
    Total Energy =                       -383.9456842679527995
  Basis Set: 6-31G*
  Basis Set:
  Basis Set: 6-31G*
  Basis Set:
  @DF-RHF Final Energy:  -383.94569016549201
    Total Energy =                       -383.9456901654918966
  Basis Set: 6-31G*
  Basis Set:
  Basis Set: 6-31G*
  Basis Set:
  @DF-RHF Final Energy:  -383.94569597114298
    Total Energy =                       -383.9456959711428681
  Basis Set: 6-31G*
  Basis Set:
  Basis Set: 6-31G*
  Basis Set:
  @DF-RHF Final Energy:  -383.94569800532986
    Total Energy =                       -383.9456980053299162
  Basis Set: 6-31G*
  Basis Set:
  Charge       = 0
  Multiplicity = 1
  Basis Set: 6-31G*
  Basis Set:

    Orbital Energies (a.u.)
    -----------------------

    Doubly Occupied:

       1A    -20.612704     2A    -20.552100     3A    -11.381902
       4A    -11.240060     5A    -11.221844     6A    -11.220315
       7A    -11.219052     8A    -11.211596     9A     -1.474991
      10A     -1.365912    11A     -1.094503    12A     -1.039824
      13A     -0.961145    14A     -0.869257    15A     -0.813905
      16A     -0.778625    17A     -0.700064    18A     -0.691769
      19A     -0.661193    20A     -0.634081    21A     -0.603981
      22A     -0.593505    23A     -0.575655    24A     -0.557207
      25A     -0.532199    26A     -0.512790    27A     -0.495885
      28A     -0.479316    29A     -0.471334    30A     -0.466885
      31A     -0.454410    32A     -0.444785

  @DF-RHF Final Energy:  -383.94569867455175

   => Energetics <=

    Nuclear Repulsion Energy =            377.7573807628250506
    One-Electron Energy =               -1271.5405665361545289
    Two-Electron Energy =                 509.8374870987780128
    DFT Exchange-Correlation Energy =       0.0000000000000000
    Empirical Dispersion Energy =           0.0000000000000000
    PCM Polarization Energy =               0.0000000000000000
    EFP Energy =                            0.0000000000000000
    Total Energy =                       -383.9456986745514655
    Molecular point group: c1
  Basis Set: 6-31G*
  Basis Set:

  -Total Gradient:
     Atom            X                  Y                   Z
    ------   -----------------  -----------------  -----------------
       1       -0.000005082182     0.000006106660     0.000002269043
       2       -0.000013568845    -0.000006616016    -0.000015901444
       3        0.000062080228    -0.000023259387     0.000008154060
       4        0.001012658538     0.000040602493    -0.003757235639
       5        0.000027261231     0.000001765426    -0.000020300700
       6       -0.003001716479    -0.002240355199     0.000018585315
       7       -0.000352054564     0.000276549702     0.003065983924
       8       -0.000012999090     0.000006984057    -0.000013459091
       9       -0.000017840812     0.000017878030     0.000004888494
      10        0.002309692205     0.001876740790     0.000683227173
      11       -0.000019979999     0.000008451275     0.000017506852
      12        0.000036477563    -0.000019328957     0.000017346297
      13       -0.000007557684     0.000020686459    -0.000029565987
      14       -0.000028244891     0.000023298044     0.000001622656
      15        0.000003163939     0.000003888752     0.000030127424
      16       -0.000002270839     0.000020732771     0.000009322962
      17        0.000008815197    -0.000011360877    -0.000025729701
      18        0.000010072713    -0.000004569890     0.000000868510
      19       -0.000002440210    -0.000002619416    -0.000004573137
      20       -0.000006466028     0.000004425285     0.000006862990

  **** Optimization is complete! (in 8 steps) ****
    Final optimized geometry and variables:
    Molecular point group: c1

    Geometry (in Angstrom), charge = 0, multiplicity = 1:

    H            3.359900941576    -1.387805184831    -0.816252196713
    O            2.683293928273    -1.340572915799    -0.147940064419
    C            1.910291671826    -0.288522609494    -0.416231360941
    C            0.808942533161    -0.141908646622     0.601863484908
    O            2.108026091244     0.416078814143    -1.351908477722
    C           -0.107178956740     1.068880565959     0.378492782644
    H            0.257480644064    -1.076273630591     0.624873679186
    H            1.290019032439    -0.087792479664     1.574490045798
    C           -1.558026419836     0.839674438782     0.815304232622
    H           -0.064469497782     1.367990467793    -0.662052263124
    H            0.297882933758     1.909574674333     0.934066789480
    C           -2.359368591028    -0.078090377488    -0.112117139475
    H           -2.058700741960     1.803807611233     0.862422075001
    H           -1.576987308831     0.440978739147     1.828736976527
    C           -3.800842949401    -0.275893281459     0.356325654797
    H           -2.358961578799     0.344456912691    -1.114219193638
    H           -1.877003913254    -1.049135639146    -0.192318421151
    H           -4.349399555685    -0.921420472729    -0.322387658303
    H           -4.328812382214     0.671891022012     0.410686920823
    H           -3.834231478684    -0.728823202396     1.343262625989

  Mulliken Charges: (a.u.)
   Center  Symbol    Alpha    Beta     Spin     Total
       1     H     0.26769  0.26769  0.00000  0.46463
       2     O     4.35029  4.35029  0.00000 -0.70058
       3     C     2.62635  2.62635  0.00000  0.74729
       4     C     3.21423  3.21423  0.00000 -0.42847
       5     O     4.27862  4.27862  0.00000 -0.55723
       6     C     3.16020  3.16020  0.00000 -0.32040
       7     H     0.39642  0.39642  0.00000  0.20715
       8     H     0.39654  0.39654  0.00000  0.20691
       9     C     3.15685  3.15685  0.00000 -0.31370
      10     H     0.39843  0.39843  0.00000  0.20314
      11     H     0.41508  0.41508  0.00000  0.16983
      12     C     3.15327  3.15327  0.00000 -0.30654
      13     H     0.41843  0.41843  0.00000  0.16314
      14     H     0.42413  0.42413  0.00000  0.15175
      15     C     3.23941  3.23941  0.00000 -0.47882
      16     H     0.41925  0.41925  0.00000  0.16149
      17     H     0.42399  0.42399  0.00000  0.15201
      18     H     0.41818  0.41818  0.00000  0.16364
      19     H     0.42082  0.42082  0.00000  0.15836
      20     H     0.42180  0.42180  0.00000  0.15639

   Total alpha = 32.00000, Total beta = 32.00000, Total charge =  0.00000
