  ==> Input File <==

--------------------------------------------------------------------------
set {
	reference rhf
	basis 6-31G*
}

set_num_threads( 1 )
memory 2 gb

molecule MOL {
0 1

O	 1.846825	 1.296220	 0.000415
C	 1.705091	 0.115954	 0.001797
C	 0.381791	 -0.609817	 0.001258
O	 2.721346	 -0.737485	 -0.000216
C	 -0.823008	 0.326187	 0.001381
H	 0.371250	 -1.265087	 -0.865474
H	 0.370908	 -1.265746	 0.867490
C	 -0.414697	 1.797810	 -0.080287
H	 -1.408672	 0.155041	 0.899097
H	 -1.470377	 0.075944	 -0.833245
C	 -1.611089	 2.750966	 -0.080356
H	 0.237199	 2.041583	 0.757331
H	 0.174270	 1.962502	 -0.981328
C	 -1.202534	 4.221160	 -0.163201
H	 -2.199076	 2.589486	 0.820386
H	 -2.262785	 2.509281	 -0.917027
H	 -0.577526	 4.502819	 0.679561
H	 -2.071896	 4.871281	 -0.161558
H	 -0.641299	 4.421877	 -1.071518
C	 4.024888	 -0.184556	 -0.001949
H	 4.179030	 0.422472	 -0.882452
H	 4.701782	 -1.024608	 -0.003642
H	 4.181981	 0.421185	 0.878906

	symmetry c1
}
set optking {
	frozen_dihedral = ("
		15 11 8 12,
		9 5 8 12,
		1 2 3 6,
		1 2 4 20
	")
}

ee = energy('scf')
oeprop('DIPOLE', 'QUADRUPOLE', 'MULLIKEN_CHARGES')
f=open( 'psi4out.xyz', 'w' )
f.write( "23  " )
f.write( str(ee) + "\n" )
f.write( MOL.save_string_xyz() )
f.close()
--------------------------------------------------------------------------

    Molecular point group: c1

    Geometry (in Angstrom), charge = 0, multiplicity = 1:

       Center              X                  Y                   Z               Mass
    ------------   -----------------  -----------------  -----------------  -----------------
           O          1.067377400445     0.292931831583     0.036333230168    15.994914619560
           C          0.925643400445    -0.887334168417     0.037715230168    12.000000000000
           C         -0.397656599555    -1.613105168417     0.037176230168    12.000000000000
           O          1.941898400445    -1.740773168417     0.035702230168    15.994914619560
           C         -1.602455599555    -0.677101168417     0.037299230168    12.000000000000
           H         -0.408197599555    -2.268375168417    -0.829555769832     1.007825032070
           H         -0.408539599555    -2.269034168417     0.903408230168     1.007825032070
           C         -1.194144599555     0.794521831583    -0.044368769832    12.000000000000
           H         -2.188119599555    -0.848247168417     0.935015230168     1.007825032070
           H         -2.249824599555    -0.927344168417    -0.797326769832     1.007825032070
           C         -2.390536599555     1.747677831583    -0.044437769832    12.000000000000
           H         -0.542248599555     1.038294831583     0.793249230168     1.007825032070
           H         -0.605177599555     0.959213831583    -0.945409769832     1.007825032070
           C         -1.981981599555     3.217871831583    -0.127282769832    12.000000000000
           H         -2.978523599555     1.586197831583     0.856304230168     1.007825032070
           H         -3.042232599555     1.505992831583    -0.881108769832     1.007825032070
           H         -1.356973599555     3.499530831583     0.715479230168     1.007825032070
           H         -2.851343599555     3.867992831583    -0.125639769832     1.007825032070
           H         -1.420746599555     3.418588831583    -1.035599769832     1.007825032070
           C          3.245440400445    -1.187844168417     0.033969230168    12.000000000000
           H          3.399582400445    -0.580816168417    -0.846533769832     1.007825032070
           H          3.922334400445    -2.027896168417     0.032276230168     1.007825032070
           H          3.402533400445    -0.582103168417     0.914824230168     1.007825032070

  Charge       = 0
  Multiplicity = 1
  Basis Set: 6-31G*
  Basis Set:

    Orbital Energies (a.u.)
    -----------------------

    Doubly Occupied:

       1A    -20.605502     2A    -20.540940     3A    -11.375633
       4A    -11.282501     5A    -11.236330     6A    -11.216795
       7A    -11.198160     8A    -11.196192     9A    -11.189099
      10A     -1.472853    11A     -1.369198    12A     -1.085892
      13A     -1.035060    14A     -0.984652    15A     -0.923534
      16A     -0.838907    17A     -0.790897    18A     -0.770158
      19A     -0.696712    20A     -0.687093    21A     -0.666567
      22A     -0.642709    23A     -0.604498    24A     -0.600916
      25A     -0.556099    26A     -0.550786    27A     -0.547889
      28A     -0.530731    29A     -0.525344    30A     -0.513217
      31A     -0.477169    32A     -0.473093    33A     -0.466798
      34A     -0.442171    35A     -0.433320    36A     -0.400003

  @DF-RHF Final Energy:  -422.93654623328132

   => Energetics <=

    Nuclear Repulsion Energy =            475.4922571515940035
    One-Electron Energy =               -1519.0025722748364387
    Two-Electron Energy =                 620.5737688899607747
    DFT Exchange-Correlation Energy =       0.0000000000000000
    Empirical Dispersion Energy =           0.0000000000000000
    PCM Polarization Energy =               0.0000000000000000
    EFP Energy =                            0.0000000000000000
    Total Energy =                       -422.9365462332816605

  Mulliken Charges: (a.u.)
   Center  Symbol    Alpha    Beta     Spin     Total
       1     O     4.28348  4.28348  0.00000 -0.56697
       2     C     2.60712  2.60712  0.00000  0.78577
       3     C     3.21216  3.21216  0.00000 -0.42432
       4     O     4.30734  4.30734  0.00000 -0.61468
       5     C     3.15815  3.15815  0.00000 -0.31630
       6     H     0.39647  0.39647  0.00000  0.20706
       7     H     0.39643  0.39643  0.00000  0.20715
       8     C     3.14922  3.14922  0.00000 -0.29843
       9     H     0.41814  0.41814  0.00000  0.16372
      10     H     0.41811  0.41811  0.00000  0.16377
      11     C     3.14712  3.14712  0.00000 -0.29423
      12     H     0.40644  0.40644  0.00000  0.18712
      13     H     0.41579  0.41579  0.00000  0.16841
      14     C     3.23705  3.23705  0.00000 -0.47410
      15     H     0.42978  0.42978  0.00000  0.14043
      16     H     0.43047  0.43047  0.00000  0.13906
      17     H     0.42212  0.42212  0.00000  0.15575
      18     H     0.42307  0.42307  0.00000  0.15385
      19     H     0.42252  0.42252  0.00000  0.15496
      20     C     3.09237  3.09237  0.00000 -0.18474
      21     H     0.40922  0.40922  0.00000  0.18157
      22     H     0.40809  0.40809  0.00000  0.18382
      23     H     0.40933  0.40933  0.00000  0.18134

   Total alpha = 36.00000, Total beta = 36.00000, Total charge =  0.00000
