                              Psi4 1.0.54 Driver

  ==> Input File <==

--------------------------------------------------------------------------
set {
	reference rhf
	basis cc-pvtz
}

set_num_threads( 4 )
memory 2 gb

molecule MOL {
0 1

H	 2.576597	 0.172471	 1.056181
O	 1.728320	 -0.241983	 1.105071
C	 1.050374	 0.054877	 0.000135
C	 -0.318151	 -0.570512	 0.000144
O	 1.506107	 0.732482	 -0.854924
C	 -1.454884	 0.441630	 -0.000560
H	 -0.371613	 -1.223646	 -0.864985
H	 -0.371920	 -1.222758	 0.865929
C	 -2.822577	 -0.232186	 0.000063
H	 -1.359760	 1.084704	 -0.867077
H	 -1.359641	 1.085996	 0.864983
H	 -2.954352	 -0.858985	 -0.875745
H	 -3.615886	 0.505352	 0.000019
H	 -2.953878	 -0.858359	 0.876394

	symmetry c1
}
set optking {
	frozen_dihedral = ("
		2 3 4 7
	")
}

ee,wfn = optimize('scf', return_wfn=True)
oeprop( wfn, 'DIPOLE', 'QUADRUPOLE', 'MULLIKEN_CHARGES')
f=open( 'psi4out.xyz', 'w' )
f.write( "14  " )
f.write( str(ee) + "\n" )
f.write( MOL.save_string_xyz() )
f.close()
--------------------------------------------------------------------------

    Molecular point group: c1
  Charge       = 0
  Multiplicity = 1
  Basis Set: CC-PVTZ
  Basis Set:
  @DF-RHF Final Energy:  -305.99865999818530
    Total Energy =                       -305.9986599981851327
    Molecular point group: c1
  Basis Set: CC-PVTZ
  Basis Set:
  Basis Set: CC-PVTZ
  Basis Set:
  @DF-RHF Final Energy:  -305.99930006956617
    Total Energy =                       -305.9993000695662317
  Basis Set: CC-PVTZ
  Basis Set:
  Basis Set: CC-PVTZ
  Basis Set:
  @DF-RHF Final Energy:  -305.99939724859172
    Total Energy =                       -305.9993972485920040
  Basis Set: CC-PVTZ
  Basis Set:
  Basis Set: CC-PVTZ
  Basis Set:
  @DF-RHF Final Energy:  -305.99934526463943
    Total Energy =                       -305.9993452646392598
  Basis Set: CC-PVTZ
  Basis Set:
  Basis Set: CC-PVTZ
  Basis Set:
  @DF-RHF Final Energy:  -305.99940272899767
    Total Energy =                       -305.9994027289978362
  Basis Set: CC-PVTZ
  Basis Set:
  Charge       = 0
  Multiplicity = 1
  Basis Set: CC-PVTZ
  Basis Set:

    Orbital Energies (a.u.)
    -----------------------

    Doubly Occupied:

       1A    -20.606689     2A    -20.538118     3A    -11.373586
       4A    -11.238394     5A    -11.230656     6A    -11.217715
       7A     -1.478447     8A     -1.368521     9A     -1.085818
      10A     -0.980326    11A     -0.856944    12A     -0.803448
      13A     -0.706302    14A     -0.690500    15A     -0.653411
      16A     -0.630541    17A     -0.596582    18A     -0.572372
      19A     -0.551522    20A     -0.513897    21A     -0.496608
      22A     -0.488316    23A     -0.474900    24A     -0.444162

  @DF-RHF Final Energy:  -305.99940297160032

   => Energetics <=

    Nuclear Repulsion Energy =            240.5314063052518918
    One-Electron Energy =                -893.8660707079599206
    Two-Electron Energy =                 347.3352614311078810
    DFT Exchange-Correlation Energy =       0.0000000000000000
    Empirical Dispersion Energy =           0.0000000000000000
    PCM Polarization Energy =               0.0000000000000000
    EFP Energy =                            0.0000000000000000
    Total Energy =                       -305.9994029716002046
    Molecular point group: c1
  Basis Set: CC-PVTZ
  Basis Set:

  -Total Gradient:
     Atom            X                  Y                   Z
    ------   -----------------  -----------------  -----------------
       1       -0.000015569680    -0.000002876067    -0.000012241425
       2       -0.000107330257     0.000149031383     0.000145342127
       3        0.000108958455    -0.000228901622    -0.000181815333
       4        0.000123493322    -0.000168198298     0.000191160488
       5       -0.000001107442     0.000059111018    -0.000050253248
       6        0.000000795382     0.000018213520     0.000014851770
       7       -0.000098515684     0.000190737384    -0.000110100245
       8       -0.000009659394    -0.000015888256     0.000008978741
       9        0.000000678084    -0.000007920450    -0.000005657301
      10       -0.000003604661     0.000004068254     0.000004215581
      11       -0.000003577607     0.000003049470     0.000000424172
      12       -0.000002236238    -0.000007064681    -0.000002941539
      13        0.000005596800     0.000005504848    -0.000004466335
      14        0.000002078922     0.000001133500     0.000002502548

  **** Optimization is complete! (in 6 steps) ****
    Final optimized geometry and variables:
    Molecular point group: c1

    Geometry (in Angstrom), charge = 0, multiplicity = 1:

    H            2.648122470435     0.248323375493     0.863350092885
    O            1.838716067075    -0.231618232370     0.959193732133
    C            1.054555122724     0.061754382601    -0.071739094297
    C           -0.273357061077    -0.648165325417    -0.028049561683
    O            1.388622131990     0.813026072090    -0.922791209332
    C           -1.440847773968     0.341492395005     0.002604347511
    H           -0.333589449654    -1.251596122698    -0.926836565443
    H           -0.304472629914    -1.310283281247     0.825616869715
    C           -2.791649586996    -0.363918507221    -0.014286344159
    H           -1.357386908567     1.007044180437    -0.846931684579
    H           -1.364134425936     0.958318589508     0.892618960267
    H           -2.908136740086    -0.963650998229    -0.910573287544
    H           -3.601929050720     0.354631127036     0.010840133151
    H           -2.904643013216    -1.020832693401     0.841442992135

  Mulliken Charges: (a.u.)
   Center  Symbol    Alpha    Beta     Spin     Total
       1     H     0.38039  0.38039  0.00000  0.23922
       2     O     4.15825  4.15825  0.00000 -0.31650
       3     C     2.80790  2.80790  0.00000  0.38419
       4     C     3.08964  3.08964  0.00000 -0.17929
       5     O     4.19906  4.19906  0.00000 -0.39813
       6     C     3.08960  3.08960  0.00000 -0.17921
       7     H     0.44288  0.44288  0.00000  0.11425
       8     H     0.43889  0.43889  0.00000  0.12222
       9     C     3.14993  3.14993  0.00000 -0.29986
      10     H     0.43951  0.43951  0.00000  0.12098
      11     H     0.45038  0.45038  0.00000  0.09925
      12     H     0.45343  0.45343  0.00000  0.09313
      13     H     0.44554  0.44554  0.00000  0.10891
      14     H     0.45458  0.45458  0.00000  0.09084

   Total alpha = 24.00000, Total beta = 24.00000, Total charge =  0.00000

*** Psi4 exiting successfully. Buy a developer a beer!
