  ==> Input File <==

--------------------------------------------------------------------------
set {
	reference rhf
	basis 6-31G*
}

set_num_threads( 4 )
memory 2 gb

molecule MOL {
0 1

H	 -2.844979	 0.432276	 0.062048
O	 -2.035884	 -0.060112	 0.102722
C	 -0.955155	 0.788182	 -0.092531
C	 0.353668	 0.040312	 -0.004810
H	 -0.985057	 1.290372	 -1.054184
H	 -0.974469	 1.533190	 0.688632
F	 0.394464	 -0.937475	 -0.903053
F	 1.368604	 0.853376	 -0.249821
F	 0.546173	 -0.502608	 1.179981

	symmetry c1
}
set optking {
	frozen_dihedral = ("
		1 2 3 5
	")
}

ee = optimize('scf')
oeprop('DIPOLE', 'QUADRUPOLE', 'MULLIKEN_CHARGES')
f=open( 'psi4out.xyz', 'w' )
f.write( "9  " )
f.write( str(ee) + "\n" )
f.write( MOL.save_string_xyz() )
f.close()
--------------------------------------------------------------------------

    Molecular point group: c1
  Charge       = 0
  Multiplicity = 1
  Basis Set: 6-31G*
  Basis Set:
  @DF-RHF Final Energy:  -450.65791335666859
    Total Energy =                       -450.6579133566689279
    Molecular point group: c1
  Basis Set: 6-31G*
  Basis Set:
  Basis Set: 6-31G*
  Basis Set:
  @DF-RHF Final Energy:  -450.65936000384056
    Total Energy =                       -450.6593600038403906
  Basis Set: 6-31G*
  Basis Set:
  Basis Set: 6-31G*
  Basis Set:
  @DF-RHF Final Energy:  -450.65968851125922
    Total Energy =                       -450.6596885112593895
  Basis Set: 6-31G*
  Basis Set:
  Basis Set: 6-31G*
  Basis Set:
  @DF-RHF Final Energy:  -450.65970022236252
    Total Energy =                       -450.6597002223623463
  Basis Set: 6-31G*
  Basis Set:
  Charge       = 0
  Multiplicity = 1
  Basis Set: 6-31G*
  Basis Set:

    Orbital Energies (a.u.)
    -----------------------

    Doubly Occupied:

       1A    -26.336649     2A    -26.332618     3A    -26.332584
       4A    -20.589318     5A    -11.496818     6A    -11.309787
       7A     -1.733406     8A     -1.631192     9A     -1.629443
      10A     -1.401537    11A     -1.047985    12A     -0.916375
      13A     -0.825242    14A     -0.823044    15A     -0.782180
      16A     -0.732305    17A     -0.706777    18A     -0.695899
      19A     -0.666770    20A     -0.649059    21A     -0.637173
      22A     -0.634150    23A     -0.594771    24A     -0.527706
      25A     -0.479156

  @DF-RHF Final Energy:  -450.65970274662055

   => Energetics <=

    Nuclear Repulsion Energy =            277.1526530794232599
    One-Electron Energy =               -1176.6008233390039095
    Two-Electron Energy =                 448.7884675129600396
    DFT Exchange-Correlation Energy =       0.0000000000000000
    Empirical Dispersion Energy =           0.0000000000000000
    PCM Polarization Energy =               0.0000000000000000
    EFP Energy =                            0.0000000000000000
    Total Energy =                       -450.6597027466205532
    Molecular point group: c1
  Basis Set: 6-31G*
  Basis Set:

  -Total Gradient:
     Atom            X                  Y                   Z
    ------   -----------------  -----------------  -----------------
       1        0.000013047101    -0.000000820620    -0.000052603568
       2        0.000079770108     0.000091436541     0.000019060450
       3       -0.000020856683    -0.000090512878     0.000030805749
       4        0.000060154336     0.000142695537     0.000024956134
       5       -0.000063934316    -0.000004527366     0.000022601157
       6       -0.000019477863     0.000004988626     0.000000503699
       7        0.000035807936    -0.000013969478    -0.000017265248
       8       -0.000070256771    -0.000112755183    -0.000014956190
       9       -0.000014253838    -0.000016535179    -0.000013102181

  **** Optimization is complete! (in 5 steps) ****
    Final optimized geometry and variables:
    Molecular point group: c1

    Geometry (in Angstrom), charge = 0, multiplicity = 1:

    H           -2.814842589909     0.370847081523     0.049710568213
    O           -1.987163132241    -0.083275685126     0.118256652684
    C           -0.939390468961     0.803034063197    -0.100004997423
    C            0.348758957340     0.022929501512    -0.021903046626
    H           -0.982268351384     1.262651268383    -1.081898704045
    H           -0.893410446288     1.584252366035     0.651621927185
    F            0.409299567268    -0.924712616569    -0.936694074353
    F            1.371120343826     0.843669107898    -0.223797539714
    F            0.514473355913    -0.541245895451     1.158119605098

  Mulliken Charges: (a.u.)
   Center  Symbol    Alpha    Beta     Spin     Total
       1     H     0.27141  0.27141  0.00000  0.45718
       2     O     4.36321  4.36321  0.00000 -0.72643
       3     C     3.05273  3.05273  0.00000 -0.10546
       4     C     2.45266  2.45266  0.00000  1.09469
       5     H     0.41059  0.41059  0.00000  0.17883
       6     H     0.41048  0.41048  0.00000  0.17905
       7     F     4.67678  4.67678  0.00000 -0.35357
       8     F     4.68545  4.68545  0.00000 -0.37089
       9     F     4.67670  4.67670  0.00000 -0.35340

   Total alpha = 25.00000, Total beta = 25.00000, Total charge = -0.00000
