                              Psi4 1.0.54 Driver

  ==> Input File <==

--------------------------------------------------------------------------
set {
	reference rhf
	basis cc-pvtz
}

set_num_threads( 4 )
memory 2 gb

molecule MOL {
0 1

H	 2.231388	 -0.953875	 0.792813
C	 1.469977	 -0.209670	 0.954816
O	 0.462329	 -0.453336	 -0.000137
H	 1.901296	 0.774738	 0.823961
H	 1.084811	 -0.308322	 1.961867
C	 -0.590565	 0.341382	 0.000062
O	 -1.693898	 -0.053880	 0.000252
H	 -0.340426	 1.403822	 0.000200

	symmetry c1
}
set optking {
	frozen_dihedral = ("
		2 3 6 7
	")
}

ee,wfn = optimize('scf', return_wfn=True)
oeprop( wfn, 'DIPOLE', 'QUADRUPOLE', 'MULLIKEN_CHARGES')
f=open( 'psi4out.xyz', 'w' )
f.write( "8  " )
f.write( str(ee) + "\n" )
f.write( MOL.save_string_xyz() )
f.close()
--------------------------------------------------------------------------

    Molecular point group: c1
  Charge       = 0
  Multiplicity = 1
  Basis Set: CC-PVTZ
  Basis Set:
  @DF-RHF Final Energy:  -227.86379699597757
    Total Energy =                       -227.8637969959775091
    Molecular point group: c1
  Basis Set: CC-PVTZ
  Basis Set:
  Basis Set: CC-PVTZ
  Basis Set:
  @DF-RHF Final Energy:  -227.86384451961379
    Total Energy =                       -227.8638445196137639
  Basis Set: CC-PVTZ
  Basis Set:
  Basis Set: CC-PVTZ
  Basis Set:
  @DF-RHF Final Energy:  -227.86401590049917
    Total Energy =                       -227.8640159004991403
  Basis Set: CC-PVTZ
  Basis Set:
  Basis Set: CC-PVTZ
  Basis Set:
  @DF-RHF Final Energy:  -227.86419531086148
    Total Energy =                       -227.8641953108614189
  Basis Set: CC-PVTZ
  Basis Set:
  Basis Set: CC-PVTZ
  Basis Set:
  @DF-RHF Final Energy:  -227.86420091136296
    Total Energy =                       -227.8642009113629001
  Basis Set: CC-PVTZ
  Basis Set:
  Charge       = 0
  Multiplicity = 1
  Basis Set: CC-PVTZ
  Basis Set:

    Orbital Energies (a.u.)
    -----------------------

    Doubly Occupied:

       1A    -20.600517     2A    -20.556265     3A    -11.375736
       4A    -11.300913     5A     -1.476637     6A     -1.387952
       7A     -0.989825     8A     -0.845219     9A     -0.740540
      10A     -0.689796    11A     -0.679581    12A     -0.619560
      13A     -0.569856    14A     -0.526889    15A     -0.473038
      16A     -0.459739

  @DF-RHF Final Energy:  -227.86420198164456

   => Energetics <=

    Nuclear Repulsion Energy =            121.6756541783558561
    One-Electron Energy =                -552.4955918601050371
    Two-Electron Energy =                 202.9557357001045546
    DFT Exchange-Correlation Energy =       0.0000000000000000
    Empirical Dispersion Energy =           0.0000000000000000
    PCM Polarization Energy =               0.0000000000000000
    EFP Energy =                            0.0000000000000000
    Total Energy =                       -227.8642019816446407
    Molecular point group: c1
  Basis Set: CC-PVTZ
  Basis Set:

  -Total Gradient:
     Atom            X                  Y                   Z
    ------   -----------------  -----------------  -----------------
       1       -0.000041260884     0.000011243412    -0.000015826691
       2       -0.002202185549    -0.002385538945     0.003444673297
       3        0.003361914744     0.003928383624    -0.002030170992
       4       -0.000007364885    -0.000042342809    -0.000001564875
       5       -0.000006300528    -0.000005426053    -0.000014800211
       6       -0.001290818967    -0.002118276858    -0.007488000346
       7        0.000177522531     0.000620960905     0.006116682745
       8        0.000008493538    -0.000009003278    -0.000010992929

  **** Optimization is complete! (in 6 steps) ****
    Final optimized geometry and variables:
    Molecular point group: c1

    Geometry (in Angstrom), charge = 0, multiplicity = 1:

    H            2.370765059409    -0.767197685668     0.462512542328
    C            1.540138934698    -0.121378350483     0.693429141166
    O            0.514826537018    -0.424934058142    -0.224465964539
    H            1.856953614364     0.912280017439     0.602148934933
    H            1.205172556707    -0.308421887061     1.705159981973
    C           -0.500648847486     0.430094341526    -0.286860277758
    O           -1.625468999297     0.111001104085    -0.230967356035
    H           -0.183219767557     1.469854934425    -0.382709966631

  Mulliken Charges: (a.u.)
   Center  Symbol    Alpha    Beta     Spin     Total
       1     H     0.44222  0.44222  0.00000  0.11555
       2     C     3.02701  3.02701  0.00000 -0.05402
       3     O     4.13574  4.13574  0.00000 -0.27148
       4     H     0.46600  0.46600  0.00000  0.06800
       5     H     0.45591  0.45591  0.00000  0.08817
       6     C     2.83348  2.83348  0.00000  0.33304
       7     O     4.16522  4.16522  0.00000 -0.33043
       8     H     0.47441  0.47441  0.00000  0.05118

   Total alpha = 16.00000, Total beta = 16.00000, Total charge = -0.00000

*** Psi4 exiting successfully. Buy a developer a beer!
