  ==> Input File <==

--------------------------------------------------------------------------
set {
	reference rhf
	basis cc-pvtz
}

set_num_threads( 4 )
memory 2 gb

molecule MOL {
0 1

H	 -2.816458	 -0.841657	 -0.064679
N	 -1.878861	 -0.711874	 0.250184
C	 -1.341419	 0.551458	 -0.220231
H	 -1.333674	 -1.468530	 -0.105118
C	 0.082190	 0.731516	 0.254705
H	 -1.357065	 0.652078	 -1.304747
H	 -1.939897	 1.357530	 0.189797
O	 0.916499	 -0.093743	 -0.500665
H	 0.381463	 1.772318	 0.139204
H	 0.151471	 0.471808	 1.308593
C	 2.250640	 -0.072352	 -0.114881
H	 2.795778	 -0.740200	 -0.766180
H	 2.674530	 0.925652	 -0.204319
H	 2.373136	 -0.407118	 0.912489

	symmetry c1
}
set optking {
	frozen_dihedral = ("
		8 5 3 6
	")
}

ee = optimize('scf')
oeprop('DIPOLE', 'QUADRUPOLE', 'MULLIKEN_CHARGES')
f=open( 'psi4out.xyz', 'w' )
f.write( "14  " )
f.write( str(ee) + "\n" )
f.write( MOL.save_string_xyz() )
f.close()
--------------------------------------------------------------------------

    Molecular point group: c1
  Charge       = 0
  Multiplicity = 1
  Basis Set: CC-PVTZ
  Basis Set:
  @DF-RHF Final Energy:  -248.22558318542113
    Total Energy =                       -248.2255831854211579
    Molecular point group: c1
  Basis Set: CC-PVTZ
  Basis Set:
  Basis Set: CC-PVTZ
  Basis Set:
  @DF-RHF Final Energy:  -248.22566608397349
    Total Energy =                       -248.2256660839733513
  Basis Set: CC-PVTZ
  Basis Set:
  Basis Set: CC-PVTZ
  Basis Set:
  @DF-RHF Final Energy:  -248.22568083940618
    Total Energy =                       -248.2256808394064933
  Basis Set: CC-PVTZ
  Basis Set:
  Charge       = 0
  Multiplicity = 1
  Basis Set: CC-PVTZ
  Basis Set:

    Orbital Energies (a.u.)
    -----------------------

    Doubly Occupied:

       1A    -20.550681     2A    -15.524551     3A    -11.263589
       4A    -11.263527     5A    -11.239910     6A     -1.384269
       7A     -1.176396     8A     -1.000568     9A     -0.906579
      10A     -0.817075    11A     -0.685132    12A     -0.675292
      13A     -0.647650    14A     -0.614156    15A     -0.605146
      16A     -0.543890    17A     -0.529010    18A     -0.498950
      19A     -0.474039    20A     -0.420323    21A     -0.384722

  @DF-RHF Final Energy:  -248.22568122168616

   => Energetics <=

    Nuclear Repulsion Energy =            194.2171065630176372
    One-Electron Energy =                -722.4746607102765665
    Two-Electron Energy =                 280.0318729255728840
    DFT Exchange-Correlation Energy =       0.0000000000000000
    Empirical Dispersion Energy =           0.0000000000000000
    PCM Polarization Energy =               0.0000000000000000
    EFP Energy =                            0.0000000000000000
    Total Energy =                       -248.2256812216860453
    Molecular point group: c1
  Basis Set: CC-PVTZ
  Basis Set:

  -Total Gradient:
     Atom            X                  Y                   Z
    ------   -----------------  -----------------  -----------------
       1       -0.000000526740    -0.000010154690     0.000001255873
       2        0.000006795630     0.000027909149    -0.000008330585
       3       -0.000545798384     0.004040927203    -0.000121807879
       4        0.000001191233    -0.000021214159     0.000002483456
       5       -0.000296025296    -0.002819027896     0.001886973727
       6        0.000476537746    -0.002881029302    -0.000252645961
       7        0.000000207655    -0.000004766717     0.000002400685
       8        0.000302666526     0.001686059952    -0.001487010844
       9       -0.000001654726     0.000012929168     0.000012226073
      10        0.000012176796    -0.000006218851    -0.000011036568
      11        0.000029932905    -0.000028858638    -0.000032351553
      12        0.000022409584    -0.000001150269     0.000007312582
      13       -0.000002009968     0.000002084878     0.000004499067
      14       -0.000005902954     0.000002510172    -0.000003968071

  **** Optimization is complete! (in 4 steps) ****
    Final optimized geometry and variables:
    Molecular point group: c1

    Geometry (in Angstrom), charge = 0, multiplicity = 1:

    H           -2.825724430935    -0.911124685188     0.006303502246
    N           -1.885449697023    -0.782153367439     0.314287778766
    C           -1.359113341458     0.494108526585    -0.142504462107
    H           -1.343858870955    -1.529672387907    -0.066510274461
    C            0.067243771131     0.675456554360     0.326316210375
    H           -1.369341246319     0.585913961148    -1.227025792956
    H           -1.967971639125     1.288503192948     0.272685319349
    O            0.895982239894    -0.159750649373    -0.425380786702
    H            0.372096648228     1.712616410516     0.192092966058
    H            0.139417552095     0.433777478966     1.383759744153
    C            2.231311119434    -0.140686295099    -0.043534038870
    H            2.772766625881    -0.812424018782    -0.693917436609
    H            2.657362857758     0.855989457054    -0.138194135923
    H            2.356693078176    -0.471391263624     0.984820747153

  Mulliken Charges: (a.u.)
   Center  Symbol    Alpha    Beta     Spin     Total
       1     H     0.43013  0.43013  0.00000  0.13974
       2     N     3.69488  3.69488  0.00000 -0.38976
       3     C     3.02191  3.02191  0.00000 -0.04382
       4     H     0.42375  0.42375  0.00000  0.15250
       5     C     2.97176  2.97176  0.00000  0.05647
       6     H     0.46277  0.46277  0.00000  0.07446
       7     H     0.45778  0.45778  0.00000  0.08443
       8     O     4.17901  4.17901  0.00000 -0.35802
       9     H     0.46968  0.46968  0.00000  0.06064
      10     H     0.46744  0.46744  0.00000  0.06512
      11     C     3.03215  3.03215  0.00000 -0.06429
      12     H     0.44759  0.44759  0.00000  0.10483
      13     H     0.47139  0.47139  0.00000  0.05722
      14     H     0.46976  0.46976  0.00000  0.06048

   Total alpha = 21.00000, Total beta = 21.00000, Total charge = -0.00000
