  ==> Input File <==

--------------------------------------------------------------------------
set {
	reference rhf
	basis 6-31G*
}

set_num_threads( 1 )
memory 2 gb

molecule MOL {
0 1

H	 -0.847725	 1.222724	 2.981330
C	 -1.499764	 0.418707	 2.617978
C	 -2.194627	 0.703400	 1.310795
O	 -1.617650	 -0.583832	 3.244690
C	 -1.220012	 1.144545	 0.209990
H	 -2.751265	 -0.179879	 1.019796
H	 -2.910608	 1.503067	 1.496699
C	 -0.252658	 0.041456	 -0.226725
H	 -1.797438	 1.478104	 -0.647100
H	 -0.657490	 2.011971	 0.551892
C	 1.180775	 0.282413	 0.250794
H	 -0.266029	 -0.034465	 -1.312038
H	 -0.597733	 -0.921000	 0.146291
C	 2.148627	 -0.814315	 -0.201312
H	 1.516199	 1.249228	 -0.115937
H	 1.192670	 0.346017	 1.338083
C	 3.580890	 -0.659131	 0.322722
H	 2.166869	 -0.852443	 -1.289387
H	 1.762857	 -1.776509	 0.128956
C	 4.324889	 0.564933	 -0.213704
H	 4.142010	 -1.551473	 0.056605
H	 3.564836	 -0.624694	 1.410140
H	 4.342616	 0.565491	 -1.300421
H	 3.866655	 1.493402	 0.110242
H	 5.353900	 0.572371	 0.132816

	symmetry c1
}
set optking {
	frozen_dihedral = ("
		6 3 5 8,
		6 3 2 4,
		12 8 11 14,
		8 11 14 18,
		20 17 14 18
	")
}

ee = energy('scf')
oeprop('DIPOLE', 'QUADRUPOLE', 'MULLIKEN_CHARGES')
f=open( 'psi4out.xyz', 'w' )
f.write( "25  " )
f.write( str(ee) + "\n" )
f.write( MOL.save_string_xyz() )
f.close()
--------------------------------------------------------------------------

    Molecular point group: c1

    Geometry (in Angstrom), charge = 0, multiplicity = 1:

       Center              X                  Y                   Z               Mass
    ------------   -----------------  -----------------  -----------------  -----------------
           H         -1.356349812063     1.102657821495     2.157963564523     1.007825032070
           C         -2.008388812063     0.298640821495     1.794611564523    12.000000000000
           C         -2.703251812063     0.583333821495     0.487428564523    12.000000000000
           O         -2.126274812063    -0.703898178505     2.421323564523    15.994914619560
           C         -1.728636812063     1.024478821495    -0.613376435477    12.000000000000
           H         -3.259889812063    -0.299945178505     0.196429564523     1.007825032070
           H         -3.419232812063     1.383000821495     0.673332564523     1.007825032070
           C         -0.761282812063    -0.078610178505    -1.050091435477    12.000000000000
           H         -2.306062812063     1.358037821495    -1.470466435477     1.007825032070
           H         -1.166114812063     1.891904821495    -0.271474435477     1.007825032070
           C          0.672150187937     0.162346821495    -0.572572435477    12.000000000000
           H         -0.774653812063    -0.154531178505    -2.135404435477     1.007825032070
           H         -1.106357812063    -1.041066178505    -0.677075435477     1.007825032070
           C          1.640002187937    -0.934381178505    -1.024678435477    12.000000000000
           H          1.007574187937     1.129161821495    -0.939303435477     1.007825032070
           H          0.684045187937     0.225950821495     0.514716564523     1.007825032070
           C          3.072265187937    -0.779197178505    -0.500644435477    12.000000000000
           H          1.658244187937    -0.972509178505    -2.112753435477     1.007825032070
           H          1.254232187937    -1.896575178505    -0.694410435477     1.007825032070
           C          3.816264187937     0.444866821495    -1.037070435477    12.000000000000
           H          3.633385187937    -1.671539178505    -0.766761435477     1.007825032070
           H          3.056211187937    -0.744760178505     0.586773564523     1.007825032070
           H          3.833991187937     0.445424821495    -2.123787435477     1.007825032070
           H          3.358030187937     1.373335821495    -0.713124435477     1.007825032070
           H          4.845275187937     0.452304821495    -0.690550435477     1.007825032070

  Charge       = 0
  Multiplicity = 1
  Basis Set: 6-31G*
  Basis Set:

    Orbital Energies (a.u.)
    -----------------------

    Doubly Occupied:

       1A    -20.562703     2A    -11.326406     3A    -11.234846
       4A    -11.233439     5A    -11.221737     6A    -11.219738
       7A    -11.216531     8A    -11.215584     9A    -11.209799
      10A     -1.402642    11A     -1.104299    12A     -1.068362
      13A     -1.011546    14A     -0.942712    15A     -0.877257
      16A     -0.816542    17A     -0.790455    18A     -0.779686
      19A     -0.664259    20A     -0.655074    21A     -0.643162
      22A     -0.618377    23A     -0.614287    24A     -0.578632
      25A     -0.572450    26A     -0.561743    27A     -0.531513
      28A     -0.521120    29A     -0.510945    30A     -0.503149
      31A     -0.486722    32A     -0.473860    33A     -0.460789
      34A     -0.458288    35A     -0.441317    36A     -0.409183

  @DF-RHF Final Energy:  -387.11666993538944

   => Energetics <=

    Nuclear Repulsion Energy =            449.3230049736565093
    One-Electron Energy =               -1415.0008578571168982
    Two-Electron Energy =                 578.5611829480708366
    DFT Exchange-Correlation Energy =       0.0000000000000000
    Empirical Dispersion Energy =           0.0000000000000000
    PCM Polarization Energy =               0.0000000000000000
    EFP Energy =                            0.0000000000000000
    Total Energy =                       -387.1166699353896092

  Mulliken Charges: (a.u.)
   Center  Symbol    Alpha    Beta     Spin     Total
       1     H     0.43227  0.43227  0.00000  0.13545
       2     C     2.83064  2.83064  0.00000  0.33873
       3     C     3.20888  3.20888  0.00000 -0.41776
       4     O     4.23835  4.23835  0.00000 -0.47671
       5     C     3.16826  3.16826  0.00000 -0.33653
       6     H     0.39945  0.39945  0.00000  0.20111
       7     H     0.40777  0.40777  0.00000  0.18445
       8     C     3.16086  3.16086  0.00000 -0.32172
       9     H     0.41048  0.41048  0.00000  0.17905
      10     H     0.41708  0.41708  0.00000  0.16583
      11     C     3.15755  3.15755  0.00000 -0.31510
      12     H     0.41695  0.41695  0.00000  0.16610
      13     H     0.41276  0.41276  0.00000  0.17448
      14     C     3.15350  3.15350  0.00000 -0.30701
      15     H     0.42052  0.42052  0.00000  0.15895
      16     H     0.42333  0.42333  0.00000  0.15334
      17     C     3.15299  3.15299  0.00000 -0.30599
      18     H     0.42406  0.42406  0.00000  0.15188
      19     H     0.41903  0.41903  0.00000  0.16195
      20     C     3.24120  3.24120  0.00000 -0.48241
      21     H     0.42013  0.42013  0.00000  0.15974
      22     H     0.42178  0.42178  0.00000  0.15645
      23     H     0.42239  0.42239  0.00000  0.15522
      24     H     0.42117  0.42117  0.00000  0.15766
      25     H     0.41858  0.41858  0.00000  0.16284

   Total alpha = 36.00000, Total beta = 36.00000, Total charge =  0.00000
