  ==> Input File <==

--------------------------------------------------------------------------
set {
	reference rhf
	basis 6-31G*
}

set_num_threads( 4 )
memory 2 gb

molecule MOL {
0 1

O	 1.214711	 1.306902	 -0.000018
C	 1.122059	 0.121804	 -0.000188
C	 -0.170150	 -0.657997	 -0.000612
O	 2.172624	 -0.688929	 0.000216
C	 -1.412532	 0.227344	 -0.000452
H	 -0.153702	 -1.313099	 -0.867402
H	 -0.153924	 -1.313811	 0.865644
C	 -1.435176	 1.197164	 1.182047
H	 -2.298955	 -0.399020	 0.020208
H	 -1.457242	 0.782257	 -0.932426
C	 -2.675999	 2.088965	 1.189242
H	 -1.389384	 0.636038	 2.113238
H	 -0.543599	 1.820527	 1.157981
H	 -3.584011	 1.495869	 1.247598
H	 -2.667553	 2.766443	 2.037315
H	 -2.731850	 2.689258	 0.285821
C	 3.452279	 -0.082609	 0.000533
H	 3.583069	 0.529321	 -0.880332
H	 4.163299	 -0.894027	 0.001117
H	 3.582335	 0.529955	 0.881077

	symmetry c1
}
set optking {
	frozen_dihedral = ("
		9 5 3 6
	")
}

ee = optimize('scf')
oeprop('DIPOLE', 'QUADRUPOLE', 'MULLIKEN_CHARGES')
f=open( 'psi4out.xyz', 'w' )
f.write( "20  " )
f.write( str(ee) + "\n" )
f.write( MOL.save_string_xyz() )
f.close()
--------------------------------------------------------------------------

    Molecular point group: c1
  Charge       = 0
  Multiplicity = 1
  Basis Set: 6-31G*
  Basis Set:
  @DF-RHF Final Energy:  -383.93718516163142
    Total Energy =                       -383.9371851616311915
    Molecular point group: c1
  Basis Set: 6-31G*
  Basis Set:
  Basis Set: 6-31G*
  Basis Set:
  @DF-RHF Final Energy:  -383.93979760029725
    Total Energy =                       -383.9397976002975383
  Basis Set: 6-31G*
  Basis Set:
  Basis Set: 6-31G*
  Basis Set:
  @DF-RHF Final Energy:  -383.93921665371425
    Total Energy =                       -383.9392166537140838
  Basis Set: 6-31G*
  Basis Set:
  Basis Set: 6-31G*
  Basis Set:
  @DF-RHF Final Energy:  -383.94036236008708
    Total Energy =                       -383.9403623600871924
  Basis Set: 6-31G*
  Basis Set:
  @DF-RHF Final Energy:  -383.94057183210589
    Total Energy =                       -383.9405718321061158
  Basis Set: 6-31G*
  Basis Set:
  @DF-RHF Final Energy:  -383.94063541749881
    Total Energy =                       -383.9406354174986973
  Basis Set: 6-31G*
  Basis Set:
  Basis Set: 6-31G*
  Basis Set:
  @DF-RHF Final Energy:  -383.94066228119033
    Total Energy =                       -383.9406622811902707
  Basis Set: 6-31G*
  Basis Set:
  Basis Set: 6-31G*
  Basis Set:
  @DF-RHF Final Energy:  -383.94066827007742
    Total Energy =                       -383.9406682700772535
  Basis Set: 6-31G*
  Basis Set:
  Charge       = 0
  Multiplicity = 1
  Basis Set: 6-31G*
  Basis Set:

    Orbital Energies (a.u.)
    -----------------------

    Doubly Occupied:

       1A    -20.605189     2A    -20.545140     3A    -11.372974
       4A    -11.281438     5A    -11.236074     6A    -11.221306
       7A    -11.213592     8A    -11.207364     9A     -1.470354
      10A     -1.363079    11A     -1.086784    12A     -1.021818
      13A     -0.969138    14A     -0.884459    15A     -0.806074
      16A     -0.765904    17A     -0.699654    18A     -0.680822
      19A     -0.671842    20A     -0.634375    21A     -0.605349
      22A     -0.587520    23A     -0.580744    24A     -0.538244
      25A     -0.535761    26A     -0.517482    27A     -0.512280
      28A     -0.477196    29A     -0.471831    30A     -0.462915
      31A     -0.455234    32A     -0.434326

  @DF-RHF Final Energy:  -383.94066852044995

   => Energetics <=

    Nuclear Repulsion Energy =            389.6286607209495401
    One-Electron Energy =               -1295.3061332389545441
    Two-Electron Energy =                 521.7368039975551710
    DFT Exchange-Correlation Energy =       0.0000000000000000
    Empirical Dispersion Energy =           0.0000000000000000
    PCM Polarization Energy =               0.0000000000000000
    EFP Energy =                            0.0000000000000000
    Total Energy =                       -383.9406685204498899
    Molecular point group: c1
  Basis Set: 6-31G*
  Basis Set:

  -Total Gradient:
     Atom            X                  Y                   Z
    ------   -----------------  -----------------  -----------------
       1       -0.000008949775     0.000000084612     0.000001894930
       2       -0.000001576855     0.000014109587    -0.000007483122
       3       -0.001772565125    -0.002491811497     0.002397494078
       4        0.000013146312    -0.000019170687    -0.000013163406
       5        0.000243904744     0.000583057097    -0.003761105072
       6        0.001430040031     0.002002374422    -0.001425972694
       7        0.000000652154    -0.000006205210    -0.000002204593
       8       -0.000004442297    -0.000036146654     0.000011364300
       9        0.000093011554    -0.000064017591     0.002809796906
      10        0.000005585622    -0.000005815557    -0.000007771573
      11       -0.000007776305    -0.000000210535    -0.000009524153
      12        0.000012716797     0.000006334314     0.000008124789
      13        0.000012968671     0.000004640699    -0.000013898905
      14        0.000001066310     0.000000776859    -0.000005892028
      15        0.000004629566    -0.000010889155     0.000000206984
      16       -0.000002069094     0.000010844906     0.000000387348
      17       -0.000021014190     0.000019894621     0.000033733192
      18       -0.000005679536    -0.000002443663    -0.000008058884
      19       -0.000005946117    -0.000004703764    -0.000004372226
      20        0.000012297525    -0.000000702797    -0.000003555873

  **** Optimization is complete! (in 9 steps) ****
    Final optimized geometry and variables:
    Molecular point group: c1

    Geometry (in Angstrom), charge = 0, multiplicity = 1:

    O            0.958306992799     0.783310616761    -0.808986708843
    C            0.817101477895    -0.330754430422    -0.416541087836
    C           -0.500430231320    -1.065882913053    -0.326144078625
    O            1.830122461333    -1.101555642391    -0.045212153840
    C           -1.721750947417    -0.148514439234    -0.265104641190
    H           -0.539099187045    -1.676181181124    -1.226385515122
    H           -0.464656157847    -1.746753933653     0.516011848967
    C           -1.762856681165     0.752123774522     0.973157061535
    H           -2.606808830501    -0.780268721487    -0.252344304028
    H           -1.764978096004     0.458162270423    -1.162941725026
    C           -3.033803141915     1.598610856535     1.034476070064
    H           -1.699031131785     0.134237145074     1.867462448705
    H           -0.896940542942     1.404593966731     0.978963788411
    H           -3.923165182054     0.974851893980     1.060309436385
    H           -3.044044221826     2.225663249292     1.920469456647
    H           -3.110813663595     2.249421359958     0.168358983171
    C            3.129721145188    -0.547464449313    -0.144831167348
    H            3.350923793647    -0.278995185027    -1.167813758593
    H            3.805175644831    -1.317170431624     0.194527627237
    H            3.217035173392     0.329847511517     0.479654269749

  Mulliken Charges: (a.u.)
   Center  Symbol    Alpha    Beta     Spin     Total
       1     O     4.28795  4.28795  0.00000 -0.57591
       2     C     2.60604  2.60604  0.00000  0.78792
       3     C     3.20886  3.20886  0.00000 -0.41771
       4     O     4.30579  4.30579  0.00000 -0.61159
       5     C     3.15178  3.15178  0.00000 -0.30356
       6     H     0.39814  0.39814  0.00000  0.20371
       7     H     0.40057  0.40057  0.00000  0.19886
       8     C     3.15978  3.15978  0.00000 -0.31957
       9     H     0.41963  0.41963  0.00000  0.16074
      10     H     0.40880  0.40880  0.00000  0.18240
      11     C     3.24013  3.24013  0.00000 -0.48026
      12     H     0.42604  0.42604  0.00000  0.14792
      13     H     0.40687  0.40687  0.00000  0.18625
      14     H     0.42337  0.42337  0.00000  0.15325
      15     H     0.41861  0.41861  0.00000  0.16278
      16     H     0.41892  0.41892  0.00000  0.16217
      17     C     3.09269  3.09269  0.00000 -0.18539
      18     H     0.40905  0.40905  0.00000  0.18190
      19     H     0.40829  0.40829  0.00000  0.18342
      20     H     0.40866  0.40866  0.00000  0.18268

   Total alpha = 32.00000, Total beta = 32.00000, Total charge =  0.00000
