  ==> Input File <==

--------------------------------------------------------------------------
set {
	reference rhf
	basis 6-31G*
}

set_num_threads( 1 )
memory 2 gb

molecule MOL {
0 1

O	 -2.042549	 -1.228399	 -0.269030
C	 -1.653912	 -0.146171	 0.050137
C	 -0.332303	 0.024011	 0.778412
C	 -2.438579	 1.106236	 -0.272369
C	 0.826507	 0.187812	 -0.217681
H	 -0.371708	 0.881693	 1.444154
H	 -0.171158	 -0.864085	 1.379443
C	 2.182471	 0.331722	 0.474910
H	 0.650952	 1.058998	 -0.846408
H	 0.840209	 -0.674446	 -0.877578
C	 3.337714	 0.485780	 -0.513465
H	 2.158849	 1.191437	 1.141061
H	 2.357310	 -0.538427	 1.103273
H	 3.208558	 1.367831	 -1.134237
H	 3.406727	 -0.374802	 -1.172312
H	 4.286187	 0.582654	 0.005227
H	 -3.277823	 0.863061	 -0.908988
H	 -1.806773	 1.843019	 -0.759671
H	 -2.802853	 1.554979	 0.648059

	symmetry c1
}
set optking {
	frozen_dihedral = ("
		11 8 5 9,
		9 5 3 2
	")
}

ee = energy('scf')
oeprop('DIPOLE', 'QUADRUPOLE', 'MULLIKEN_CHARGES')
f=open( 'psi4out.xyz', 'w' )
f.write( "19  " )
f.write( str(ee) + "\n" )
f.write( MOL.save_string_xyz() )
f.close()
--------------------------------------------------------------------------

    Molecular point group: c1

    Geometry (in Angstrom), charge = 0, multiplicity = 1:

       Center              X                  Y                   Z               Mass
    ------------   -----------------  -----------------  -----------------  -----------------
           O         -2.031930435810    -1.340003721349    -0.262220162663    15.994914619560
           C         -1.643293435810    -0.257775721349     0.056946837337    12.000000000000
           C         -0.321684435810    -0.087593721349     0.785221837337    12.000000000000
           C         -2.427960435810     0.994631278651    -0.265559162663    12.000000000000
           C          0.837125564190     0.076207278651    -0.210871162663    12.000000000000
           H         -0.361089435810     0.770088278651     1.450963837337     1.007825032070
           H         -0.160539435810    -0.975689721349     1.386252837337     1.007825032070
           C          2.193089564190     0.220117278651     0.481719837337    12.000000000000
           H          0.661570564190     0.947393278651    -0.839598162663     1.007825032070
           H          0.850827564190    -0.786050721349    -0.870768162663     1.007825032070
           C          3.348332564190     0.374175278651    -0.506655162663    12.000000000000
           H          2.169467564190     1.079832278651     1.147870837337     1.007825032070
           H          2.367928564190    -0.650031721349     1.110082837337     1.007825032070
           H          3.219176564190     1.256226278651    -1.127427162663     1.007825032070
           H          3.417345564190    -0.486406721349    -1.165502162663     1.007825032070
           H          4.296805564190     0.471049278651     0.012036837337     1.007825032070
           H         -3.267204435810     0.751456278651    -0.902178162663     1.007825032070
           H         -1.796154435810     1.731414278651    -0.752861162663     1.007825032070
           H         -2.792234435810     1.443374278651     0.654868837337     1.007825032070

  Charge       = 0
  Multiplicity = 1
  Basis Set: 6-31G*
  Basis Set:

    Orbital Energies (a.u.)
    -----------------------

    Doubly Occupied:

       1A    -20.547640     2A    -11.324471     3A    -11.231517
       4A    -11.229360     5A    -11.228243     6A    -11.225484
       7A    -11.215460     8A     -1.393220     9A     -1.092237
      10A     -1.029441    11A     -0.983637    12A     -0.890519
      13A     -0.807550    14A     -0.733471    15A     -0.663891
      16A     -0.645528    17A     -0.623021    18A     -0.613481
      19A     -0.582190    20A     -0.573573    21A     -0.553115
      22A     -0.537178    23A     -0.511597    24A     -0.501173
      25A     -0.483325    26A     -0.476411    27A     -0.467849
      28A     -0.396864

  @DF-RHF Final Energy:  -309.06510954614578

   => Energetics <=

    Nuclear Repulsion Energy =            301.3209759631773750
    One-Electron Energy =               -1015.6493259466903964
    Two-Electron Energy =                 405.2632404373678696
    DFT Exchange-Correlation Energy =       0.0000000000000000
    Empirical Dispersion Energy =           0.0000000000000000
    PCM Polarization Energy =               0.0000000000000000
    EFP Energy =                            0.0000000000000000
    Total Energy =                       -309.0651095461451519

  Mulliken Charges: (a.u.)
   Center  Symbol    Alpha    Beta     Spin     Total
       1     O     4.26135  4.26135  0.00000 -0.52269
       2     C     2.73754  2.73754  0.00000  0.52491
       3     C     3.20012  3.20012  0.00000 -0.40025
       4     C     3.28946  3.28946  0.00000 -0.57892
       5     C     3.16224  3.16224  0.00000 -0.32448
       6     H     0.41662  0.41662  0.00000  0.16676
       7     H     0.40064  0.40064  0.00000  0.19872
       8     C     3.15157  3.15157  0.00000 -0.30314
       9     H     0.42087  0.42087  0.00000  0.15825
      10     H     0.40765  0.40765  0.00000  0.18469
      11     C     3.24038  3.24038  0.00000 -0.48076
      12     H     0.42211  0.42211  0.00000  0.15578
      13     H     0.41884  0.41884  0.00000  0.16232
      14     H     0.42121  0.42121  0.00000  0.15758
      15     H     0.41888  0.41888  0.00000  0.16224
      16     H     0.41725  0.41725  0.00000  0.16550
      17     H     0.39678  0.39678  0.00000  0.20643
      18     H     0.40964  0.40964  0.00000  0.18073
      19     H     0.40684  0.40684  0.00000  0.18632

   Total alpha = 28.00000, Total beta = 28.00000, Total charge =  0.00000
