                              Psi4 1.0.54 Driver

  ==> Input File <==

--------------------------------------------------------------------------
set {
	reference rhf
	basis cc-pvtz
}

set_num_threads( 4 )
memory 2 gb

molecule MOL {
0 1

O	 1.060984	 0.693359	 -0.928100
C	 0.576499	 0.134701	 -0.003900
C	 -0.765656	 -0.550508	 -0.002152
O	 1.162742	 0.045961	 1.178647
C	 -1.945526	 0.411052	 0.000603
H	 -0.794329	 -1.203792	 -0.868145
H	 -0.791555	 -1.205429	 0.862701
C	 -3.282915	 -0.321280	 0.002596
H	 -1.880300	 1.059126	 -0.864925
H	 -1.877207	 1.057892	 0.866807
H	 -3.388495	 -0.952755	 -0.873419
H	 -4.107811	 0.380864	 0.004116
H	 -3.385717	 -0.953283	 0.878571
C	 2.431744	 0.652084	 1.320981
H	 3.142587	 0.213035	 0.636881
H	 2.734597	 0.471408	 2.339473
H	 2.370388	 1.713606	 1.132705

	symmetry c1
}
set optking {
	frozen_dihedral = ("
		1 2 3 6
	")
}

ee,wfn = optimize('scf', return_wfn=True)
oeprop( wfn, 'DIPOLE', 'QUADRUPOLE', 'MULLIKEN_CHARGES')
f=open( 'psi4out.xyz', 'w' )
f.write( "17  " )
f.write( str(ee) + "\n" )
f.write( MOL.save_string_xyz() )
f.close()
--------------------------------------------------------------------------

    Molecular point group: c1
  Charge       = 0
  Multiplicity = 1
  Basis Set: CC-PVTZ
  Basis Set:
  @DF-RHF Final Energy:  -345.03323840208839
    Total Energy =                       -345.0332384020881591
    Molecular point group: c1
  Basis Set: CC-PVTZ
  Basis Set:
  Basis Set: CC-PVTZ
  Basis Set:
  @DF-RHF Final Energy:  -345.03382239011904
    Total Energy =                       -345.0338223901191554
  Basis Set: CC-PVTZ
  Basis Set:
  Basis Set: CC-PVTZ
  Basis Set:
  @DF-RHF Final Energy:  -344.99568386248166
    Total Energy =                       -344.9956838624814282
  Basis Set: CC-PVTZ
  Basis Set:
  Basis Set: CC-PVTZ
  Basis Set:
  @DF-RHF Final Energy:  -345.03221532831651
    Total Energy =                       -345.0322153283163402
  Basis Set: CC-PVTZ
  Basis Set:
  Basis Set: CC-PVTZ
  Basis Set:
  @DF-RHF Final Energy:  -345.03393402898780
    Total Energy =                       -345.0339340289879146
  Basis Set: CC-PVTZ
  Basis Set:
  Basis Set: CC-PVTZ
  Basis Set:
  @DF-RHF Final Energy:  -345.03397689654895
    Total Energy =                       -345.0339768965492340
  Basis Set: CC-PVTZ
  Basis Set:
  Basis Set: CC-PVTZ
  Basis Set:
  @DF-RHF Final Energy:  -345.03400161653383
    Total Energy =                       -345.0340016165339421
  Basis Set: CC-PVTZ
  Basis Set:
  Charge       = 0
  Multiplicity = 1
  Basis Set: CC-PVTZ
  Basis Set:

    Orbital Energies (a.u.)
    -----------------------

    Doubly Occupied:

       1A    -20.598854     2A    -20.531514     3A    -11.364013
       4A    -11.278710     5A    -11.232543     6A    -11.228668
       7A    -11.215817     8A     -1.472659     9A     -1.364793
      10A     -1.083988    11A     -1.001296    12A     -0.942317
      13A     -0.829556    14A     -0.774970    15A     -0.700586
      16A     -0.683462    17A     -0.676258    18A     -0.637655
      19A     -0.596319    20A     -0.583812    21A     -0.559046
      22A     -0.538574    23A     -0.527495    24A     -0.505827
      25A     -0.485808    26A     -0.484648    27A     -0.458126
      28A     -0.437077

  @DF-RHF Final Energy:  -345.03400209968260

   => Energetics <=

    Nuclear Repulsion Energy =            313.8167754321859206
    One-Electron Energy =               -1092.1127737888891716
    Two-Electron Energy =                 433.2619962570205416
    DFT Exchange-Correlation Energy =       0.0000000000000000
    Empirical Dispersion Energy =           0.0000000000000000
    PCM Polarization Energy =               0.0000000000000000
    EFP Energy =                            0.0000000000000000
    Total Energy =                       -345.0340020996826524
    Molecular point group: c1
  Basis Set: CC-PVTZ
  Basis Set:

  -Total Gradient:
     Atom            X                  Y                   Z
    ------   -----------------  -----------------  -----------------
       1       -0.000131383511     0.000064435816     0.000148171428
       2        0.000154340677    -0.000078650931    -0.000303723467
       3       -0.000037712828     0.000184046137     0.000018196219
       4        0.000070583337    -0.000052453096     0.000148924387
       5        0.000007940920     0.000018110898     0.000006735870
       6        0.000043692171    -0.000133927587     0.000039942314
       7        0.000007550613     0.000008664215    -0.000000549558
       8       -0.000013689159     0.000004799985     0.000003238865
       9       -0.000003761662     0.000001039161    -0.000003101254
      10       -0.000003670222    -0.000000154468    -0.000000809719
      11        0.000002989450     0.000001499250     0.000001126066
      12       -0.000000580394    -0.000002824336    -0.000001999481
      13        0.000006529798     0.000001442581    -0.000002549841
      14       -0.000059845534    -0.000020038453    -0.000052666066
      15       -0.000011064611     0.000003621133     0.000013973848
      16       -0.000023246421     0.000000201862    -0.000014025466
      17       -0.000008672623     0.000000187836    -0.000000884146

  **** Optimization is complete! (in 8 steps) ****
    Final optimized geometry and variables:
    Molecular point group: c1

    Geometry (in Angstrom), charge = 0, multiplicity = 1:

    O            1.183234517219     0.674886004828    -0.957066767276
    C            0.640699923569    -0.080524645734    -0.223368370979
    C           -0.778417193635    -0.557020750794    -0.399394753039
    O            1.216039480392    -0.580342510141     0.856425916010
    C           -1.778680061414     0.572713060967    -0.135071366031
    H           -0.875634621454    -0.897348805049    -1.423145750701
    H           -0.966315794721    -1.393037441821     0.259661530755
    C           -3.220298496468     0.127031663565    -0.349168283446
    H           -1.547205583823     1.405134412763    -0.788086059471
    H           -1.656136381842     0.928145470006     0.883426181054
    H           -3.378581076436    -0.205655940441    -1.369318140384
    H           -3.908964247225     0.940653877069    -0.155475067094
    H           -3.481274632995    -0.692710798883     0.311480622589
    C            2.542735744705    -0.174865356043     1.128549260244
    H            3.200148360961    -0.457282797315     0.319889200302
    H            2.828418484327    -0.681822247079     2.035835791515
    H            2.593164364392     0.894945495910     1.266424707847

  Mulliken Charges: (a.u.)
   Center  Symbol    Alpha    Beta     Spin     Total
       1     O     4.20526  4.20526  0.00000 -0.41051
       2     C     2.80942  2.80942  0.00000  0.38117
       3     C     3.07939  3.07939  0.00000 -0.15877
       4     O     4.14579  4.14579  0.00000 -0.29157
       5     C     3.08952  3.08952  0.00000 -0.17904
       6     H     0.44326  0.44326  0.00000  0.11348
       7     H     0.44187  0.44187  0.00000  0.11626
       8     C     3.15139  3.15139  0.00000 -0.30279
       9     H     0.44079  0.44079  0.00000  0.11842
      10     H     0.45085  0.45085  0.00000  0.09831
      11     H     0.45325  0.45325  0.00000  0.09349
      12     H     0.44606  0.44606  0.00000  0.10789
      13     H     0.45469  0.45469  0.00000  0.09063
      14     C     3.03519  3.03519  0.00000 -0.07039
      15     H     0.45380  0.45380  0.00000  0.09240
      16     H     0.44531  0.44531  0.00000  0.10939
      17     H     0.45418  0.45418  0.00000  0.09165

   Total alpha = 28.00000, Total beta = 28.00000, Total charge =  0.00000

*** Psi4 exiting successfully. Buy a developer a beer!
