  ==> Input File <==

--------------------------------------------------------------------------
set {
	reference rhf
	basis cc-pvtz
}

set_num_threads( 4 )
memory 2 gb

molecule MOL {
0 1

H	 2.807452	 -0.332712	 0.470105
O	 1.969864	 -0.770557	 0.491886
C	 1.050374	 0.054877	 0.000135
C	 -0.318151	 -0.570512	 0.000144
O	 1.319178	 1.141542	 -0.380484
C	 -1.454884	 0.441630	 -0.000560
H	 -0.371613	 -1.223646	 -0.864985
H	 -0.371920	 -1.222758	 0.865929
C	 -2.822577	 -0.232186	 0.000063
H	 -1.359760	 1.084704	 -0.867077
H	 -1.359641	 1.085996	 0.864983
H	 -2.954352	 -0.858985	 -0.875745
H	 -3.615886	 0.505352	 0.000019
H	 -2.953878	 -0.858359	 0.876394

	symmetry c1
}
set optking {
	frozen_dihedral = ("
		2 3 4 7
	")
}

ee = optimize('scf')
oeprop('DIPOLE', 'QUADRUPOLE', 'MULLIKEN_CHARGES')
f=open( 'psi4out.xyz', 'w' )
f.write( "14  " )
f.write( str(ee) + "\n" )
f.write( MOL.save_string_xyz() )
f.close()
--------------------------------------------------------------------------

    Molecular point group: c1
  Charge       = 0
  Multiplicity = 1
  Basis Set: CC-PVTZ
  Basis Set:
  @DF-RHF Final Energy:  -306.00040299000034
    Total Energy =                       -306.0004029900002251
    Molecular point group: c1
  Basis Set: CC-PVTZ
  Basis Set:
  Basis Set: CC-PVTZ
  Basis Set:
  @DF-RHF Final Energy:  -306.00048333372956
    Total Energy =                       -306.0004833337295054
  Basis Set: CC-PVTZ
  Basis Set:
  Basis Set: CC-PVTZ
  Basis Set:
  @DF-RHF Final Energy:  -306.00019802443182
    Total Energy =                       -306.0001980244316542
  Basis Set: CC-PVTZ
  Basis Set:
  Basis Set: CC-PVTZ
  Basis Set:
  @DF-RHF Final Energy:  -306.00059508914353
    Total Energy =                       -306.0005950891436441
  Basis Set: CC-PVTZ
  Basis Set:
  Basis Set: CC-PVTZ
  Basis Set:
  @DF-RHF Final Energy:  -306.00059640404800
    Total Energy =                       -306.0005964040481103
  Basis Set: CC-PVTZ
  Basis Set:
  Charge       = 0
  Multiplicity = 1
  Basis Set: CC-PVTZ
  Basis Set:

    Orbital Energies (a.u.)
    -----------------------

    Doubly Occupied:

       1A    -20.605236     2A    -20.540268     3A    -11.374108
       4A    -11.239678     5A    -11.224844     6A    -11.215715
       7A     -1.478330     8A     -1.369414     9A     -1.084525
      10A     -0.980736    11A     -0.858976    12A     -0.794810
      13A     -0.705028    14A     -0.691776    15A     -0.666774
      16A     -0.620230    17A     -0.596698    18A     -0.574254
      19A     -0.547376    20A     -0.508038    21A     -0.492461
      22A     -0.484083    23A     -0.482569    24A     -0.446825

  @DF-RHF Final Energy:  -306.00059643759329

   => Energetics <=

    Nuclear Repulsion Energy =            240.4312050869087329
    One-Electron Energy =                -893.6981018345559278
    Two-Electron Energy =                 347.2663003100539072
    DFT Exchange-Correlation Energy =       0.0000000000000000
    Empirical Dispersion Energy =           0.0000000000000000
    PCM Polarization Energy =               0.0000000000000000
    EFP Energy =                            0.0000000000000000
    Total Energy =                       -306.0005964375933445
    Molecular point group: c1
  Basis Set: CC-PVTZ
  Basis Set:

  -Total Gradient:
     Atom            X                  Y                   Z
    ------   -----------------  -----------------  -----------------
       1        0.000004442155    -0.000000820469     0.000001077907
       2       -0.000109779535     0.000292936105     0.000803123814
       3        0.000074003649    -0.000211658116    -0.001195280313
       4        0.000395720839    -0.000829483687     0.000914594821
       5        0.000001212018    -0.000025697066     0.000014295648
       6       -0.000000031553     0.000001042357     0.000026034158
       7       -0.000362735396     0.000766774701    -0.000544870481
       8        0.000000510842     0.000006400502    -0.000004800170
       9       -0.000001990343    -0.000000597745    -0.000012809549
      10       -0.000003328322    -0.000003411791     0.000001402602
      11        0.000002110739     0.000004854488    -0.000000308801
      12       -0.000004078885    -0.000005307515    -0.000000273238
      13        0.000000190410     0.000000386970    -0.000001349207
      14        0.000003753390     0.000004581268    -0.000000837188

  **** Optimization is complete! (in 6 steps) ****
    Final optimized geometry and variables:
    Molecular point group: c1

    Geometry (in Angstrom), charge = 0, multiplicity = 1:

    H            2.825781838825    -0.336972665664     0.378961596252
    O            1.988600587382    -0.771166772192     0.447513929098
    C            1.051073041595     0.049373724690    -0.016083964398
    C           -0.315956132760    -0.580853069271     0.006566910731
    O            1.304220005309     1.136262521481    -0.407404025389
    C           -1.451341066756     0.435347509240    -0.018948986657
    H           -0.367700603217    -1.222377674539    -0.869348097839
    H           -0.380450719080    -1.231858896423     0.869093401324
    C           -2.820410655669    -0.234911157409    -0.041755555741
    H           -1.335439431228     1.075303743383    -0.883818032850
    H           -1.373348361120     1.080370782563     0.849444063949
    H           -2.937445439186    -0.860474541562    -0.920528056487
    H           -3.611648026784     0.504749935877    -0.055732821883
    H           -2.969096763027    -0.861402966695     0.831471182874

  Mulliken Charges: (a.u.)
   Center  Symbol    Alpha    Beta     Spin     Total
       1     H     0.38151  0.38151  0.00000  0.23698
       2     O     4.15930  4.15930  0.00000 -0.31861
       3     C     2.80778  2.80778  0.00000  0.38445
       4     C     3.10063  3.10063  0.00000 -0.20127
       5     O     4.19266  4.19266  0.00000 -0.38533
       6     C     3.08145  3.08145  0.00000 -0.16290
       7     H     0.44243  0.44243  0.00000  0.11514
       8     H     0.43693  0.43693  0.00000  0.12614
       9     C     3.15008  3.15008  0.00000 -0.30016
      10     H     0.44183  0.44183  0.00000  0.11635
      11     H     0.44967  0.44967  0.00000  0.10066
      12     H     0.45500  0.45500  0.00000  0.09001
      13     H     0.44520  0.44520  0.00000  0.10960
      14     H     0.45553  0.45553  0.00000  0.08894

   Total alpha = 24.00000, Total beta = 24.00000, Total charge =  0.00000
