                              Psi4 1.0.54 Driver

  ==> Input File <==

--------------------------------------------------------------------------
set {
	reference rhf
	basis cc-pvtz
}

set_num_threads( 4 )
memory 2 gb

molecule MOL {
0 1

H	 -2.341272	 1.074491	 1.842774
C	 -1.675365	 1.173697	 2.696946
O	 -0.386603	 0.760315	 2.387510
H	 -1.629180	 2.214444	 2.982607
H	 -2.090830	 0.602183	 3.524982
C	 -0.287391	 -0.573066	 2.008186
C	 1.130085	 -0.882500	 1.596657
H	 -0.563761	 -1.223093	 2.838279
H	 -0.955891	 -0.787649	 1.177226
O	 1.401606	 -0.295166	 0.366636
H	 1.812514	 -0.512657	 2.358850
H	 1.251132	 -1.963850	 1.533402
C	 2.714315	 -0.441627	 -0.061017
H	 2.765292	 -0.641548	 -1.128869
H	 3.305661	 0.447341	 0.150952
H	 3.143725	 -1.278506	 0.470147

	symmetry c1
}
set optking {
	frozen_dihedral = ("
		7 10 13 14
	")
}

ee,wfn = optimize('scf', return_wfn=True)
oeprop( wfn, 'DIPOLE', 'QUADRUPOLE', 'MULLIKEN_CHARGES')
f=open( 'psi4out.xyz', 'w' )
f.write( "16  " )
f.write( str(ee) + "\n" )
f.write( MOL.save_string_xyz() )
f.close()
--------------------------------------------------------------------------

    Molecular point group: c1
  Charge       = 0
  Multiplicity = 1
  Basis Set: CC-PVTZ
  Basis Set:
  @DF-RHF Final Energy:  -307.09420183069113
    Total Energy =                       -307.0942018306911905
    Molecular point group: c1
  Basis Set: CC-PVTZ
  Basis Set:
  Basis Set: CC-PVTZ
  Basis Set:
  @DF-RHF Final Energy:  -307.09500065809641
    Total Energy =                       -307.0950006580964100
  Basis Set: CC-PVTZ
  Basis Set:
  Basis Set: CC-PVTZ
  Basis Set:
  @DF-RHF Final Energy:  -307.09523624068504
    Total Energy =                       -307.0952362406853808
  Basis Set: CC-PVTZ
  Basis Set:
  Charge       = 0
  Multiplicity = 1
  Basis Set: CC-PVTZ
  Basis Set:

    Orbital Energies (a.u.)
    -----------------------

    Doubly Occupied:

       1A    -20.547547     2A    -20.545053     3A    -11.267706
       4A    -11.266659     5A    -11.261396     6A    -11.261205
       7A     -1.390036     8A     -1.372353     9A     -1.031786
      10A     -0.937175    11A     -0.892235    12A     -0.824112
      13A     -0.685421    14A     -0.681602    15A     -0.658580
      16A     -0.636517    17A     -0.631452    18A     -0.596958
      19A     -0.553770    20A     -0.538856    21A     -0.508080
      22A     -0.479005    23A     -0.464166    24A     -0.421320
      25A     -0.411529

  @DF-RHF Final Energy:  -307.09523777453171

   => Energetics <=

    Nuclear Repulsion Energy =            258.6867694346519784
    One-Electron Energy =                -931.8349760057162712
    Two-Electron Energy =                 366.0529687965325252
    DFT Exchange-Correlation Energy =       0.0000000000000000
    Empirical Dispersion Energy =           0.0000000000000000
    PCM Polarization Energy =               0.0000000000000000
    EFP Energy =                            0.0000000000000000
    Total Energy =                       -307.0952377745317676
    Molecular point group: c1
  Basis Set: CC-PVTZ
  Basis Set:

  -Total Gradient:
     Atom            X                  Y                   Z
    ------   -----------------  -----------------  -----------------
       1        0.000003087959    -0.000000809089    -0.000001742264
       2       -0.000002586629    -0.000005762019     0.000006997072
       3        0.000001796776    -0.000006646483     0.000004568404
       4        0.000002777868    -0.000001217119    -0.000001795215
       5       -0.000002544807     0.000001089388     0.000000074783
       6       -0.000012940251     0.000039387068    -0.000057387310
       7       -0.000469478585    -0.001799405367    -0.000940081351
       8        0.000013538172    -0.000000192564     0.000003236359
       9       -0.000008022890    -0.000005351564     0.000001358832
      10        0.000816249060     0.001888434879     0.001430516628
      11        0.000014942291     0.000006042981    -0.000026523071
      12        0.000010477905     0.000020204550    -0.000032234527
      13       -0.000267474550     0.002345023192    -0.000809924825
      14       -0.000134567002    -0.002498367793     0.000437520574
      15        0.000018646235     0.000026724991    -0.000019656113
      16        0.000016098447    -0.000009155052     0.000005072024

  **** Optimization is complete! (in 4 steps) ****
    Final optimized geometry and variables:
    Molecular point group: c1

    Geometry (in Angstrom), charge = 0, multiplicity = 1:

    H           -2.830775704117     1.087192559198     0.345729161904
    C           -2.171519689071     1.181092114812     1.205624847443
    O           -0.878127095211     0.779017223348     0.900810013623
    H           -2.133795540919     2.218897515800     1.502995601770
    H           -2.589255730972     0.597987245477     2.024415683449
    C           -0.767973035738    -0.549482735851     0.507660149813
    C            0.653682307462    -0.845738454082     0.101240131393
    H           -1.044560618701    -1.210259215317     1.329283890607
    H           -1.430208500130    -0.759450476530    -0.329427943006
    O            0.924271144387    -0.243532963203    -1.122794977862
    H            1.326752658672    -0.479890723821     0.873263168872
    H            0.780827331532    -1.924926626864     0.026227197518
    C            2.236808658543    -0.359952273343    -1.573808075525
    H            2.222256863184    -0.540445844587    -2.640691308037
    H            2.800435802012     0.544393796017    -1.368046410200
    H            2.749439440384    -1.196533762576    -1.106863282681

  Mulliken Charges: (a.u.)
   Center  Symbol    Alpha    Beta     Spin     Total
       1     H     0.47015  0.47015  0.00000  0.05969
       2     C     3.03202  3.03202  0.00000 -0.06403
       3     O     4.17046  4.17046  0.00000 -0.34091
       4     H     0.44642  0.44642  0.00000  0.10716
       5     H     0.47372  0.47372  0.00000  0.05256
       6     C     2.96261  2.96261  0.00000  0.07477
       7     C     2.95910  2.95910  0.00000  0.08180
       8     H     0.47613  0.47613  0.00000  0.04774
       9     H     0.47109  0.47109  0.00000  0.05782
      10     O     4.17418  4.17418  0.00000 -0.34835
      11     H     0.47110  0.47110  0.00000  0.05779
      12     H     0.47563  0.47563  0.00000  0.04875
      13     C     3.02825  3.02825  0.00000 -0.05650
      14     H     0.45376  0.45376  0.00000  0.09247
      15     H     0.46036  0.46036  0.00000  0.07929
      16     H     0.47502  0.47502  0.00000  0.04996

   Total alpha = 25.00000, Total beta = 25.00000, Total charge = -0.00000

*** Psi4 exiting successfully. Buy a developer a beer!
