  ==> Input File <==

--------------------------------------------------------------------------
set {
	reference rhf
	basis 6-31G*
}

set_num_threads( 4 )
memory 2 gb

molecule MOL {
0 1

H	 3.089270	 -1.380733	 0.000000
O	 2.178328	 -1.639175	 0.000000
C	 1.368216	 -0.558384	 0.000000
C	 1.525107	 0.489238	 -0.898431
C	 0.352736	 -0.517947	 0.939466
H	 2.316024	 0.455798	 -1.628752
C	 0.667302	 1.575569	 -0.856911
H	 0.230446	 -1.326484	 1.634008
C	 -0.501701	 0.573282	 0.974273
H	 0.798596	 2.380291	 -1.557313
C	 -0.350299	 1.624320	 0.078634
C	 -1.594789	 0.623124	 1.981023
H	 -1.017741	 2.467153	 0.112671
O	 -1.806837	 -0.223844	 2.788629
H	 -2.220924	 1.519397	 1.937471

	symmetry c1
}
set optking {
	frozen_dihedral = ("
		4 3 2 1
	")
}

ee = optimize('scf')
oeprop('DIPOLE', 'QUADRUPOLE', 'MULLIKEN_CHARGES')
f=open( 'psi4out.xyz', 'w' )
f.write( "15  " )
f.write( str(ee) + "\n" )
f.write( MOL.save_string_xyz() )
f.close()
--------------------------------------------------------------------------

    Molecular point group: c1
  Charge       = 0
  Multiplicity = 1
  Basis Set: 6-31G*
  Basis Set:
  @DF-RHF Final Energy:  -418.28358979638199
    Total Energy =                       -418.2835897963821026
    Molecular point group: c1
  Basis Set: 6-31G*
  Basis Set:
  Basis Set: 6-31G*
  Basis Set:
  @DF-RHF Final Energy:  -418.28386497215274
    Total Energy =                       -418.2838649721529691
  Basis Set: 6-31G*
  Basis Set:
  Basis Set: 6-31G*
  Basis Set:
  @DF-RHF Final Energy:  -418.28377903183957
    Total Energy =                       -418.2837790318396856
  Basis Set: 6-31G*
  Basis Set:
  Basis Set: 6-31G*
  Basis Set:
  @DF-RHF Final Energy:  -418.28397536745257
    Total Energy =                       -418.2839753674523990
  Basis Set: 6-31G*
  Basis Set:
  Basis Set: 6-31G*
  Basis Set:
  @DF-RHF Final Energy:  -418.28398443797215
    Total Energy =                       -418.2839844379718670
  Basis Set: 6-31G*
  Basis Set:
  Charge       = 0
  Multiplicity = 1
  Basis Set: 6-31G*
  Basis Set:

    Orbital Energies (a.u.)
    -----------------------

    Doubly Occupied:

       1A    -20.593253     2A    -20.564448     3A    -11.332887
       4A    -11.307238     5A    -11.252505     6A    -11.251642
       7A    -11.250202     8A    -11.249881     9A    -11.241595
      10A     -1.410831    11A     -1.405042    12A     -1.169984
      13A     -1.048776    14A     -1.026732    15A     -0.898279
      16A     -0.844989    17A     -0.807982    18A     -0.737253
      19A     -0.699813    20A     -0.684474    21A     -0.642871
      22A     -0.636113    23A     -0.616519    24A     -0.606243
      25A     -0.556817    26A     -0.547507    27A     -0.538176
      28A     -0.505974    29A     -0.486293    30A     -0.423600
      31A     -0.352678    32A     -0.334478

  @DF-RHF Final Energy:  -418.28398606154354

   => Energetics <=

    Nuclear Repulsion Energy =            402.8071579163068350
    One-Electron Energy =               -1368.1321428711835324
    Two-Electron Energy =                 547.0409988933336081
    DFT Exchange-Correlation Energy =       0.0000000000000000
    Empirical Dispersion Energy =           0.0000000000000000
    PCM Polarization Energy =               0.0000000000000000
    EFP Energy =                            0.0000000000000000
    Total Energy =                       -418.2839860615431462
    Molecular point group: c1
  Basis Set: 6-31G*
  Basis Set:

  -Total Gradient:
     Atom            X                  Y                   Z
    ------   -----------------  -----------------  -----------------
       1        0.000091598200    -0.000008904053     0.002028179451
       2       -0.000627442556    -0.000405083752    -0.003026709815
       3        0.001618069616     0.001206837708     0.001825825406
       4       -0.000938491294    -0.000864678458    -0.000898724459
       5       -0.000116526080     0.000054737463     0.000067163077
       6       -0.000002309085     0.000002825646    -0.000013405584
       7       -0.000113716331     0.000100619876     0.000116672602
       8        0.000001477501    -0.000006179692    -0.000014383655
       9        0.000041734946    -0.000121809542     0.000063250311
      10        0.000005887182    -0.000011993035    -0.000002152485
      11        0.000061264090     0.000041538465    -0.000153260896
      12       -0.000015126452     0.000009938717    -0.000026193370
      13       -0.000011831171    -0.000004509383     0.000013203938
      14        0.000004215330     0.000002939841     0.000008028547
      15        0.000001196097     0.000003720205     0.000012506931

  **** Optimization is complete! (in 6 steps) ****
    Final optimized geometry and variables:
    Molecular point group: c1

    Geometry (in Angstrom), charge = 0, multiplicity = 1:

    H            2.874994186396    -1.559555428783    -0.645522980640
    O            1.962613238346    -1.811894722742    -0.607800300885
    C            1.159350248573    -0.713692495621    -0.566854364485
    C            1.310138573010     0.324921973513    -1.478158399294
    C            0.139360699506    -0.677518127574     0.362506606823
    H            2.093332502050     0.273296062478    -2.214203445638
    C            0.454426644825     1.411248951561    -1.441299370983
    H            0.016963279781    -1.484433746853     1.058906892832
    C           -0.727094039563     0.408975783790     0.386767154073
    H            0.581013398540     2.213075113761    -2.145704922477
    C           -0.569834047160     1.455973109302    -0.509564648095
    C           -1.826199283831     0.457693656822     1.385157101783
    H           -1.241191624685     2.296304569775    -0.482947927756
    O           -2.035194440232    -0.383907679650     2.199597560877
    H           -2.460557357124     1.347600857688     1.330412404315

  Mulliken Charges: (a.u.)
   Center  Symbol    Alpha    Beta     Spin     Total
       1     H     0.27104  0.27104  0.00000  0.45792
       2     O     4.38133  4.38133  0.00000 -0.76267
       3     C     2.80947  2.80947  0.00000  0.38105
       4     C     3.12055  3.12055  0.00000 -0.24109
       5     C     3.10911  3.10911  0.00000 -0.21822
       6     H     0.39409  0.39409  0.00000  0.21182
       7     C     3.09873  3.09873  0.00000 -0.19747
       8     H     0.37061  0.37061  0.00000  0.25879
       9     C     3.04907  3.04907  0.00000 -0.09815
      10     H     0.39283  0.39283  0.00000  0.21434
      11     C     3.11077  3.11077  0.00000 -0.22154
      12     C     2.83230  2.83230  0.00000  0.33540
      13     H     0.39251  0.39251  0.00000  0.21499
      14     O     4.24561  4.24561  0.00000 -0.49122
      15     H     0.42197  0.42197  0.00000  0.15605

   Total alpha = 32.00000, Total beta = 32.00000, Total charge = -0.00000
