  ==> Input File <==

--------------------------------------------------------------------------
set {
	reference rhf
	basis cc-pvtz
}

set_num_threads( 4 )
memory 2 gb

molecule MOL {
0 1

H	 1.615807	 -0.300339	 -1.715121
O	 0.800475	 -0.373856	 -1.255257
C	 0.700177	 0.619554	 -0.266242
C	 -0.713111	 0.588314	 0.266177
H	 0.908356	 1.599438	 -0.685066
H	 1.399620	 0.432385	 0.544390
O	 -1.421673	 -0.521378	 -0.196983
H	 -1.244794	 1.469161	 -0.069059
H	 -0.685100	 0.604721	 1.352683
H	 -0.933408	 -1.297830	 0.014544

	symmetry c1
}
set optking {
	frozen_dihedral = ("
		5 3 4 7
	")
}

ee = optimize('scf')
oeprop('DIPOLE', 'QUADRUPOLE', 'MULLIKEN_CHARGES')
f=open( 'psi4out.xyz', 'w' )
f.write( "10  " )
f.write( str(ee) + "\n" )
f.write( MOL.save_string_xyz() )
f.close()
--------------------------------------------------------------------------

    Molecular point group: c1
  Charge       = 0
  Multiplicity = 1
  Basis Set: CC-PVTZ
  Basis Set:
  @DF-RHF Final Energy:  -229.01323340776403
    Total Energy =                       -229.0132334077640621
    Molecular point group: c1
  Basis Set: CC-PVTZ
  Basis Set:
  Basis Set: CC-PVTZ
  Basis Set:
  @DF-RHF Final Energy:  -229.01443881911189
    Total Energy =                       -229.0144388191118594
  Basis Set: CC-PVTZ
  Basis Set:
  Basis Set: CC-PVTZ
  Basis Set:
  @DF-RHF Final Energy:  -229.01606167088491
    Total Energy =                       -229.0160616708848806
  Basis Set: CC-PVTZ
  Basis Set:
  Basis Set: CC-PVTZ
  Basis Set:
  @DF-RHF Final Energy:  -229.01638556434060
    Total Energy =                       -229.0163855643405668
  Basis Set: CC-PVTZ
  Basis Set:
  @DF-RHF Final Energy:  -229.01663645292436
    Total Energy =                       -229.0166364529244447
  @DF-RHF Final Energy:  -229.01731905073973
    Total Energy =                       -229.0173190507395873
  @DF-RHF Final Energy:  -229.01853524134441
    Total Energy =                       -229.0185352413444377
  @DF-RHF Final Energy:  -229.01871521728543
    Total Energy =                       -229.0187152172855463
  @DF-RHF Final Energy:  -229.01862803197199
    Total Energy =                       -229.0186280319719572
  Basis Set: CC-PVTZ
  Basis Set:
  @DF-RHF Final Energy:  -229.01883206581044
    Total Energy =                       -229.0188320658103294
  Basis Set: CC-PVTZ
  Basis Set:
  Basis Set: CC-PVTZ
  Basis Set:
  @DF-RHF Final Energy:  -229.01884638450872
    Total Energy =                       -229.0188463845087767
  Basis Set: CC-PVTZ
  Basis Set:
  Basis Set: CC-PVTZ
  Basis Set:
  @DF-RHF Final Energy:  -229.01886093906757
    Total Energy =                       -229.0188609390673946
  Basis Set: CC-PVTZ
  Basis Set:
  Charge       = 0
  Multiplicity = 1
  Basis Set: CC-PVTZ
  Basis Set:

    Orbital Energies (a.u.)
    -----------------------

    Doubly Occupied:

       1A    -20.567642     2A    -20.533274     3A    -11.281226
       4A    -11.267321     5A     -1.392122     6A     -1.348867
       7A     -0.998403     8A     -0.849034     9A     -0.729068
      10A     -0.680322    11A     -0.665329    12A     -0.590390
      13A     -0.580885    14A     -0.545045    15A     -0.482481
      16A     -0.470146    17A     -0.419859

  @DF-RHF Final Energy:  -229.01886149727534

   => Energetics <=

    Nuclear Repulsion Energy =            135.0238838012639917
    One-Electron Energy =                -581.2826672200960729
    Two-Electron Energy =                 217.2399219215568564
    DFT Exchange-Correlation Energy =       0.0000000000000000
    Empirical Dispersion Energy =           0.0000000000000000
    PCM Polarization Energy =               0.0000000000000000
    EFP Energy =                            0.0000000000000000
    Total Energy =                       -229.0188614972752248
    Molecular point group: c1
  Basis Set: CC-PVTZ
  Basis Set:

  -Total Gradient:
     Atom            X                  Y                   Z
    ------   -----------------  -----------------  -----------------
       1        0.000003818815     0.000002778015     0.000004644253
       2        0.000026040173    -0.000113031772    -0.000099026481
       3        0.001408607283     0.003203306334     0.003658644584
       4        0.001544034819    -0.002441557219     0.003221621598
       5       -0.001598768232    -0.002089740956    -0.003754107938
       6       -0.000004582043    -0.000029712228    -0.000020585539
       7       -0.001399186290     0.001440624053    -0.003032962762
       8       -0.000010152080     0.000008977837     0.000007986367
       9        0.000009326239    -0.000016847086    -0.000001392572
      10        0.000020861312     0.000035203019     0.000015178491

  **** Optimization is complete! (in 13 steps) ****
    Final optimized geometry and variables:
    Molecular point group: c1

    Geometry (in Angstrom), charge = 0, multiplicity = 1:

    H            1.800908922993    -0.426607440785    -1.313552729726
    O            0.966588670684    -0.458372663382    -0.884479441628
    C            0.829465258595     0.623766333548     0.004522110270
    C           -0.584180147669     0.574977820772     0.627669124675
    H            0.944336681361     1.548104971048    -0.550287203184
    H            1.591937482557     0.573879459279     0.773215804616
    O           -1.264366054609    -0.614284728693     0.378316168741
    H           -1.166039782865     1.406375062184     0.241319689814
    H           -0.510474131873     0.705401426443     1.699723963416
    H           -0.855293792021    -1.056543538710    -0.344633800421

  Mulliken Charges: (a.u.)
   Center  Symbol    Alpha    Beta     Spin     Total
       1     H     0.39513  0.39513  0.00000  0.20974
       2     O     4.19893  4.19893  0.00000 -0.39786
       3     C     2.97216  2.97216  0.00000  0.05568
       4     C     2.95435  2.95435  0.00000  0.09130
       5     H     0.47085  0.47085  0.00000  0.05830
       6     H     0.47107  0.47107  0.00000  0.05787
       7     O     4.20816  4.20816  0.00000 -0.41632
       8     H     0.47824  0.47824  0.00000  0.04353
       9     H     0.46973  0.46973  0.00000  0.06055
      10     H     0.38139  0.38139  0.00000  0.23722

   Total alpha = 17.00000, Total beta = 17.00000, Total charge =  0.00000
