  ==> Input File <==

--------------------------------------------------------------------------
set {
	reference rhf
	basis cc-pvtz
}

set_num_threads( 4 )
memory 2 gb

molecule MOL {
0 1

H	 2.462485	 -2.216993	 0.000000
O	 2.777472	 -1.330706	 0.000000
C	 1.763288	 -0.447523	 0.000000
C	 2.040204	 0.845217	 -0.421024
C	 0.487235	 -0.785039	 0.397654
H	 3.039191	 1.086395	 -0.726008
C	 1.041716	 1.791750	 -0.442164
H	 0.245530	 -1.774206	 0.726936
C	 -0.489931	 0.190027	 0.363585
H	 1.265001	 2.788259	 -0.769059
C	 -0.247838	 1.476770	 -0.047469
N	 -1.845767	 -0.176302	 0.788217
H	 -1.032822	 2.200923	 -0.058604
O	 -2.027681	 -1.294841	 1.138719
O	 -2.677464	 0.666267	 0.755746

	symmetry c1
}
set optking {
	frozen_dihedral = ("
		4 3 2 1
	")
}

ee = optimize('scf')
oeprop('DIPOLE', 'QUADRUPOLE', 'MULLIKEN_CHARGES')
f=open( 'psi4out.xyz', 'w' )
f.write( "15  " )
f.write( str(ee) + "\n" )
f.write( MOL.save_string_xyz() )
f.close()
--------------------------------------------------------------------------

    Molecular point group: c1
  Charge       = 0
  Multiplicity = 1
  Basis Set: CC-PVTZ
  Basis Set:
  @DF-RHF Final Energy:  -509.21851601969314
    Total Energy =                       -509.2185160196936522
    Molecular point group: c1
  Basis Set: CC-PVTZ
  Basis Set:
  Basis Set: CC-PVTZ
  Basis Set:
  @DF-RHF Final Energy:  -509.21850684940955
    Total Energy =                       -509.2185068494092093
  Basis Set: CC-PVTZ
  Basis Set:
  Basis Set: CC-PVTZ
  Basis Set:
  @DF-RHF Final Energy:  -509.21421088504263
    Total Energy =                       -509.2142108850424620
  Basis Set: CC-PVTZ
  Basis Set:
  Basis Set: CC-PVTZ
  Basis Set:
  @DF-RHF Final Energy:  -509.21841310270906
    Total Energy =                       -509.2184131027097465
  Basis Set: CC-PVTZ
  Basis Set:
  Basis Set: CC-PVTZ
  Basis Set:
  @DF-RHF Final Energy:  -509.21853730826598
    Total Energy =                       -509.2185373082656952
  Basis Set: CC-PVTZ
  Basis Set:
  Charge       = 0
  Multiplicity = 1
  Basis Set: CC-PVTZ
  Basis Set:

    Orbital Energies (a.u.)
    -----------------------

    Doubly Occupied:

       1A    -20.606602     2A    -20.595000     3A    -20.594491
       4A    -15.850625     5A    -11.326620     6A    -11.308845
       7A    -11.263096     8A    -11.263010     9A    -11.259174
      10A    -11.256944    11A     -1.644294    12A     -1.438814
      13A     -1.426695    14A     -1.202584    15A     -1.095471
      16A     -1.047961    17A     -0.966631    18A     -0.880277
      19A     -0.832139    20A     -0.795566    21A     -0.754871
      22A     -0.743596    23A     -0.729457    24A     -0.709536
      25A     -0.677505    26A     -0.636982    27A     -0.626328
      28A     -0.590288    29A     -0.560026    30A     -0.546037
      31A     -0.519869    32A     -0.494910    33A     -0.493262
      34A     -0.460296    35A     -0.380144    36A     -0.347773

  @DF-RHF Final Energy:  -509.21853828970501

   => Energetics <=

    Nuclear Repulsion Energy =            504.6540030697181578
    One-Electron Energy =               -1695.8936461769992547
    Two-Electron Energy =                 682.0211048175758606
    DFT Exchange-Correlation Energy =       0.0000000000000000
    Empirical Dispersion Energy =           0.0000000000000000
    PCM Polarization Energy =               0.0000000000000000
    EFP Energy =                            0.0000000000000000
    Total Energy =                       -509.2185382897052932
    Molecular point group: c1
  Basis Set: CC-PVTZ
  Basis Set:

  -Total Gradient:
     Atom            X                  Y                   Z
    ------   -----------------  -----------------  -----------------
       1       -0.000007930174     0.000010997121    -0.001880891051
       2       -0.000160864031    -0.000086228181     0.001764826328
       3        0.000394617874     0.000363923154     0.001381998621
       4       -0.000339302995    -0.000261954940    -0.001317148958
       5        0.000100869254     0.000003665414     0.000048328749
       6        0.000008211423    -0.000002896174     0.000005543303
       7        0.000143380544    -0.000016769136     0.000074612812
       8       -0.000012987053    -0.000001701947    -0.000025253074
       9       -0.000020498876     0.000094616253    -0.000038100924
      10       -0.000003812291    -0.000007351438    -0.000014124219
      11       -0.000097723895    -0.000098234265    -0.000032710151
      12        0.000015904054     0.000015727325     0.000020531124
      13        0.000008322580     0.000003234676     0.000009214927
      14       -0.000018950151     0.000003558782    -0.000001496885
      15       -0.000009236252    -0.000020586641     0.000004669399

  **** Optimization is complete! (in 6 steps) ****
    Final optimized geometry and variables:
    Molecular point group: c1

    Geometry (in Angstrom), charge = 0, multiplicity = 1:

    H            2.429876984963    -2.254516324436    -0.268846535699
    O            2.746329065789    -1.368756592109    -0.271647581568
    C            1.731210104972    -0.483287434084    -0.279419319938
    C            2.006615913080     0.807642967414    -0.704319758053
    C            0.455789132264    -0.821110106238     0.120651508241
    H            3.003933102101     1.047075824739    -1.016049913741
    C            1.009534128185     1.756833827770    -0.717626016079
    H            0.217711936396    -1.808973225219     0.455856897395
    C           -0.522098365510     0.152624191265     0.085012831386
    H            1.231991678756     2.753142936625    -1.045622105172
    C           -0.279130576467     1.440846753061    -0.322880886311
    N           -1.878362168226    -0.214106743152     0.507540989800
    H           -1.064256679033     2.164898805870    -0.332536025359
    O           -2.064809073501    -1.337264077788     0.840231700149
    O           -2.706225547468     0.632801842069     0.490522174050

  Mulliken Charges: (a.u.)
   Center  Symbol    Alpha    Beta     Spin     Total
       1     H     0.38320  0.38320  0.00000  0.23361
       2     O     4.17150  4.17150  0.00000 -0.34301
       3     C     2.84829  2.84829  0.00000  0.30341
       4     C     3.09715  3.09715  0.00000 -0.19429
       5     C     3.13056  3.13056  0.00000 -0.26113
       6     H     0.41257  0.41257  0.00000  0.17485
       7     C     3.05753  3.05753  0.00000 -0.11507
       8     H     0.40518  0.40518  0.00000  0.18964
       9     C     2.98230  2.98230  0.00000  0.03540
      10     H     0.41588  0.41588  0.00000  0.16825
      11     C     3.09418  3.09418  0.00000 -0.18836
      12     N     3.24931  3.24931  0.00000  0.50139
      13     H     0.39941  0.39941  0.00000  0.20118
      14     O     4.17823  4.17823  0.00000 -0.35646
      15     O     4.17471  4.17471  0.00000 -0.34942

   Total alpha = 36.00000, Total beta = 36.00000, Total charge = -0.00000
