  ==> Input File <==

--------------------------------------------------------------------------
set {
	reference rhf
	basis 6-31G*
}

set_num_threads( 1 )
memory 2 gb

molecule MOL {
0 1

H	 -2.710738	 -1.081226	 -2.901802
O	 -2.604550	 -0.994005	 -1.965308
C	 -1.312120	 -0.525206	 -1.678174
C	 -1.177863	 -0.397191	 -0.171080
H	 -0.560704	 -1.213735	 -2.062374
H	 -1.141163	 0.440967	 -2.151063
C	 0.198102	 0.111031	 0.262842
H	 -1.375454	 -1.368807	 0.273496
H	 -1.954964	 0.273122	 0.185673
C	 1.331804	 -0.827780	 -0.158768
H	 0.361943	 1.100838	 -0.156218
H	 0.217265	 0.229072	 1.345532
C	 2.723619	 -0.410569	 0.329459
H	 1.342964	 -0.912588	 -1.244120
H	 1.116806	 -1.824343	 0.220779
C	 3.243875	 0.895854	 -0.272975
H	 3.424222	 -1.207124	 0.091250
H	 2.714788	 -0.329854	 1.414619
H	 3.251977	 0.848779	 -1.358681
H	 2.637085	 1.747371	 0.016682
H	 4.259473	 1.094070	 0.055697

	symmetry c1
}
set optking {
	frozen_dihedral = ("
		2 3 4 8,
		4 7 10 14,
		16 13 10 14,
		1 2 3 5
	")
}

ee = energy('scf')
oeprop('DIPOLE', 'QUADRUPOLE', 'MULLIKEN_CHARGES')
f=open( 'psi4out.xyz', 'w' )
f.write( "21  " )
f.write( str(ee) + "\n" )
f.write( MOL.save_string_xyz() )
f.close()
--------------------------------------------------------------------------

    Molecular point group: c1

    Geometry (in Angstrom), charge = 0, multiplicity = 1:

       Center              X                  Y                   Z               Mass
    ------------   -----------------  -----------------  -----------------  -----------------
           H         -3.005569282514    -0.768153920199    -2.333571387161     1.007825032070
           O         -2.899381282514    -0.680932920199    -1.397077387161    15.994914619560
           C         -1.606951282514    -0.212133920199    -1.109943387161    12.000000000000
           C         -1.472694282514    -0.084118920199     0.397150612839    12.000000000000
           H         -0.855535282514    -0.900662920199    -1.494143387161     1.007825032070
           H         -1.435994282514     0.754039079801    -1.582832387161     1.007825032070
           C         -0.096729282514     0.424103079801     0.831072612839    12.000000000000
           H         -1.670285282514    -1.055734920199     0.841726612839     1.007825032070
           H         -2.249795282514     0.586194079801     0.753903612839     1.007825032070
           C          1.036972717486    -0.514707920199     0.409462612839    12.000000000000
           H          0.067111717486     1.413910079801     0.412012612839     1.007825032070
           H         -0.077566282514     0.542144079801     1.913762612839     1.007825032070
           C          2.428787717486    -0.097496920199     0.897689612839    12.000000000000
           H          1.048132717486    -0.599515920199    -0.675889387161     1.007825032070
           H          0.821974717486    -1.511270920199     0.789009612839     1.007825032070
           C          2.949043717486     1.208926079801     0.295255612839    12.000000000000
           H          3.129390717486    -0.894051920199     0.659480612839     1.007825032070
           H          2.419956717486    -0.016781920199     1.982849612839     1.007825032070
           H          2.957145717486     1.161851079801    -0.790450387161     1.007825032070
           H          2.342253717486     2.060443079801     0.584912612839     1.007825032070
           H          3.964641717486     1.407142079801     0.623927612839     1.007825032070

  Charge       = 0
  Multiplicity = 1
  Basis Set: 6-31G*
  Basis Set:

    Orbital Energies (a.u.)
    -----------------------

    Doubly Occupied:

       1A    -20.551415     2A    -11.266044     3A    -11.216276
       4A    -11.215684     5A    -11.214524     6A    -11.210610
       7A    -11.209371     8A     -1.358213     9A     -1.088708
      10A     -1.032754    11A     -0.950782    12A     -0.883041
      13A     -0.813986    14A     -0.770098    15A     -0.695397
      16A     -0.652902    17A     -0.627720    18A     -0.608959
      19A     -0.592648    20A     -0.554551    21A     -0.549845
      22A     -0.518376    23A     -0.513280    24A     -0.497491
      25A     -0.478083    26A     -0.457059    27A     -0.452714
      28A     -0.446741    29A     -0.429726

  @DF-RHF Final Energy:  -310.21004889031758

   => Energetics <=

    Nuclear Repulsion Energy =            318.1775670572886838
    One-Electron Energy =               -1051.0615748070408699
    Two-Electron Energy =                 422.6739588594343786
    DFT Exchange-Correlation Energy =       0.0000000000000000
    Empirical Dispersion Energy =           0.0000000000000000
    PCM Polarization Energy =               0.0000000000000000
    EFP Energy =                            0.0000000000000000
    Total Energy =                       -310.2100488903178075

  Mulliken Charges: (a.u.)
   Center  Symbol    Alpha    Beta     Spin     Total
       1     H     0.28133  0.28133  0.00000  0.43734
       2     O     4.37244  4.37244  0.00000 -0.74489
       3     C     2.99182  2.99182  0.00000  0.01636
       4     C     3.16000  3.16000  0.00000 -0.32001
       5     H     0.43006  0.43006  0.00000  0.13988
       6     H     0.43331  0.43331  0.00000  0.13339
       7     C     3.16273  3.16273  0.00000 -0.32546
       8     H     0.41518  0.41518  0.00000  0.16964
       9     H     0.41276  0.41276  0.00000  0.17447
      10     C     3.15706  3.15706  0.00000 -0.31411
      11     H     0.42144  0.42144  0.00000  0.15711
      12     H     0.41891  0.41891  0.00000  0.16219
      13     C     3.15131  3.15131  0.00000 -0.30261
      14     H     0.42428  0.42428  0.00000  0.15145
      15     H     0.42047  0.42047  0.00000  0.15907
      16     C     3.24133  3.24133  0.00000 -0.48266
      17     H     0.42098  0.42098  0.00000  0.15804
      18     H     0.42290  0.42290  0.00000  0.15420
      19     H     0.42305  0.42305  0.00000  0.15390
      20     H     0.41978  0.41978  0.00000  0.16044
      21     H     0.41886  0.41886  0.00000  0.16227

   Total alpha = 29.00000, Total beta = 29.00000, Total charge =  0.00000
