                              Psi4 1.0.54 Driver

  ==> Input File <==

--------------------------------------------------------------------------
set {
	reference rhf
	basis cc-pvtz
}

set_num_threads( 4 )
memory 2 gb

molecule MOL {
0 1

H	 2.011845	 3.004600	 -2.569638
N	 1.246848	 2.365155	 -2.608452
C	 0.932482	 1.843572	 -1.287624
H	 1.510082	 1.628382	 -3.229114
C	 -0.285961	 0.933912	 -1.339015
H	 0.721545	 2.687696	 -0.639652
H	 1.765173	 1.302770	 -0.835836
C	 -0.678115	 0.376691	 0.025731
H	 -1.113874	 1.489700	 -1.766879
H	 -0.084409	 0.109276	 -2.020070
C	 -1.900706	 -0.535531	 -0.022488
H	 -0.875455	 1.200929	 0.707378
H	 0.159876	 -0.172672	 0.448630
C	 -3.220513	 0.226854	 0.028039
H	 -1.865036	 -1.134397	 -0.928236
H	 -1.857948	 -1.236381	 0.806820
H	 -3.309098	 0.911849	 -0.808725
H	 -4.066838	 -0.449485	 -0.008086
H	 -3.301685	 0.809374	 0.939860

	symmetry c1
}
set optking {
	frozen_dihedral = ("
		12 8 11 15
	")
}

ee,wfn = optimize('scf', return_wfn=True)
oeprop( wfn, 'DIPOLE', 'QUADRUPOLE', 'MULLIKEN_CHARGES')
f=open( 'psi4out.xyz', 'w' )
f.write( "19  " )
f.write( str(ee) + "\n" )
f.write( MOL.save_string_xyz() )
f.close()
--------------------------------------------------------------------------

    Molecular point group: c1
  Charge       = 0
  Multiplicity = 1
  Basis Set: CC-PVTZ
  Basis Set:
  @DF-RHF Final Energy:  -251.44533136747242
    Total Energy =                       -251.4453313674724768
    Molecular point group: c1
  Basis Set: CC-PVTZ
  Basis Set:
  Basis Set: CC-PVTZ
  Basis Set:
  @DF-RHF Final Energy:  -251.44548874055303
    Total Energy =                       -251.4454887405528893
  Basis Set: CC-PVTZ
  Basis Set:
  Basis Set: CC-PVTZ
  Basis Set:
  @DF-RHF Final Energy:  -251.44553183137720
    Total Energy =                       -251.4455318313771386
  Basis Set: CC-PVTZ
  Basis Set:
  Charge       = 0
  Multiplicity = 1
  Basis Set: CC-PVTZ
  Basis Set:

    Orbital Energies (a.u.)
    -----------------------

    Doubly Occupied:

       1A    -15.526459     2A    -11.237850     3A    -11.212002
       4A    -11.210560     5A    -11.207520     6A    -11.204344
       7A     -1.178172     8A     -1.073350     9A     -0.996747
      10A     -0.902433    11A     -0.819861    12A     -0.782291
      13A     -0.665121    14A     -0.639419    15A     -0.608214
      16A     -0.597397    17A     -0.585951    18A     -0.537043
      19A     -0.517218    20A     -0.511256    21A     -0.485300
      22A     -0.462546    23A     -0.455559    24A     -0.450258
      25A     -0.383892

  @DF-RHF Final Energy:  -251.44553231561119

   => Energetics <=

    Nuclear Repulsion Energy =            248.6558743719641882
    One-Electron Energy =                -831.7012834241072596
    Two-Electron Energy =                 331.5998767365319395
    DFT Exchange-Correlation Energy =       0.0000000000000000
    Empirical Dispersion Energy =           0.0000000000000000
    PCM Polarization Energy =               0.0000000000000000
    EFP Energy =                            0.0000000000000000
    Total Energy =                       -251.4455323156111604
    Molecular point group: c1
  Basis Set: CC-PVTZ
  Basis Set:

  -Total Gradient:
     Atom            X                  Y                   Z
    ------   -----------------  -----------------  -----------------
       1        0.000007544424     0.000005830161    -0.000014039578
       2       -0.000001280689     0.000023977136     0.000012859918
       3        0.000003455402    -0.000015106552     0.000000917008
       4        0.000001352528    -0.000004063475     0.000004065633
       5       -0.000031242424    -0.000021226312     0.000040105228
       6        0.000012470250     0.000005570756    -0.000005880671
       7        0.000009789174     0.000009735162     0.000002730889
       8        0.000907868729    -0.001294460878     0.002066861538
       9       -0.000009246875    -0.000011397658    -0.000007848432
      10       -0.000008259996    -0.000002316259     0.000001834352
      11        0.001327303183    -0.001955625330     0.001159391499
      12       -0.000977107336     0.001383281093    -0.001961028851
      13       -0.000007878950    -0.000000775499    -0.000006253776
      14        0.000040618150    -0.000009554491    -0.000014736615
      15       -0.001282800810     0.001883457947    -0.001264921799
      16        0.000005849575     0.000002913816    -0.000000453549
      17       -0.000005688067     0.000007074742    -0.000005302170
      18       -0.000003309526    -0.000001778542    -0.000002725461
      19        0.000010563257    -0.000005535815    -0.000005575162

  **** Optimization is complete! (in 4 steps) ****
    Final optimized geometry and variables:
    Molecular point group: c1

    Geometry (in Angstrom), charge = 0, multiplicity = 1:

    H            2.622337370697     2.135871080733    -1.676144857088
    N            1.869264869867     1.482536116002    -1.717479201950
    C            1.552836846131     0.962898936231    -0.396373376218
    H            2.151153462531     0.747077891933    -2.331481747011
    C            0.350905065766     0.031704948356    -0.452868232199
    H            1.321663922473     1.806804138170     0.244954954869
    H            2.391065972898     0.439459586981     0.065761464669
    C           -0.034254439512    -0.532144707039     0.914013927775
    H           -0.480205549817     0.573079731140    -0.890870254745
    H            0.572342932988    -0.792155872671    -1.128489498159
    C           -1.278648209950    -1.427314913561     0.880462836623
    H           -0.211925612975     0.298565685896     1.592704143777
    H            0.805785111552    -1.091241550683     1.314413591633
    C           -2.592669738107    -0.649204335741     0.918036168021
    H           -1.260650948538    -2.031264217388    -0.022305330245
    H           -1.255005966844    -2.114829518806     1.719163644343
    H           -2.671116844173     0.044281513950     0.088503517336
    H           -3.443374268904    -1.319282564371     0.865683869751
    H           -2.678837900501    -0.076905226505     1.835711665210

  Mulliken Charges: (a.u.)
   Center  Symbol    Alpha    Beta     Spin     Total
       1     H     0.43023  0.43023  0.00000  0.13953
       2     N     3.68907  3.68907  0.00000 -0.37814
       3     C     3.02789  3.02789  0.00000 -0.05579
       4     H     0.43105  0.43105  0.00000  0.13790
       5     C     3.08341  3.08341  0.00000 -0.16683
       6     H     0.45663  0.45663  0.00000  0.08674
       7     H     0.46794  0.46794  0.00000  0.06413
       8     C     3.09947  3.09947  0.00000 -0.19894
       9     H     0.44812  0.44812  0.00000  0.10375
      10     H     0.46003  0.46003  0.00000  0.07994
      11     C     3.08951  3.08951  0.00000 -0.17902
      12     H     0.45621  0.45621  0.00000  0.08757
      13     H     0.44980  0.44980  0.00000  0.10041
      14     C     3.14847  3.14847  0.00000 -0.29694
      15     H     0.45610  0.45610  0.00000  0.08779
      16     H     0.44804  0.44804  0.00000  0.10391
      17     H     0.45370  0.45370  0.00000  0.09261
      18     H     0.44851  0.44851  0.00000  0.10297
      19     H     0.45579  0.45579  0.00000  0.08842

   Total alpha = 25.00000, Total beta = 25.00000, Total charge = -0.00000

*** Psi4 exiting successfully. Buy a developer a beer!
