                              Psi4 1.0.54 Driver

  ==> Input File <==

--------------------------------------------------------------------------
set {
	reference rhf
	basis cc-pvtz
}

set_num_threads( 4 )
memory 2 gb

molecule MOL {
0 1

H	 2.401653	 0.774344	 -0.287168
O	 2.063695	 -0.083403	 -0.105237
C	 0.742924	 0.005675	 0.350750
H	 0.731380	 0.039219	 1.440080
C	 -0.064076	 -1.193495	 -0.124425
C	 -0.047832	 1.190568	 -0.194462
H	 0.194729	 -1.376165	 -1.161308
H	 0.163013	 -2.094508	 0.429933
C	 -1.533112	 -0.752002	 0.006102
H	 0.148003	 1.266545	 -1.259275
H	 0.226235	 2.136493	 0.259722
C	 -1.506634	 0.799189	 0.067162
H	 -2.124360	 -1.110499	 -0.826089
H	 -1.983103	 -1.158030	 0.903403
H	 -2.183808	 1.252169	 -0.644677
H	 -1.813926	 1.138698	 1.049457

	symmetry c1
}
set optking {
	frozen_dihedral = ("
		1 2 3 6
	")
}

ee,wfn = optimize('scf', return_wfn=True)
oeprop( wfn, 'DIPOLE', 'QUADRUPOLE', 'MULLIKEN_CHARGES')
f=open( 'psi4out.xyz', 'w' )
f.write( "16  " )
f.write( str(ee) + "\n" )
f.write( MOL.save_string_xyz() )
f.close()
--------------------------------------------------------------------------

    Molecular point group: c1
  Charge       = 0
  Multiplicity = 1
  Basis Set: CC-PVTZ
  Basis Set:
  @DF-RHF Final Energy:  -270.11545231443824
    Total Energy =                       -270.1154523144383575
    Molecular point group: c1
  Basis Set: CC-PVTZ
  Basis Set:
  Basis Set: CC-PVTZ
  Basis Set:
  @DF-RHF Final Energy:  -270.11556232872846
    Total Energy =                       -270.1155623287285152
  Basis Set: CC-PVTZ
  Basis Set:
  Basis Set: CC-PVTZ
  Basis Set:
  @DF-RHF Final Energy:  -270.11559099636673
    Total Energy =                       -270.1155909963667909
  Basis Set: CC-PVTZ
  Basis Set:
  Basis Set: CC-PVTZ
  Basis Set:
  @DF-RHF Final Energy:  -270.11559385337227
    Total Energy =                       -270.1155938533723884
  Basis Set: CC-PVTZ
  Basis Set:
  Basis Set: CC-PVTZ
  Basis Set:
  @DF-RHF Final Energy:  -270.11559602171803
    Total Energy =                       -270.1155960217179199
  Basis Set: CC-PVTZ
  Basis Set:
  Basis Set: CC-PVTZ
  Basis Set:
  @DF-RHF Final Energy:  -270.11559806452846
    Total Energy =                       -270.1155980645282852
  Basis Set: CC-PVTZ
  Basis Set:
  Charge       = 0
  Multiplicity = 1
  Basis Set: CC-PVTZ
  Basis Set:

    Orbital Energies (a.u.)
    -----------------------

    Doubly Occupied:

       1A    -20.544167     2A    -11.266954     3A    -11.217506
       4A    -11.215680     5A    -11.214478     6A    -11.207157
       7A     -1.364527     8A     -1.116566     9A     -0.969230
      10A     -0.949721    11A     -0.796973    12A     -0.779105
      13A     -0.692959    14A     -0.664561    15A     -0.614374
      16A     -0.599781    17A     -0.573953    18A     -0.528927
      19A     -0.502313    20A     -0.484463    21A     -0.472797
      22A     -0.458182    23A     -0.446116    24A     -0.425762

  @DF-RHF Final Energy:  -270.11559770063076

   => Energetics <=

    Nuclear Repulsion Energy =            255.6428684391677848
    One-Electron Energy =                -873.3044278140098413
    Two-Electron Energy =                 347.5459616742113553
    DFT Exchange-Correlation Energy =       0.0000000000000000
    Empirical Dispersion Energy =           0.0000000000000000
    PCM Polarization Energy =               0.0000000000000000
    EFP Energy =                            0.0000000000000000
    Total Energy =                       -270.1155977006306443
    Molecular point group: c1
  Basis Set: CC-PVTZ
  Basis Set:

  -Total Gradient:
     Atom            X                  Y                   Z
    ------   -----------------  -----------------  -----------------
       1       -0.000560386928    -0.000097538027    -0.001746747348
       2        0.000766572046     0.000471656538     0.002708591354
       3       -0.001288572448    -0.000866665068    -0.002125572319
       4        0.000173360805    -0.000183105097    -0.000009404162
       5        0.000480219846    -0.000400058289     0.000104507276
       6        0.000615622232     0.000916396264     0.001169674966
       7       -0.000094204030     0.000120978182    -0.000042124655
       8       -0.000168082210    -0.000017239846     0.000152320203
       9       -0.000008052056     0.000044997422    -0.000005532010
      10       -0.000073667017    -0.000020532555    -0.000012339849
      11       -0.000042340368     0.000117576833    -0.000110520812
      12        0.000166277735     0.000007321171    -0.000022742827
      13        0.000012664154     0.000001287923    -0.000019912751
      14       -0.000004093671    -0.000036915814    -0.000051208064
      15       -0.000037020931    -0.000082048581     0.000002796282
      16        0.000061702846     0.000023888944     0.000008214715

  **** Optimization is complete! (in 7 steps) ****
    Final optimized geometry and variables:
    Molecular point group: c1

    Geometry (in Angstrom), charge = 0, multiplicity = 1:

    H            2.417724422964     0.779083631356    -0.244247424972
    O            2.074487832186    -0.080860257681    -0.087851169255
    C            0.742821113768    -0.003507135668     0.341332312414
    H            0.725306354894     0.024272407981     1.430543506355
    C           -0.069718242680    -1.196929287782    -0.138336435818
    C           -0.043765437732     1.188498129943    -0.190243089066
    H            0.164452906798    -1.362995951872    -1.183880544362
    H            0.164890064432    -2.106904369959     0.398128980245
    C           -1.533452627350    -0.752810747657     0.033027377897
    H            0.142464385492     1.276650446805    -1.257167467718
    H            0.235432076759     2.128049194090     0.273721988134
    C           -1.504278966231     0.799640084147     0.071967552583
    H           -2.153107514966    -1.123442658435    -0.772722067129
    H           -1.952409161509    -1.144461301339     0.951409791659
    H           -2.176936327410     1.242282727752    -0.650451666420
    H           -1.815107854365     1.155335170468     1.046924806061

  Mulliken Charges: (a.u.)
   Center  Symbol    Alpha    Beta     Spin     Total
       1     H     0.39198  0.39198  0.00000  0.21603
       2     O     4.20541  4.20541  0.00000 -0.41081
       3     C     2.92276  2.92276  0.00000  0.15448
       4     H     0.46332  0.46332  0.00000  0.07336
       5     C     3.09735  3.09735  0.00000 -0.19470
       6     C     3.11393  3.11393  0.00000 -0.22786
       7     H     0.45369  0.45369  0.00000  0.09261
       8     H     0.44243  0.44243  0.00000  0.11514
       9     C     3.11216  3.11216  0.00000 -0.22432
      10     H     0.45371  0.45371  0.00000  0.09259
      11     H     0.44503  0.44503  0.00000  0.10994
      12     C     3.11242  3.11242  0.00000 -0.22485
      13     H     0.44495  0.44495  0.00000  0.11010
      14     H     0.44830  0.44830  0.00000  0.10339
      15     H     0.44348  0.44348  0.00000  0.11305
      16     H     0.44907  0.44907  0.00000  0.10186

   Total alpha = 24.00000, Total beta = 24.00000, Total charge = -0.00000

*** Psi4 exiting successfully. Buy a developer a beer!
