  ==> Input File <==

--------------------------------------------------------------------------
set {
	reference rhf
	basis cc-pvtz
}

set_num_threads( 4 )
memory 2 gb

molecule MOL {
0 1

H	 1.195940	 -0.363589	 -1.010310
C	 0.788096	 -0.429819	 0.000000
N	 -0.537714	 -0.645117	 0.000000
O	 1.478284	 -0.317739	 0.963222
C	 -1.522613	 0.412524	 0.000000
H	 -0.845894	 -1.585866	 0.000000
H	 -2.150256	 0.356137	 -0.880771
H	 -1.005621	 1.357208	 0.000000
H	 -2.150256	 0.356137	 0.880771

	symmetry c1
}
set optking {
	frozen_dihedral = ("
		1 2 3 6
	")
}

ee = optimize('scf')
oeprop('DIPOLE', 'QUADRUPOLE', 'MULLIKEN_CHARGES')
f=open( 'psi4out.xyz', 'w' )
f.write( "9  " )
f.write( str(ee) + "\n" )
f.write( MOL.save_string_xyz() )
f.close()
--------------------------------------------------------------------------

    Molecular point group: c1
  Charge       = 0
  Multiplicity = 1
  Basis Set: CC-PVTZ
  Basis Set:
  @DF-RHF Final Energy:  -207.99957585349549
    Total Energy =                       -207.9995758534954575
    Molecular point group: c1
  Basis Set: CC-PVTZ
  Basis Set:
  Basis Set: CC-PVTZ
  Basis Set:
  @DF-RHF Final Energy:  -208.00355496750944
    Total Energy =                       -208.0035549675093023
  Basis Set: CC-PVTZ
  Basis Set:
  Basis Set: CC-PVTZ
  Basis Set:
  @DF-RHF Final Energy:  -208.00391644112651
    Total Energy =                       -208.0039164411264210
  Basis Set: CC-PVTZ
  Basis Set:
  Basis Set: CC-PVTZ
  Basis Set:
  @DF-RHF Final Energy:  -208.00503670656849
    Total Energy =                       -208.0050367065685464
  Basis Set: CC-PVTZ
  Basis Set:
  @DF-RHF Final Energy:  -208.00565204109859
    Total Energy =                       -208.0056520410985286
  @DF-RHF Final Energy:  -207.98881181994125
    Total Energy =                       -207.9888118199411338
  @DF-RHF Final Energy:  -207.98904252096551
    Total Energy =                       -207.9890425209655405
  @DF-RHF Final Energy:  -207.99815058968011
    Total Energy =                       -207.9981505896801650
  @DF-RHF Final Energy:  -208.00313909013485
    Total Energy =                       -208.0031390901348800
  @DF-RHF Final Energy:  -208.00676866239647
    Total Energy =                       -208.0067686623964107
  @DF-RHF Final Energy:  -208.00724590717957
    Total Energy =                       -208.0072459071795947
  @DF-RHF Final Energy:  -208.00765618220225
    Total Energy =                       -208.0076561822023393
  @DF-RHF Final Energy:  -208.00891025885451
    Total Energy =                       -208.0089102588545131
  @DF-RHF Final Energy:  -208.01076600345158
    Total Energy =                       -208.0107660034514652
  @DF-RHF Final Energy:  -208.01315451293624
    Total Energy =                       -208.0131545129362962
  @DF-RHF Final Energy:  -208.01530162537210
    Total Energy =                       -208.0153016253721603
  @DF-RHF Final Energy:  -208.01760839707870
    Total Energy =                       -208.0176083970786749
  @DF-RHF Final Energy:  -208.01918467431290
    Total Energy =                       -208.0191846743128679
  @DF-RHF Final Energy:  -208.02096625048665
    Total Energy =                       -208.0209662504864809
  @DF-RHF Final Energy:  -208.02136402443841
    Total Energy =                       -208.0213640244384408
  @DF-RHF Final Energy:  -208.02128081923814
    Total Energy =                       -208.0212808192381431
  @DF-RHF Final Energy:  -208.02147127792713
    Total Energy =                       -208.0214712779271622
  Basis Set: CC-PVTZ
  Basis Set:
  @DF-RHF Final Energy:  -208.02150402911502
    Total Energy =                       -208.0215040291150501
  Basis Set: CC-PVTZ
  Basis Set:
  Basis Set: CC-PVTZ
  Basis Set:
  @DF-RHF Final Energy:  -208.02152489182981
    Total Energy =                       -208.0215248918298983
  Basis Set: CC-PVTZ
  Basis Set:
  Basis Set: CC-PVTZ
  Basis Set:
  @DF-RHF Final Energy:  -208.02152779740248
    Total Energy =                       -208.0215277974023707
  Basis Set: CC-PVTZ
  Basis Set:
  Charge       = 0
  Multiplicity = 1
  Basis Set: CC-PVTZ
  Basis Set:

    Orbital Energies (a.u.)
    -----------------------

    Doubly Occupied:

       1A    -20.553538     2A    -15.570742     3A    -11.347746
       4A    -11.250626     5A     -1.422302     6A     -1.224883
       7A     -0.947563     8A     -0.812175     9A     -0.721823
      10A     -0.665776    11A     -0.645732    12A     -0.571811
      13A     -0.548594    14A     -0.532227    15A     -0.445824
      16A     -0.415599

  @DF-RHF Final Energy:  -208.02152867868767

   => Energetics <=

    Nuclear Repulsion Energy =            122.6020079258417326
    One-Electron Energy =                -525.8931506794001507
    Two-Electron Energy =                 195.2696140748706739
    DFT Exchange-Correlation Energy =       0.0000000000000000
    Empirical Dispersion Energy =           0.0000000000000000
    PCM Polarization Energy =               0.0000000000000000
    EFP Energy =                            0.0000000000000000
    Total Energy =                       -208.0215286786877300
    Molecular point group: c1
  Basis Set: CC-PVTZ
  Basis Set:

  -Total Gradient:
     Atom            X                  Y                   Z
    ------   -----------------  -----------------  -----------------
       1        0.000933868937     0.011854145634    -0.004249951484
       2       -0.002478746257    -0.014249875037     0.008011566386
       3        0.007195696512    -0.002300112028    -0.015583944263
       4       -0.000050763050    -0.000043321312     0.000148941268
       5       -0.000121517021     0.000019971731     0.000125325986
       6       -0.005409868872     0.004814365752     0.011594835573
       7       -0.000032185931     0.000016671441    -0.000012053415
       8       -0.000018678410    -0.000104106684    -0.000008598874
       9       -0.000017805908    -0.000007739497    -0.000026121175

  **** Optimization is complete! (in 26 steps) ****
    Final optimized geometry and variables:
    Molecular point group: c1

    Geometry (in Angstrom), charge = 0, multiplicity = 1:

    H            1.606326399158    -0.660575925371    -0.829782774421
    C            0.826802965919    -0.340173470645    -0.138696915021
    N           -0.463716396425    -0.416731617308    -0.691080917899
    O            1.099641624813     0.171193244850     0.889041869700
    C           -1.401150928413     0.559180242942    -0.127271465645
    H           -0.845622528939    -1.323611001283    -0.500701227116
    H           -2.352417228339     0.437113425377    -0.626075996982
    H           -1.038416765738     1.557095966819    -0.325733797891
    H           -1.540279620841     0.455555447265     0.941514443394

  Mulliken Charges: (a.u.)
   Center  Symbol    Alpha    Beta     Spin     Total
       1     H     0.45177  0.45177  0.00000  0.09646
       2     C     2.88226  2.88226  0.00000  0.23548
       3     N     3.61982  3.61982  0.00000 -0.23964
       4     O     4.17326  4.17326  0.00000 -0.34652
       5     C     3.08379  3.08379  0.00000 -0.16757
       6     H     0.43488  0.43488  0.00000  0.13025
       7     H     0.45106  0.45106  0.00000  0.09787
       8     H     0.44916  0.44916  0.00000  0.10168
       9     H     0.45400  0.45400  0.00000  0.09199

   Total alpha = 16.00000, Total beta = 16.00000, Total charge = -0.00000
