  ==> Input File <==

--------------------------------------------------------------------------
set {
	reference rhf
	basis cc-pvtz
}

set_num_threads( 4 )
memory 2 gb

molecule MOL {
0 1

H	 2.009926	 -2.686156	 0.674785
C	 1.628865	 -1.878525	 0.058904
C	 0.573815	 -1.088432	 0.821222
H	 1.201479	 -2.304033	 -0.840654
H	 2.471625	 -1.263695	 -0.231737
N	 0.000297	 0.000045	 0.046090
H	 -0.220931	 -1.768724	 1.094532
H	 0.993101	 -0.720062	 1.761665
C	 -1.359159	 0.315706	 0.454404
C	 0.858012	 1.173972	 0.018802
C	 -2.416729	 -0.286720	 -0.460525
H	 -1.478729	 1.390261	 0.442008
H	 -1.539692	 0.003361	 1.486761
C	 0.677415	 2.021206	 -1.233402
H	 1.887615	 0.845878	 0.055313
H	 0.705391	 1.790243	 0.909212
H	 -2.285276	 0.073129	 -1.473515
H	 -2.371743	 -1.368476	 -0.483209
H	 -3.408658	 -0.007405	 -0.121593
H	 0.894621	 1.434698	 -2.117562
H	 -0.331092	 2.404341	 -1.327734
H	 1.349964	 2.872066	 -1.210452

	symmetry c1
}
set optking {
	frozen_dihedral = ("
		3 6 9 11
	")
}

ee = optimize('scf')
oeprop('DIPOLE', 'QUADRUPOLE', 'MULLIKEN_CHARGES')
f=open( 'psi4out.xyz', 'w' )
f.write( "22  " )
f.write( str(ee) + "\n" )
f.write( MOL.save_string_xyz() )
f.close()
--------------------------------------------------------------------------

    Molecular point group: c1
  Charge       = 0
  Multiplicity = 1
  Basis Set: CC-PVTZ
  Basis Set:
  @DF-RHF Final Energy:  -290.47492344424461
    Total Energy =                       -290.4749234442446664
    Molecular point group: c1
  Basis Set: CC-PVTZ
  Basis Set:
  Basis Set: CC-PVTZ
  Basis Set:
  @DF-RHF Final Energy:  -290.47513411948648
    Total Energy =                       -290.4751341194864835
  Basis Set: CC-PVTZ
  Basis Set:
  Basis Set: CC-PVTZ
  Basis Set:
  @DF-RHF Final Energy:  -290.47523403974111
    Total Energy =                       -290.4752340397408261
  Basis Set: CC-PVTZ
  Basis Set:
  Basis Set: CC-PVTZ
  Basis Set:
  @DF-RHF Final Energy:  -290.47525357047999
    Total Energy =                       -290.4752535704803904
  Basis Set: CC-PVTZ
  Basis Set:
  Basis Set: CC-PVTZ
  Basis Set:
  @DF-RHF Final Energy:  -290.47525514684770
    Total Energy =                       -290.4752551468477577
  Basis Set: CC-PVTZ
  Basis Set:
  Charge       = 0
  Multiplicity = 1
  Basis Set: CC-PVTZ
  Basis Set:

    Orbital Energies (a.u.)
    -----------------------

    Doubly Occupied:

       1A    -15.532385     2A    -11.239796     3A    -11.238517
       4A    -11.238047     5A    -11.204014     6A    -11.203983
       7A    -11.201970     8A     -1.224962     9A     -1.025690
      10A     -1.023149    11A     -0.956642    12A     -0.850312
      13A     -0.841589    14A     -0.774367    15A     -0.652551
      16A     -0.642075    17A     -0.618356    18A     -0.595432
      19A     -0.585715    20A     -0.553382    21A     -0.534473
      22A     -0.522037    23A     -0.516412    24A     -0.498404
      25A     -0.493592    26A     -0.484822    27A     -0.463995
      28A     -0.460503    29A     -0.342807

  @DF-RHF Final Energy:  -290.47525663613743

   => Energetics <=

    Nuclear Repulsion Energy =            337.8062819042501701
    One-Electron Energy =               -1061.5231142529310091
    Two-Electron Energy =                 433.2415757125434084
    DFT Exchange-Correlation Energy =       0.0000000000000000
    Empirical Dispersion Energy =           0.0000000000000000
    PCM Polarization Energy =               0.0000000000000000
    EFP Energy =                            0.0000000000000000
    Total Energy =                       -290.4752566361373738
    Molecular point group: c1
  Basis Set: CC-PVTZ
  Basis Set:

  -Total Gradient:
     Atom            X                  Y                   Z
    ------   -----------------  -----------------  -----------------
       1        0.000003200808     0.000000151849    -0.000001552701
       2       -0.000005487784    -0.000012854404    -0.000004510669
       3        0.000852513611     0.001503783581     0.001518012288
       4        0.000001148287    -0.000002658137    -0.000004468594
       5        0.000000175574     0.000005443625     0.000001457704
       6       -0.001140154833    -0.001323561052    -0.002579138192
       7        0.000025443409     0.000026721738    -0.000006203476
       8       -0.000006532596    -0.000000911667     0.000004424996
       9        0.000228976456    -0.001953022229     0.002261771622
      10        0.000024672193    -0.000051182440    -0.000008820688
      11        0.000028344750     0.001808510704    -0.001228020862
      12        0.000000325225    -0.000013830598    -0.000005159959
      13       -0.000033985541    -0.000010511643     0.000036092186
      14       -0.000012463127    -0.000011267873     0.000008560816
      15        0.000018323941     0.000017512466    -0.000000444867
      16       -0.000010905199     0.000004747845     0.000000560494
      17        0.000004087701     0.000006970208     0.000006590460
      18        0.000001592464     0.000019115465     0.000010091953
      19        0.000008782044    -0.000015853944    -0.000013128883
      20        0.000002977580     0.000000566049     0.000003377479
      21        0.000008232214     0.000004195841    -0.000004430137
      22        0.000000732823    -0.000002065384     0.000004939032

  **** Optimization is complete! (in 6 steps) ****
    Final optimized geometry and variables:
    Molecular point group: c1

    Geometry (in Angstrom), charge = 0, multiplicity = 1:

    H            1.983599393314    -2.747574678996     0.760724581211
    C            1.655173150364    -1.914610780722     0.148358208825
    C            0.564330767115    -1.135881807690     0.871511017795
    H            1.278283653063    -2.304871313831    -0.789047915088
    H            2.525644510043    -1.308262185457    -0.067439555531
    N            0.009548793746    -0.043518853871     0.089408000048
    H           -0.241148580939    -1.825243457931     1.092256471530
    H            0.938412287480    -0.782167625160     1.836905134167
    C           -1.349829633360     0.293322368315     0.500489741198
    C            0.889054870259     1.111805011862     0.033017310900
    C           -2.402637191351    -0.307449759294    -0.420682300881
    H           -1.467722339987     1.369651915866     0.499753580012
    H           -1.530058938453    -0.021865562449     1.526820478369
    C            0.637362391122     1.993085389091    -1.182596627071
    H            1.910865996393     0.762493718095    -0.012774817048
    H            0.812484727002     1.710356200804     0.945314991002
    H           -2.274181026459     0.060827372400    -1.430870337461
    H           -2.325680975264    -1.388540538303    -0.450809610812
    H           -3.402091824961    -0.051663272699    -0.083422337876
    H            0.779361267489     1.425282176995    -2.093944985747
    H           -0.368335439375     2.395469322645    -1.193875133399
    H            1.325830889484     2.831281116433    -1.187674317506

  Mulliken Charges: (a.u.)
   Center  Symbol    Alpha    Beta     Spin     Total
       1     H     0.45250  0.45250  0.00000  0.09500
       2     C     3.14346  3.14346  0.00000 -0.28693
       3     C     3.04135  3.04135  0.00000 -0.08271
       4     H     0.45130  0.45130  0.00000  0.09741
       5     H     0.45614  0.45614  0.00000  0.08773
       6     N     3.62122  3.62122  0.00000 -0.24244
       7     H     0.45174  0.45174  0.00000  0.09652
       8     H     0.46427  0.46427  0.00000  0.07146
       9     C     3.05467  3.05467  0.00000 -0.10933
      10     C     3.04426  3.04426  0.00000 -0.08851
      11     C     3.13066  3.13066  0.00000 -0.26132
      12     H     0.45081  0.45081  0.00000  0.09838
      13     H     0.45574  0.45574  0.00000  0.08852
      14     C     3.14403  3.14403  0.00000 -0.28805
      15     H     0.45003  0.45003  0.00000  0.09993
      16     H     0.46426  0.46426  0.00000  0.07148
      17     H     0.45251  0.45251  0.00000  0.09498
      18     H     0.45608  0.45608  0.00000  0.08785
      19     H     0.45651  0.45651  0.00000  0.08699
      20     H     0.45137  0.45137  0.00000  0.09726
      21     H     0.45554  0.45554  0.00000  0.08892
      22     H     0.45156  0.45156  0.00000  0.09687

   Total alpha = 29.00000, Total beta = 29.00000, Total charge =  0.00000
