  ==> Input File <==

--------------------------------------------------------------------------
set {
	reference rhf
	basis 6-31G*
}

set_num_threads( 4 )
memory 2 gb

molecule MOL {
0 1

H	 -0.694914	 1.794405	 0.134432
O	 0.055946	 1.300438	 -0.164479
C	 0.004957	 -0.004114	 0.366649
C	 1.201664	 -0.828089	 -0.095740
C	 -1.317755	 -0.601827	 -0.081511
H	 0.013527	 0.048298	 1.454924
H	 1.216388	 -0.895289	 -1.178704
H	 2.135132	 -0.372895	 0.226467
H	 1.166770	 -1.832878	 0.313827
H	 -1.355732	 -0.658248	 -1.164429
H	 -2.141614	 0.017037	 0.254547
H	 -1.447303	 -1.600817	 0.322594

	symmetry c1
}
set optking {
	frozen_dihedral = ("
		1 2 3 4
	")
}

ee = optimize('scf')
oeprop('DIPOLE', 'QUADRUPOLE', 'MULLIKEN_CHARGES')
f=open( 'psi4out.xyz', 'w' )
f.write( "12  " )
f.write( str(ee) + "\n" )
f.write( MOL.save_string_xyz() )
f.close()
--------------------------------------------------------------------------

    Molecular point group: c1
  Charge       = 0
  Multiplicity = 1
  Basis Set: 6-31G*
  Basis Set:
  @DF-RHF Final Energy:  -193.11317169689300
    Total Energy =                       -193.1131716968929197
    Molecular point group: c1
  Basis Set: 6-31G*
  Basis Set:
  Basis Set: 6-31G*
  Basis Set:
  @DF-RHF Final Energy:  -193.11492374182498
    Total Energy =                       -193.1149237418249811
  Basis Set: 6-31G*
  Basis Set:
  Basis Set: 6-31G*
  Basis Set:
  @DF-RHF Final Energy:  -193.11530920800379
    Total Energy =                       -193.1153092080037936
  Basis Set: 6-31G*
  Basis Set:
  Basis Set: 6-31G*
  Basis Set:
  @DF-RHF Final Energy:  -193.11531428774475
    Total Energy =                       -193.1153142877447806
  Basis Set: 6-31G*
  Basis Set:
  Charge       = 0
  Multiplicity = 1
  Basis Set: 6-31G*
  Basis Set:

    Orbital Energies (a.u.)
    -----------------------

    Doubly Occupied:

       1A    -20.551123     2A    -11.275599     3A    -11.213331
       4A    -11.206551     5A     -1.360436     6A     -1.041712
       7A     -0.939886     8A     -0.802103     9A     -0.698585
      10A     -0.626821    11A     -0.604109    12A     -0.546131
      13A     -0.534136    14A     -0.528303    15A     -0.510414
      16A     -0.467534    17A     -0.429799

  @DF-RHF Final Energy:  -193.11531490218655

   => Energetics <=

    Nuclear Repulsion Energy =            135.5554356763946373
    One-Electron Energy =                -530.6683589006407828
    Two-Electron Energy =                 201.9976083220596763
    DFT Exchange-Correlation Energy =       0.0000000000000000
    Empirical Dispersion Energy =           0.0000000000000000
    PCM Polarization Energy =               0.0000000000000000
    EFP Energy =                            0.0000000000000000
    Total Energy =                       -193.1153149021864976
    Molecular point group: c1
  Basis Set: 6-31G*
  Basis Set:

  -Total Gradient:
     Atom            X                  Y                   Z
    ------   -----------------  -----------------  -----------------
       1       -0.000151351821    -0.000096793019    -0.000249425820
       2        0.000161105369     0.000109008952     0.000248795107
       3        0.000073835412     0.000097907600     0.000101198220
       4       -0.000112205538    -0.000085219766    -0.000122049374
       5        0.000005187814     0.000001014917     0.000010466328
       6        0.000001992941    -0.000025040546    -0.000016745693
       7       -0.000011750907     0.000009754487    -0.000001529768
       8       -0.000008294757     0.000008737024     0.000015895804
       9        0.000007815252    -0.000007989730    -0.000011830386
      10        0.000010201811     0.000016049300     0.000016264151
      11        0.000024449328    -0.000004597660    -0.000003913348
      12       -0.000000984904    -0.000022831558     0.000012874780

  **** Optimization is complete! (in 5 steps) ****
    Final optimized geometry and variables:
    Molecular point group: c1

    Geometry (in Angstrom), charge = 0, multiplicity = 1:

    H           -0.580176895816     1.832526491305     0.108737227713
    O            0.151804114134     1.293921240717    -0.158219709402
    C           -0.000801081650    -0.004864103273     0.367364550632
    C            1.203109125219    -0.804518340903    -0.100438482501
    C           -1.319246410660    -0.624551109128    -0.082642544813
    H            0.011889592245     0.042178785888     1.455835550942
    H            1.216379844877    -0.862204724868    -1.183848011514
    H            2.119864014732    -0.326312686177     0.224657078182
    H            1.177391247426    -1.812759147459     0.300636434958
    H           -1.357708835142    -0.682527150236    -1.165572553153
    H           -2.164371653609    -0.028458445306     0.253574381833
    H           -1.440143664044    -1.624311025837     0.322809155080

  Mulliken Charges: (a.u.)
   Center  Symbol    Alpha    Beta     Spin     Total
       1     H     0.28262  0.28262  0.00000  0.43475
       2     O     4.37192  4.37192  0.00000 -0.74385
       3     C     2.91740  2.91740  0.00000  0.16519
       4     C     3.23969  3.23969  0.00000 -0.47937
       5     C     3.24921  3.24921  0.00000 -0.49843
       6     H     0.43036  0.43036  0.00000  0.13929
       7     H     0.41529  0.41529  0.00000  0.16943
       8     H     0.41126  0.41126  0.00000  0.17748
       9     H     0.42334  0.42334  0.00000  0.15333
      10     H     0.41363  0.41363  0.00000  0.17274
      11     H     0.42526  0.42526  0.00000  0.14949
      12     H     0.42002  0.42002  0.00000  0.15995

   Total alpha = 17.00000, Total beta = 17.00000, Total charge = -0.00000
