  ==> Input File <==

--------------------------------------------------------------------------
set {
	reference rhf
	basis 6-31G*
}

set_num_threads( 4 )
memory 2 gb

molecule MOL {
0 1

H	 -3.650283	 0.221984	 0.000000
C	 -2.577024	 0.154109	 0.000000
C	 -1.960329	 -1.089307	 0.000000
C	 -1.811733	 1.307557	 0.000000
H	 -2.554473	 -1.985285	 0.000000
C	 -0.581547	 -1.175855	 0.000000
H	 -2.287118	 2.271701	 0.000000
C	 -0.428719	 1.219221	 0.000000
H	 -0.090826	 -2.129898	 0.000000
C	 0.198341	 -0.021559	 0.000000
H	 0.149947	 2.124040	 0.000000
C	 1.691355	 -0.173192	 0.000000
C	 2.539865	 0.892542	 -0.661652
O	 2.205719	 -1.121742	 0.514837
H	 2.292065	 0.987175	 -1.713992
H	 3.579211	 0.614312	 -0.562470
H	 2.380659	 1.859486	 -0.195334

	symmetry c1
}
set optking {
	frozen_dihedral = ("
		13 12 10 8
	")
}

ee = optimize('scf')
oeprop('DIPOLE', 'QUADRUPOLE', 'MULLIKEN_CHARGES')
f=open( 'psi4out.xyz', 'w' )
f.write( "17  " )
f.write( str(ee) + "\n" )
f.write( MOL.save_string_xyz() )
f.close()
--------------------------------------------------------------------------

    Molecular point group: c1
  Charge       = 0
  Multiplicity = 1
  Basis Set: 6-31G*
  Basis Set:
  @DF-RHF Final Energy:  -382.47342967245925
    Total Energy =                       -382.4734296724599290
    Molecular point group: c1
  Basis Set: 6-31G*
  Basis Set:
  Basis Set: 6-31G*
  Basis Set:
  @DF-RHF Final Energy:  -382.47189745261022
    Total Energy =                       -382.4718974526097099
  Basis Set: 6-31G*
  Basis Set:
  Basis Set: 6-31G*
  Basis Set:
  @DF-RHF Final Energy:  -382.47388136414872
    Total Energy =                       -382.4738813641483830
  Basis Set: 6-31G*
  Basis Set:
  Basis Set: 6-31G*
  Basis Set:
  @DF-RHF Final Energy:  -382.47395381486677
    Total Energy =                       -382.4739538148667179
  Basis Set: 6-31G*
  Basis Set:
  Basis Set: 6-31G*
  Basis Set:
  @DF-RHF Final Energy:  -382.47396522115008
    Total Energy =                       -382.4739652211500243
  Basis Set: 6-31G*
  Basis Set:
  Basis Set: 6-31G*
  Basis Set:
  @DF-RHF Final Energy:  -382.47397189469177
    Total Energy =                       -382.4739718946919993
  Basis Set: 6-31G*
  Basis Set:
  Charge       = 0
  Multiplicity = 1
  Basis Set: 6-31G*
  Basis Set:

    Orbital Energies (a.u.)
    -----------------------

    Doubly Occupied:

       1A    -20.551322     2A    -11.331887     3A    -11.248274
       4A    -11.244972     5A    -11.243609     6A    -11.240790
       7A    -11.240606     8A    -11.238269     9A    -11.229947
      10A     -1.397480    11A     -1.165609    12A     -1.049691
      13A     -1.026276    14A     -0.996589    15A     -0.860704
      16A     -0.835380    17A     -0.759993    18A     -0.707417
      19A     -0.656521    20A     -0.646264    21A     -0.624378
      22A     -0.611646    23A     -0.599054    24A     -0.592493
      25A     -0.555556    26A     -0.525943    27A     -0.515240
      28A     -0.500868    29A     -0.490861    30A     -0.410693
      31A     -0.344999    32A     -0.341396

  @DF-RHF Final Energy:  -382.47397213069235

   => Energetics <=

    Nuclear Repulsion Energy =            403.4104652951020853
    One-Electron Energy =               -1318.1994237405090189
    Two-Electron Energy =                 532.3149863147150427
    DFT Exchange-Correlation Energy =       0.0000000000000000
    Empirical Dispersion Energy =           0.0000000000000000
    PCM Polarization Energy =               0.0000000000000000
    EFP Energy =                            0.0000000000000000
    Total Energy =                       -382.4739721306918909
    Molecular point group: c1
  Basis Set: 6-31G*
  Basis Set:

  -Total Gradient:
     Atom            X                  Y                   Z
    ------   -----------------  -----------------  -----------------
       1       -0.000000516633    -0.000001440668     0.000003294809
       2       -0.000000393393     0.000009587784    -0.000031774328
       3        0.000009276634    -0.000010978177    -0.000003636763
       4       -0.000004869220    -0.000005403339     0.000036142677
       5       -0.000001363642    -0.000000186410     0.000001003234
       6       -0.000016068344    -0.000003654684     0.000031910699
       7        0.000002249496     0.000000883284    -0.000004109470
       8       -0.000074290109    -0.000018839679     0.003110678332
       9        0.000001269271    -0.000000341373    -0.000014205978
      10        0.000070392816    -0.000615104237    -0.005821348576
      11       -0.000003710559     0.000003058600    -0.000006103781
      12        0.000102185227     0.001994379884     0.005089194910
      13       -0.000071689821    -0.001371728711    -0.002387815394
      14       -0.000012864779     0.000014672833     0.000000455500
      15       -0.000002262433    -0.000003460261     0.000002450165
      16        0.000003175794     0.000005500719    -0.000005802161
      17       -0.000000520309     0.000003054434    -0.000000333877

  **** Optimization is complete! (in 7 steps) ****
    Final optimized geometry and variables:
    Molecular point group: c1

    Geometry (in Angstrom), charge = 0, multiplicity = 1:

    H           -3.647945131212     0.226493341890     0.029281792450
    C           -2.574733002056     0.158486697132     0.022125287868
    C           -1.958220354172    -1.084468160995     0.040949038439
    C           -1.808881639675     1.311667025470    -0.000874022514
    H           -2.552398006520    -1.980161374208     0.063161527439
    C           -0.578766187969    -1.171380199574     0.041401256294
    H           -2.284056050674     2.276010598440    -0.004168109375
    C           -0.426118313574     1.223144270321    -0.019700017394
    H           -0.089868499590    -2.126287091074     0.077318667476
    C            0.199041452649    -0.018004282158    -0.006562356422
    H            0.155788583457     2.126379038596    -0.040875224146
    C            1.692450400868    -0.162446882982     0.032468003448
    C            2.542693606467     0.915439598664    -0.607084368822
    O            2.195143196675    -1.135970138206     0.509254606482
    H            2.200358731922     1.124296852085    -1.615005764577
    H            3.569988909230     0.580508181327    -0.628231819677
    H            2.488659775477     1.841411706849    -0.042727051519

  Mulliken Charges: (a.u.)
   Center  Symbol    Alpha    Beta     Spin     Total
       1     H     0.39559  0.39559  0.00000  0.20882
       2     C     3.09334  3.09334  0.00000 -0.18669
       3     C     3.10350  3.10350  0.00000 -0.20700
       4     C     3.10357  3.10357  0.00000 -0.20715
       5     H     0.39530  0.39530  0.00000  0.20941
       6     C     3.09043  3.09043  0.00000 -0.18086
       7     H     0.39641  0.39641  0.00000  0.20719
       8     C     3.10311  3.10311  0.00000 -0.20621
       9     H     0.37940  0.37940  0.00000  0.24120
      10     C     3.04980  3.04980  0.00000 -0.09960
      11     H     0.39466  0.39466  0.00000  0.21068
      12     C     2.73334  2.73334  0.00000  0.53332
      13     C     3.29130  3.29130  0.00000 -0.58259
      14     O     4.26402  4.26402  0.00000 -0.52804
      15     H     0.40460  0.40460  0.00000  0.19081
      16     H     0.39433  0.39433  0.00000  0.21135
      17     H     0.40731  0.40731  0.00000  0.18538

   Total alpha = 32.00000, Total beta = 32.00000, Total charge = -0.00000
