  ==> Input File <==

--------------------------------------------------------------------------
set {
	reference rhf
	basis 6-31G*
}

set_num_threads( 4 )
memory 2 gb

molecule MOL {
0 1

O	 -2.042549	 -1.228399	 -0.269030
C	 -1.653912	 -0.146171	 0.050137
C	 -0.332303	 0.024011	 0.778412
C	 -2.438579	 1.106236	 -0.272369
C	 0.451171	 -1.297732	 0.810583
H	 0.266545	 0.797449	 0.305594
H	 -0.553517	 0.339287	 1.792112
C	 1.777354	 -1.178011	 1.562871
H	 0.645018	 -1.635443	 -0.206008
H	 -0.169387	 -2.056675	 1.277544
C	 2.554401	 -2.493192	 1.604143
H	 2.390043	 -0.410012	 1.095736
H	 1.583424	 -0.840156	 2.578161
H	 2.793219	 -2.839906	 0.602740
H	 1.979240	 -3.272546	 2.095305
H	 3.487978	 -2.379282	 2.145886
H	 -3.277823	 0.863061	 -0.908988
H	 -1.806773	 1.843019	 -0.759671
H	 -2.802853	 1.554979	 0.648059

	symmetry c1
}
set optking {
	frozen_dihedral = ("
		5 3 2 4
	")
}

ee = optimize('scf')
oeprop('DIPOLE', 'QUADRUPOLE', 'MULLIKEN_CHARGES')
f=open( 'psi4out.xyz', 'w' )
f.write( "19  " )
f.write( str(ee) + "\n" )
f.write( MOL.save_string_xyz() )
f.close()
--------------------------------------------------------------------------

    Molecular point group: c1
  Charge       = 0
  Multiplicity = 1
  Basis Set: 6-31G*
  Basis Set:
  @DF-RHF Final Energy:  -309.06583988066086
    Total Energy =                       -309.0658398806606328
    Molecular point group: c1
  Basis Set: 6-31G*
  Basis Set:
  Basis Set: 6-31G*
  Basis Set:
  @DF-RHF Final Energy:  -309.06572954743359
    Total Energy =                       -309.0657295474335911
  Basis Set: 6-31G*
  Basis Set:
  Basis Set: 6-31G*
  Basis Set:
  @DF-RHF Final Energy:  -309.06586568221007
    Total Energy =                       -309.0658656822100738
  Basis Set: 6-31G*
  Basis Set:
  Basis Set: 6-31G*
  Basis Set:
  @DF-RHF Final Energy:  -309.06686497330656
    Total Energy =                       -309.0668649733066786
  Basis Set: 6-31G*
  Basis Set:
  @DF-RHF Final Energy:  -309.06689293323109
    Total Energy =                       -309.0668929332309176
  @DF-RHF Final Energy:  -309.06695893513711
    Total Energy =                       -309.0669589351371087
  @DF-RHF Final Energy:  -309.06698129648794
    Total Energy =                       -309.0669812964880521
  @DF-RHF Final Energy:  -309.06704442285883
    Total Energy =                       -309.0670444228591691
  @DF-RHF Final Energy:  -309.06705357382617
    Total Energy =                       -309.0670535738257172
  Basis Set: 6-31G*
  Basis Set:
  @DF-RHF Final Energy:  -309.06705733177984
    Total Energy =                       -309.0670573317798926
  Basis Set: 6-31G*
  Basis Set:
  Basis Set: 6-31G*
  Basis Set:
  @DF-RHF Final Energy:  -309.06706053382953
    Total Energy =                       -309.0670605338293626
  Basis Set: 6-31G*
  Basis Set:
  Basis Set: 6-31G*
  Basis Set:
  @DF-RHF Final Energy:  -309.06706830214023
    Total Energy =                       -309.0670683021402283
  Basis Set: 6-31G*
  Basis Set:
  Charge       = 0
  Multiplicity = 1
  Basis Set: 6-31G*
  Basis Set:

    Orbital Energies (a.u.)
    -----------------------

    Doubly Occupied:

       1A    -20.550353     2A    -11.326574     3A    -11.232231
       4A    -11.228626     5A    -11.219502     6A    -11.217387
       7A    -11.210109     8A     -1.395825     9A     -1.085863
      10A     -1.029765    11A     -0.983642    12A     -0.886345
      13A     -0.801310    14A     -0.730917    15A     -0.656562
      16A     -0.650811    17A     -0.625765    18A     -0.611269
      19A     -0.580970    20A     -0.570481    21A     -0.554778
      22A     -0.529833    23A     -0.511598    24A     -0.486534
      25A     -0.476353    26A     -0.473230    27A     -0.468643
      28A     -0.400369

  @DF-RHF Final Energy:  -309.06707727630464

   => Energetics <=

    Nuclear Repulsion Energy =            300.8080567694682941
    One-Electron Energy =               -1014.7589788724181972
    Two-Electron Energy =                 404.8838448266452588
    DFT Exchange-Correlation Energy =       0.0000000000000000
    Empirical Dispersion Energy =           0.0000000000000000
    PCM Polarization Energy =               0.0000000000000000
    EFP Energy =                            0.0000000000000000
    Total Energy =                       -309.0670772763046443
    Molecular point group: c1
  Basis Set: 6-31G*
  Basis Set:

  -Total Gradient:
     Atom            X                  Y                   Z
    ------   -----------------  -----------------  -----------------
       1        0.000014428708    -0.000026155285     0.000001593678
       2       -0.000231228444     0.000003559601     0.000273689234
       3       -0.000156329386    -0.000087704307     0.000272279638
       4        0.000128427216     0.000004149415    -0.000258259325
       5        0.000161834753     0.000091285844    -0.000281738474
       6        0.000013508903     0.000003200171     0.000000213408
       7        0.000007319176    -0.000006564385    -0.000004888044
       8       -0.000008839922    -0.000000713695     0.000004720062
       9       -0.000001413983    -0.000005327145    -0.000001382330
      10        0.000001584138     0.000005736186     0.000000215637
      11        0.000002804581    -0.000000650421    -0.000001057570
      12       -0.000002119360    -0.000002395181    -0.000002265218
      13        0.000001077135     0.000002617805     0.000003128544
      14        0.000001980197    -0.000001117648    -0.000001810159
      15       -0.000000413228     0.000000430243    -0.000000730796
      16       -0.000002266172     0.000000648884     0.000000740014
      17        0.000015162866    -0.000012288133    -0.000002226831
      18        0.000028564962     0.000014231097     0.000003812299
      19        0.000025917862     0.000017056957    -0.000006033766

  **** Optimization is complete! (in 13 steps) ****
    Final optimized geometry and variables:
    Molecular point group: c1

    Geometry (in Angstrom), charge = 0, multiplicity = 1:

    O           -1.849992229635    -0.450302957075    -0.959888711379
    C           -1.424799640031     0.598774785241    -0.583860732067
    C           -0.116418109974     0.715948287486     0.177089445798
    C           -2.166601284069     1.892178005681    -0.849672104484
    C            0.702319039155    -0.571362566715     0.207356636331
    H            0.460441950523     1.531626678453    -0.255514897837
    H           -0.359735745675     1.038660118000     1.189215446200
    C            2.004878469598    -0.421178800618     0.994925394077
    H            0.922722251519    -0.877910672139    -0.811140312647
    H            0.100779099609    -1.365701577485     0.636472646793
    C            2.827986541947    -1.708389913848     1.025400695511
    H            2.602935350804     0.378114077787     0.561536177923
    H            1.779455332867    -0.114083031169     2.014353759758
    H            3.099849325135    -2.023015582895     0.021978706341
    H            2.269794064227    -2.518865516174     1.484915418697
    H            3.745080450318    -1.575115781756     1.590752801972
    H           -3.149341692880     1.676406017719    -1.245347594305
    H           -1.614137152000     2.486446255817    -1.572559536261
    H           -2.255246239397     2.485578024717     0.055087432345

  Mulliken Charges: (a.u.)
   Center  Symbol    Alpha    Beta     Spin     Total
       1     O     4.26144  4.26144  0.00000 -0.52288
       2     C     2.73514  2.73514  0.00000  0.52971
       3     C     3.21123  3.21123  0.00000 -0.42246
       4     C     3.28692  3.28692  0.00000 -0.57385
       5     C     3.14739  3.14739  0.00000 -0.29478
       6     H     0.41169  0.41169  0.00000  0.17662
       7     H     0.40790  0.40790  0.00000  0.18420
       8     C     3.15354  3.15354  0.00000 -0.30708
       9     H     0.41494  0.41494  0.00000  0.17012
      10     H     0.40967  0.40967  0.00000  0.18065
      11     C     3.23928  3.23928  0.00000 -0.47857
      12     H     0.42422  0.42422  0.00000  0.15156
      13     H     0.42376  0.42376  0.00000  0.15249
      14     H     0.42028  0.42028  0.00000  0.15944
      15     H     0.41977  0.41977  0.00000  0.16046
      16     H     0.41922  0.41922  0.00000  0.16156
      17     H     0.39661  0.39661  0.00000  0.20677
      18     H     0.40658  0.40658  0.00000  0.18683
      19     H     0.41040  0.41040  0.00000  0.17919

   Total alpha = 28.00000, Total beta = 28.00000, Total charge = -0.00000
