                              Psi4 1.0.54 Driver

  ==> Input File <==

--------------------------------------------------------------------------
set {
	reference rhf
	basis cc-pvtz
}

set_num_threads( 4 )
memory 2 gb

molecule MOL {
0 1

H	 3.889604	 0.356866	 -0.089510
N	 3.091268	 -0.241216	 -0.065538
C	 1.860978	 0.530248	 0.016256
H	 3.192566	 -0.835836	 0.730398
C	 0.644130	 -0.381765	 -0.031064
H	 1.835721	 1.204666	 -0.833114
H	 1.808789	 1.151975	 0.911067
C	 -0.678115	 0.376691	 0.025731
H	 0.693998	 -0.977147	 -0.936845
H	 0.693309	 -1.082142	 0.800523
C	 -0.712350	 1.451465	 1.108732
H	 -1.489316	 -0.327303	 0.196898
H	 -0.874852	 0.837285	 -0.939680
C	 -2.038063	 2.203014	 1.166490
H	 -0.515535	 0.993424	 2.074006
H	 0.094976	 2.158417	 0.937811
H	 -2.862252	 1.527632	 1.370968
H	 -2.028703	 2.957435	 1.944800
H	 -2.247054	 2.701436	 0.225621

	symmetry c1
}
set optking {
	frozen_dihedral = ("
		12 8 5 9
	")
}

ee,wfn = optimize('scf', return_wfn=True)
oeprop( wfn, 'DIPOLE', 'QUADRUPOLE', 'MULLIKEN_CHARGES')
f=open( 'psi4out.xyz', 'w' )
f.write( "19  " )
f.write( str(ee) + "\n" )
f.write( MOL.save_string_xyz() )
f.close()
--------------------------------------------------------------------------

    Molecular point group: c1
  Charge       = 0
  Multiplicity = 1
  Basis Set: CC-PVTZ
  Basis Set:
  @DF-RHF Final Energy:  -251.44271432239222
    Total Energy =                       -251.4427143223921348
    Molecular point group: c1
  Basis Set: CC-PVTZ
  Basis Set:
  Basis Set: CC-PVTZ
  Basis Set:
  @DF-RHF Final Energy:  -251.44237567736718
    Total Energy =                       -251.4423756773670675
  Basis Set: CC-PVTZ
  Basis Set:
  Basis Set: CC-PVTZ
  Basis Set:
  @DF-RHF Final Energy:  -251.44472094971505
    Total Energy =                       -251.4447209497151334
  Basis Set: CC-PVTZ
  Basis Set:
  Basis Set: CC-PVTZ
  Basis Set:
  @DF-RHF Final Energy:  -251.44489993717869
    Total Energy =                       -251.4448999371790023
  Basis Set: CC-PVTZ
  Basis Set:
  Basis Set: CC-PVTZ
  Basis Set:
  @DF-RHF Final Energy:  -251.44491826213965
    Total Energy =                       -251.4449182621395380
  Basis Set: CC-PVTZ
  Basis Set:
  Basis Set: CC-PVTZ
  Basis Set:
  @DF-RHF Final Energy:  -251.44492018575457
    Total Energy =                       -251.4449201857544267
  Basis Set: CC-PVTZ
  Basis Set:
  Charge       = 0
  Multiplicity = 1
  Basis Set: CC-PVTZ
  Basis Set:

    Orbital Energies (a.u.)
    -----------------------

    Doubly Occupied:

       1A    -15.526062     2A    -11.237087     3A    -11.212511
       4A    -11.211136     5A    -11.208310     6A    -11.206051
       7A     -1.177795     8A     -1.073571     9A     -0.997396
      10A     -0.899845    11A     -0.832255    12A     -0.773222
      13A     -0.656228    14A     -0.642783    15A     -0.629683
      16A     -0.586853    17A     -0.571129    18A     -0.544900
      19A     -0.529898    20A     -0.506160    21A     -0.484937
      22A     -0.461737    23A     -0.456468    24A     -0.450374
      25A     -0.383099

  @DF-RHF Final Energy:  -251.44492026466185

   => Energetics <=

    Nuclear Repulsion Energy =            249.7587542079086234
    One-Electron Energy =                -833.8883638265865557
    Two-Electron Energy =                 332.6846893540159726
    DFT Exchange-Correlation Energy =       0.0000000000000000
    Empirical Dispersion Energy =           0.0000000000000000
    PCM Polarization Energy =               0.0000000000000000
    EFP Energy =                            0.0000000000000000
    Total Energy =                       -251.4449202646619597
    Molecular point group: c1
  Basis Set: CC-PVTZ
  Basis Set:

  -Total Gradient:
     Atom            X                  Y                   Z
    ------   -----------------  -----------------  -----------------
       1        0.000002904852    -0.000000551368    -0.000002828734
       2        0.000004460810    -0.000002858775     0.000009362931
       3       -0.000002904714    -0.000003478949    -0.000019023721
       4        0.000003918547     0.000003852010    -0.000000864652
       5       -0.001791558635    -0.003519824180     0.002925996650
       6        0.000001978168     0.000004263071     0.000002377351
       7       -0.000005417124    -0.000004527972     0.000001890424
       8       -0.000240471486     0.000301149363    -0.004832361548
       9        0.001544196519     0.002921865449    -0.001722407038
      10       -0.000002739034    -0.000001559668    -0.000001952072
      11        0.000009750838     0.000017320917    -0.000018324253
      12        0.000476273974     0.000293234834     0.003649494477
      13        0.000003952759     0.000001914082     0.000006109154
      14       -0.000004994065    -0.000008363183     0.000009448579
      15       -0.000001639135    -0.000000433517    -0.000005585749
      16        0.000003541307    -0.000001722574    -0.000000801086
      17       -0.000002626673     0.000002703419    -0.000003823362
      18       -0.000001972722    -0.000002939451     0.000001455559
      19        0.000003345819    -0.000000043505     0.000001837092

  **** Optimization is complete! (in 7 steps) ****
    Final optimized geometry and variables:
    Molecular point group: c1

    Geometry (in Angstrom), charge = 0, multiplicity = 1:

    H            3.518921772839    -0.351788441707    -0.760055542210
    N            2.695378287971    -0.914748161457    -0.731395216307
    C            1.523494691994    -0.109724205045    -0.417795220901
    H            2.842817750536    -1.613202103915    -0.032618886187
    C            0.271639600642    -0.980064878935    -0.410250863329
    H            1.427180562110     0.649100050399    -1.188262655188
    H            1.620947326909     0.414636496428     0.530465231989
    C           -1.050330156663    -0.215342596008    -0.296113423797
    H            0.277408011511    -1.534481532283    -1.341978542871
    H            0.347644654039    -1.703616236355     0.398156190964
    C           -1.125589359892     0.805118659249     0.840859631464
    H           -1.843622567955    -0.939385706674    -0.132816913150
    H           -1.264464620177     0.283685872190    -1.237179612791
    C           -2.516894886887     1.412927516352     0.988729242807
    H           -0.841914066439     0.325993879273     1.774761439486
    H           -0.408984551147     1.602601329217     0.676870391478
    H           -3.257381705536     0.649861210952     1.204248529164
    H           -2.545781094957     2.138624888843     1.793525451891
    H           -2.821120850955     1.917885154103     0.077719625053

  Mulliken Charges: (a.u.)
   Center  Symbol    Alpha    Beta     Spin     Total
       1     H     0.43008  0.43008  0.00000  0.13984
       2     N     3.69117  3.69117  0.00000 -0.38235
       3     C     3.02769  3.02769  0.00000 -0.05538
       4     H     0.43091  0.43091  0.00000  0.13817
       5     C     3.09253  3.09253  0.00000 -0.18506
       6     H     0.45638  0.45638  0.00000  0.08723
       7     H     0.46368  0.46368  0.00000  0.07265
       8     C     3.09850  3.09850  0.00000 -0.19700
       9     H     0.44374  0.44374  0.00000  0.11252
      10     H     0.45768  0.45768  0.00000  0.08464
      11     C     3.09022  3.09022  0.00000 -0.18044
      12     H     0.45046  0.45046  0.00000  0.09908
      13     H     0.45148  0.45148  0.00000  0.09703
      14     C     3.14975  3.14975  0.00000 -0.29950
      15     H     0.45421  0.45421  0.00000  0.09158
      16     H     0.45295  0.45295  0.00000  0.09409
      17     H     0.45479  0.45479  0.00000  0.09041
      18     H     0.44869  0.44869  0.00000  0.10261
      19     H     0.45507  0.45507  0.00000  0.08986

   Total alpha = 25.00000, Total beta = 25.00000, Total charge =  0.00000

*** Psi4 exiting successfully. Buy a developer a beer!
