  ==> Input File <==

--------------------------------------------------------------------------
set {
	reference rhf
	basis 6-31G*
}

set_num_threads( 4 )
memory 2 gb

molecule MOL {
0 1

H	 -2.452259	 0.056043	 2.086897
C	 -2.337531	 -0.594613	 1.222244
O	 -1.058267	 -0.503845	 0.683187
H	 -2.488618	 -1.619264	 1.532737
H	 -3.100389	 -0.333107	 0.490062
C	 -0.719715	 0.768384	 0.229244
C	 0.719720	 0.768376	 -0.229267
H	 -1.361527	 1.055505	 -0.604624
H	 -0.844614	 1.506940	 1.018509
O	 1.392611	 -0.295398	 0.366430
H	 0.750534	 0.687200	 -1.313918
H	 1.185043	 1.714359	 0.050526
C	 2.706965	 -0.449871	 -0.062409
H	 2.756559	 -0.644779	 -1.131878
H	 3.305899	 0.433456	 0.155466
H	 3.125548	 -1.294566	 0.467107

	symmetry c1
}
set optking {
	frozen_dihedral = ("
		3 6 7 11
	")
}

ee = optimize('scf')
oeprop('DIPOLE', 'QUADRUPOLE', 'MULLIKEN_CHARGES')
f=open( 'psi4out.xyz', 'w' )
f.write( "16  " )
f.write( str(ee) + "\n" )
f.write( MOL.save_string_xyz() )
f.close()
--------------------------------------------------------------------------

    Molecular point group: c1
  Charge       = 0
  Multiplicity = 1
  Basis Set: 6-31G*
  Basis Set:
  @DF-RHF Final Energy:  -306.96544445924820
    Total Energy =                       -306.9654444592483173
    Molecular point group: c1
  Basis Set: 6-31G*
  Basis Set:
  Basis Set: 6-31G*
  Basis Set:
  @DF-RHF Final Energy:  -306.96660881087405
    Total Energy =                       -306.9666088108740496
  Basis Set: 6-31G*
  Basis Set:
  Basis Set: 6-31G*
  Basis Set:
  @DF-RHF Final Energy:  -306.96739139025635
    Total Energy =                       -306.9673913902562958
  Basis Set: 6-31G*
  Basis Set:
  Basis Set: 6-31G*
  Basis Set:
  @DF-RHF Final Energy:  -306.96741973672397
    Total Energy =                       -306.9674197367239117
  Basis Set: 6-31G*
  Basis Set:
  Charge       = 0
  Multiplicity = 1
  Basis Set: 6-31G*
  Basis Set:

    Orbital Energies (a.u.)
    -----------------------

    Doubly Occupied:

       1A    -20.553367     2A    -20.551580     3A    -11.271525
       4A    -11.270937     5A    -11.263204     6A    -11.262420
       7A     -1.390047     8A     -1.369463     9A     -1.025974
      10A     -0.934471    11A     -0.897642    12A     -0.819666
      13A     -0.686280    14A     -0.674997    15A     -0.658568
      16A     -0.643639    17A     -0.620237    18A     -0.591890
      19A     -0.570996    20A     -0.518359    21A     -0.508133
      22A     -0.470109    23A     -0.467827    24A     -0.420979
      25A     -0.401225

  @DF-RHF Final Energy:  -306.96742107332847

   => Energetics <=

    Nuclear Repulsion Energy =            259.7283920438110840
    One-Electron Energy =                -933.7045594535738928
    Two-Electron Energy =                 367.0087463364341147
    DFT Exchange-Correlation Energy =       0.0000000000000000
    Empirical Dispersion Energy =           0.0000000000000000
    PCM Polarization Energy =               0.0000000000000000
    EFP Energy =                            0.0000000000000000
    Total Energy =                       -306.9674210733287509
    Molecular point group: c1
  Basis Set: 6-31G*
  Basis Set:

  -Total Gradient:
     Atom            X                  Y                   Z
    ------   -----------------  -----------------  -----------------
       1        0.000003197614     0.000002224021     0.000007663830
       2       -0.000026710731     0.000009138323     0.000000372403
       3        0.002200275404     0.001431615810     0.005936908383
       4        0.000020013765     0.000000045502    -0.000004012304
       5        0.000010547679    -0.000005222913    -0.000005195218
       6       -0.002897391577     0.000139708368    -0.008019602388
       7        0.000547677109    -0.009817118234     0.002487589052
       8       -0.000023516636    -0.000035064972     0.000011935964
       9        0.000039695561     0.000036733758    -0.000031446450
      10        0.000061173093    -0.000061824238     0.000023287376
      11        0.000054803659     0.008307413784    -0.000408664498
      12        0.000018765858     0.000000692393    -0.000008288812
      13       -0.000013946005     0.000001819035     0.000008902827
      14        0.000001975139    -0.000006902987    -0.000007206953
      15       -0.000000568114     0.000004165374     0.000006890189
      16        0.000004008182    -0.000007423023     0.000000866600

  **** Optimization is complete! (in 5 steps) ****
    Final optimized geometry and variables:
    Molecular point group: c1

    Geometry (in Angstrom), charge = 0, multiplicity = 1:

    H           -2.653335274165     0.198939730143     1.688590983492
    C           -2.534602906776    -0.479641391049     0.845178955260
    O           -1.235602118731    -0.454318624322     0.350136396373
    H           -2.736002189868    -1.488677592585     1.177107029925
    H           -3.261736583761    -0.208319068751     0.081055551162
    C           -0.833075532310     0.796788727997    -0.098302856189
    C            0.606587392253     0.755811596348    -0.623482117123
    H           -1.490790639217     1.162465072261    -0.886420821777
    H           -0.896010084113     1.507084237694     0.725695130390
    O            1.331614780903    -0.269149107804    -0.039905109877
    H            0.615217776191     0.698836286082    -1.712018805310
    H            1.067411503401     1.718538226897    -0.392206949801
    C            2.658459657726    -0.322471544737    -0.453711689913
    H            2.735406491372    -0.479299291441    -1.528268216095
    H            3.194236523519     0.591120385022    -0.199942900737
    H            3.123826220955    -1.154654833746     0.055849712696

  Mulliken Charges: (a.u.)
   Center  Symbol    Alpha    Beta     Spin     Total
       1     H     0.43063  0.43063  0.00000  0.13875
       2     C     3.08024  3.08024  0.00000 -0.16047
       3     O     4.29224  4.29224  0.00000 -0.58447
       4     H     0.41030  0.41030  0.00000  0.17940
       5     H     0.43184  0.43184  0.00000  0.13633
       6     C     2.99359  2.99359  0.00000  0.01282
       7     C     2.99531  2.99531  0.00000  0.00939
       8     H     0.43085  0.43085  0.00000  0.13830
       9     H     0.42979  0.42979  0.00000  0.14042
      10     O     4.29049  4.29049  0.00000 -0.58097
      11     H     0.42971  0.42971  0.00000  0.14059
      12     H     0.43312  0.43312  0.00000  0.13377
      13     C     3.08059  3.08059  0.00000 -0.16119
      14     H     0.42982  0.42982  0.00000  0.14035
      15     H     0.43145  0.43145  0.00000  0.13709
      16     H     0.41005  0.41005  0.00000  0.17991

   Total alpha = 25.00000, Total beta = 25.00000, Total charge = -0.00000
