  ==> Input File <==

--------------------------------------------------------------------------
set {
	reference rhf
	basis cc-pvtz
}

set_num_threads( 4 )
memory 2 gb

molecule MOL {
0 1

O	 -1.289428	 0.306986	 -1.035920
C	 -1.081510	 0.147522	 0.122720
C	 0.327029	 -0.064006	 0.641890
C	 -2.203181	 0.127988	 1.133532
C	 1.349460	 -0.017068	 -0.500215
H	 0.399029	 -1.014606	 1.159950
H	 0.538021	 0.726928	 1.350471
C	 2.779782	 -0.209014	 -0.009215
H	 1.115007	 -0.782959	 -1.233891
H	 1.259071	 0.936707	 -1.006644
H	 3.481860	 -0.160270	 -0.833072
H	 2.903471	 -1.171535	 0.475559
H	 3.052569	 0.559584	 0.705428
H	 -2.130033	 -0.747205	 1.769490
H	 -3.157616	 0.141037	 0.630163
H	 -2.120136	 0.998694	 1.776048

	symmetry c1
}
set optking {
	frozen_dihedral = ("
		4 2 3 5
	")
}

ee = optimize('scf')
oeprop('DIPOLE', 'QUADRUPOLE', 'MULLIKEN_CHARGES')
f=open( 'psi4out.xyz', 'w' )
f.write( "16  " )
f.write( str(ee) + "\n" )
f.write( MOL.save_string_xyz() )
f.close()
--------------------------------------------------------------------------

    Molecular point group: c1
  Charge       = 0
  Multiplicity = 1
  Basis Set: CC-PVTZ
  Basis Set:
  @DF-RHF Final Energy:  -270.13000439626319
    Total Energy =                       -270.1300043962631889
    Molecular point group: c1
  Basis Set: CC-PVTZ
  Basis Set:
  Basis Set: CC-PVTZ
  Basis Set:
  @DF-RHF Final Energy:  -270.13039644153196
    Total Energy =                       -270.1303964415322412
  Basis Set: CC-PVTZ
  Basis Set:
  Basis Set: CC-PVTZ
  Basis Set:
  @DF-RHF Final Energy:  -270.13100359633825
    Total Energy =                       -270.1310035963380187
  Basis Set: CC-PVTZ
  Basis Set:
  Basis Set: CC-PVTZ
  Basis Set:
  @DF-RHF Final Energy:  -270.13115812450536
    Total Energy =                       -270.1311581245053048
  Basis Set: CC-PVTZ
  Basis Set:
  @DF-RHF Final Energy:  -270.13118147980481
    Total Energy =                       -270.1311814798047521
  @DF-RHF Final Energy:  -270.13118943773259
    Total Energy =                       -270.1311894377326439
  Basis Set: CC-PVTZ
  Basis Set:
  @DF-RHF Final Energy:  -270.13120249431302
    Total Energy =                       -270.1312024943129586
  Basis Set: CC-PVTZ
  Basis Set:
  Basis Set: CC-PVTZ
  Basis Set:
  @DF-RHF Final Energy:  -270.13120858780286
    Total Energy =                       -270.1312085878026323
  Basis Set: CC-PVTZ
  Basis Set:
  Basis Set: CC-PVTZ
  Basis Set:
  @DF-RHF Final Energy:  -270.13121034931476
    Total Energy =                       -270.1312103493148697
  Basis Set: CC-PVTZ
  Basis Set:
  Charge       = 0
  Multiplicity = 1
  Basis Set: CC-PVTZ
  Basis Set:

    Orbital Energies (a.u.)
    -----------------------

    Doubly Occupied:

       1A    -20.539442     2A    -11.321058     3A    -11.230915
       4A    -11.227026     5A    -11.218019     6A    -11.212073
       7A     -1.399514     8A     -1.078616     9A     -1.016757
      10A     -0.947742    11A     -0.825182    12A     -0.733215
      13A     -0.657201    14A     -0.652080    15A     -0.628001
      16A     -0.599356    17A     -0.567598    18A     -0.560637
      19A     -0.546353    20A     -0.501535    21A     -0.495179
      22A     -0.484517    23A     -0.477355    24A     -0.403651

  @DF-RHF Final Energy:  -270.13121040057808

   => Energetics <=

    Nuclear Repulsion Energy =            237.2414238010810550
    One-Electron Energy =                -836.0992210293983362
    Two-Electron Energy =                 328.7265868277392542
    DFT Exchange-Correlation Energy =       0.0000000000000000
    Empirical Dispersion Energy =           0.0000000000000000
    PCM Polarization Energy =               0.0000000000000000
    EFP Energy =                            0.0000000000000000
    Total Energy =                       -270.1312104005780270
    Molecular point group: c1
  Basis Set: CC-PVTZ
  Basis Set:

  -Total Gradient:
     Atom            X                  Y                   Z
    ------   -----------------  -----------------  -----------------
       1       -0.000000602185    -0.000000380439     0.000000653348
       2       -0.000001945290     0.000000102332     0.000003849346
       3        0.000006087114     0.000015534495    -0.000003106993
       4       -0.000001515819     0.000001391720    -0.000006756576
       5       -0.000002585171    -0.000013287503     0.000002438073
       6        0.000000683452    -0.000003600080     0.000000542515
       7       -0.000003644603    -0.000002148383     0.000002971312
       8       -0.000001385525     0.000004308599    -0.000000940244
       9       -0.000000110101    -0.000000516760    -0.000004959143
      10        0.000002114607    -0.000000638672     0.000001967991
      11       -0.000000915583     0.000000769632    -0.000000417162
      12       -0.000000335908     0.000000588425    -0.000000770058
      13        0.000001601507    -0.000000234110     0.000001974478
      14        0.000000646682    -0.000000112910     0.000001292264
      15        0.000000139066    -0.000000554327     0.000001147579
      16        0.000001767754    -0.000001222018     0.000000113270

  **** Optimization is complete! (in 10 steps) ****
    Final optimized geometry and variables:
    Molecular point group: c1

    Geometry (in Angstrom), charge = 0, multiplicity = 1:

    O           -1.344728716273     0.229927066590    -1.101427849300
    C           -1.079442136546     0.090185993462     0.047490790595
    C            0.344938509822    -0.084452206552     0.534092272004
    C           -2.155651062929     0.077285060187     1.109403778885
    C            1.394555928270    -0.065138365597    -0.568187445406
    H            0.389483050217    -1.017670601664     1.091221088746
    H            0.540370193640     0.697060545234     1.265048084505
    C            2.808759735826    -0.244502392037    -0.026511932733
    H            1.171755762683    -0.845928793095    -1.285262388796
    H            1.322761977111     0.869356496786    -1.111350888465
    H            3.535866146741    -0.226947961451    -0.829549472161
    H            2.915697089200    -1.190656701937     0.494153578468
    H            3.068438943843     0.545816575502     0.670413025208
    H           -2.133366088622    -0.860928077263     1.652818659466
    H           -3.123802957435     0.208939003210     0.651362582648
    H           -1.980966301345     0.870198378663     1.828297971143

  Mulliken Charges: (a.u.)
   Center  Symbol    Alpha    Beta     Spin     Total
       1     O     4.17024  4.17024  0.00000 -0.34047
       2     C     2.86299  2.86299  0.00000  0.27402
       3     C     3.10566  3.10566  0.00000 -0.21131
       4     C     3.15100  3.15100  0.00000 -0.30200
       5     C     3.07936  3.07936  0.00000 -0.15872
       6     H     0.44645  0.44645  0.00000  0.10710
       7     H     0.44644  0.44644  0.00000  0.10711
       8     C     3.15020  3.15020  0.00000 -0.30041
       9     H     0.44643  0.44643  0.00000  0.10714
      10     H     0.44643  0.44643  0.00000  0.10713
      11     H     0.44567  0.44567  0.00000  0.10866
      12     H     0.45645  0.45645  0.00000  0.08711
      13     H     0.45645  0.45645  0.00000  0.08710
      14     H     0.45040  0.45040  0.00000  0.09920
      15     H     0.43544  0.43544  0.00000  0.12912
      16     H     0.45040  0.45040  0.00000  0.09920

   Total alpha = 24.00000, Total beta = 24.00000, Total charge = -0.00000
