  ==> Input File <==

--------------------------------------------------------------------------
set {
	reference rhf
	basis 6-31G*
}

set_num_threads( 4 )
memory 2 gb

molecule MOL {
0 1

H	 -1.324020	 1.127159	 -0.648870
C	 -0.790252	 0.431209	 0.000000
N	 0.538815	 0.649616	 0.000000
O	 -1.359360	 -0.415312	 0.623479
C	 1.521968	 -0.411503	 0.000000
H	 0.852804	 1.592852	 0.000000
H	 2.150599	 -0.357004	 -0.881901
H	 0.999455	 -1.354525	 0.000000
H	 2.150599	 -0.357004	 0.881901

	symmetry c1
}
set optking {
	frozen_dihedral = ("
		1 2 3 6
	")
}

ee = optimize('scf')
oeprop('DIPOLE', 'QUADRUPOLE', 'MULLIKEN_CHARGES')
f=open( 'psi4out.xyz', 'w' )
f.write( "9  " )
f.write( str(ee) + "\n" )
f.write( MOL.save_string_xyz() )
f.close()
--------------------------------------------------------------------------

    Molecular point group: c1
  Charge       = 0
  Multiplicity = 1
  Basis Set: 6-31G*
  Basis Set:
  @DF-RHF Final Energy:  -207.94410256218731
    Total Energy =                       -207.9441025621873962
    Molecular point group: c1
  Basis Set: 6-31G*
  Basis Set:
  Basis Set: 6-31G*
  Basis Set:
  @DF-RHF Final Energy:  -207.94935663592440
    Total Energy =                       -207.9493566359244028
  Basis Set: 6-31G*
  Basis Set:
  Basis Set: 6-31G*
  Basis Set:
  @DF-RHF Final Energy:  -207.95419828295280
    Total Energy =                       -207.9541982829528592
  Basis Set: 6-31G*
  Basis Set:
  Basis Set: 6-31G*
  Basis Set:
  @DF-RHF Final Energy:  -207.95643241186457
    Total Energy =                       -207.9564324118646539
  Basis Set: 6-31G*
  Basis Set:
  @DF-RHF Final Energy:  -207.95692851074614
    Total Energy =                       -207.9569285107461667
  @DF-RHF Final Energy:  -207.95722931921691
    Total Energy =                       -207.9572293192169070
  @DF-RHF Final Energy:  -207.95731622154034
    Total Energy =                       -207.9573162215403386
  @DF-RHF Final Energy:  -207.95738481130604
    Total Energy =                       -207.9573848113062127
  @DF-RHF Final Energy:  -207.95703659750524
    Total Energy =                       -207.9570365975052937
  @DF-RHF Final Energy:  -207.95743565571649
    Total Energy =                       -207.9574356557165515
  @DF-RHF Final Energy:  -207.95748609483081
    Total Energy =                       -207.9574860948308128
  @DF-RHF Final Energy:  -207.95750897531491
    Total Energy =                       -207.9575089753148802
  @DF-RHF Final Energy:  -207.95751103786171
    Total Energy =                       -207.9575110378617353
  @DF-RHF Final Energy:  -207.95750450587659
    Total Energy =                       -207.9575045058765852
  @DF-RHF Final Energy:  -207.95750545160934
    Total Energy =                       -207.9575054516093360
  @DF-RHF Final Energy:  -207.95750421494631
    Total Energy =                       -207.9575042149462547
  @DF-RHF Final Energy:  -207.95750556691473
    Total Energy =                       -207.9575055669146479
  @DF-RHF Final Energy:  -207.95750561546822
    Total Energy =                       -207.9575056154682784
  @DF-RHF Final Energy:  -207.95750582112777
    Total Energy =                       -207.9575058211277678
  @DF-RHF Final Energy:  -207.95750619213214
    Total Energy =                       -207.9575061921322003
  @DF-RHF Final Energy:  -207.95760323392244
    Total Energy =                       -207.9576032339224980
  @DF-RHF Final Energy:  -207.95443547923691
    Total Energy =                       -207.9544354792368210
  @DF-RHF Final Energy:  -207.95759506366909
    Total Energy =                       -207.9575950636691459
  @DF-RHF Final Energy:  -207.95760506368458
    Total Energy =                       -207.9576050636845821
  @DF-RHF Final Energy:  -207.95760458735074
    Total Energy =                       -207.9576045873507724
  @DF-RHF Final Energy:  -207.95042171118823
    Total Energy =                       -207.9504217111882554
  @DF-RHF Final Energy:  -207.95234470423543
    Total Energy =                       -207.9523447042354007
  @DF-RHF Final Energy:  -207.95393880002649
    Total Energy =                       -207.9539388000264353
  @DF-RHF Final Energy:  -207.95707799712750
    Total Energy =                       -207.9570779971275840
  @DF-RHF Final Energy:  -207.95747881164402
    Total Energy =                       -207.9574788116440800
  @DF-RHF Final Energy:  -207.95755364562456
    Total Energy =                       -207.9575536456246425
  @DF-RHF Final Energy:  -207.95756845934483
    Total Energy =                       -207.9575684593448841
  @DF-RHF Final Energy:  -207.95756886988593
    Total Energy =                       -207.9575688698858187
  @DF-RHF Final Energy:  -207.95756743973567
    Total Energy =                       -207.9575674397356124
  @DF-RHF Final Energy:  -207.95756464374520
    Total Energy =                       -207.9575646437451724
  @DF-RHF Final Energy:  -207.95756845401377
    Total Energy =                       -207.9575684540136535
  Basis Set: 6-31G*
  Basis Set:
  @DF-RHF Final Energy:  -207.95756788320972
    Total Energy =                       -207.9575678832096628
  Basis Set: 6-31G*
  Basis Set:
  Basis Set: 6-31G*
  Basis Set:
  @DF-RHF Final Energy:  -207.95756703939617
    Total Energy =                       -207.9575670393963094
  Basis Set: 6-31G*
  Basis Set:
  Basis Set: 6-31G*
  Basis Set:
  @DF-RHF Final Energy:  -207.95756480589398
    Total Energy =                       -207.9575648058940374
  Basis Set: 6-31G*
  Basis Set:
  Charge       = 0
  Multiplicity = 1
  Basis Set: 6-31G*
  Basis Set:

    Orbital Energies (a.u.)
    -----------------------

    Doubly Occupied:

       1A    -20.538818     2A    -15.587943     3A    -11.347323
       4A    -11.256975     5A     -1.399638     6A     -1.234503
       7A     -0.961680     8A     -0.805997     9A     -0.741454
      10A     -0.644857    11A     -0.634387    12A     -0.584124
      13A     -0.551191    14A     -0.535530    15A     -0.432565
      16A     -0.399699

  @DF-RHF Final Energy:  -207.95756422334853

   => Energetics <=

    Nuclear Repulsion Energy =            122.6866897326125496
    One-Electron Energy =                -525.9751436264300537
    Two-Electron Energy =                 195.3308896704689346
    DFT Exchange-Correlation Energy =       0.0000000000000000
    Empirical Dispersion Energy =           0.0000000000000000
    PCM Polarization Energy =               0.0000000000000000
    EFP Energy =                            0.0000000000000000
    Total Energy =                       -207.9575642233485837
    Molecular point group: c1
  Basis Set: 6-31G*
  Basis Set:

  -Total Gradient:
     Atom            X                  Y                   Z
    ------   -----------------  -----------------  -----------------
       1       -0.000269007247    -0.002081476387    -0.005507923432
       2       -0.000670143346     0.001204756308     0.006549413849
       3       -0.007154122403    -0.001117299234    -0.008884510345
       4        0.001765933498     0.000930564323     0.000930719237
       5        0.003040774019     0.003221799584    -0.001927376491
       6        0.004878175093    -0.000525735239     0.007625765238
       7       -0.000476804721    -0.000192846603     0.000812762086
       8       -0.001567378385    -0.001291134140     0.000250012752
       9        0.000452573495    -0.000148628614     0.000151137105

    Molecular point group: c1

    Geometry (in Angstrom), charge = 0, multiplicity = 1:

    H           -1.421083291989     1.261010055641    -0.357199315702
    C           -0.792949759836     0.430763541994    -0.030828017473
    N            0.497066697178     0.567206812270    -0.449538464831
    O           -1.232463458906    -0.518431104410     0.540387606880
    C            1.470338936451    -0.451923206255    -0.096941702049
    H            0.860354269922     1.497324408807    -0.400954071847
    H            2.340345913073    -0.337530539587    -0.727060848845
    H            1.030148036969    -1.424933558413    -0.267480194932
    H            1.778348866107    -0.397018150186     0.943728011285

  Mulliken Charges: (a.u.)
   Center  Symbol    Alpha    Beta     Spin     Total
       1     H     0.42267  0.42267  0.00000  0.15466
       2     C     2.75562  2.75562  0.00000  0.48875
       3     N     3.86475  3.86475  0.00000 -0.72951
       4     O     4.27079  4.27079  0.00000 -0.54159
       5     C     3.14838  3.14838  0.00000 -0.29677
       6     H     0.31446  0.31446  0.00000  0.37109
       7     H     0.41284  0.41284  0.00000  0.17432
       8     H     0.39507  0.39507  0.00000  0.20986
       9     H     0.41541  0.41541  0.00000  0.16918

   Total alpha = 16.00000, Total beta = 16.00000, Total charge = -0.00000
