  ==> Input File <==

--------------------------------------------------------------------------
set {
	reference rhf
	basis 6-31G*
}

set_num_threads( 4 )
memory 2 gb

molecule MOL {
0 1

H	 -1.044807	 -0.571929	 0.345257
C	 -0.790252	 0.431209	 0.000000
N	 0.538815	 0.649616	 0.000000
O	 -1.627647	 1.217290	 -0.331746
C	 1.521968	 -0.411503	 0.000000
H	 0.852804	 1.592852	 0.000000
H	 2.150599	 -0.357004	 -0.881901
H	 0.999455	 -1.354525	 0.000000
H	 2.150599	 -0.357004	 0.881901

	symmetry c1
}
set optking {
	frozen_dihedral = ("
		1 2 3 6
	")
}

ee = optimize('scf')
oeprop('DIPOLE', 'QUADRUPOLE', 'MULLIKEN_CHARGES')
f=open( 'psi4out.xyz', 'w' )
f.write( "9  " )
f.write( str(ee) + "\n" )
f.write( MOL.save_string_xyz() )
f.close()
--------------------------------------------------------------------------

    Molecular point group: c1
  Charge       = 0
  Multiplicity = 1
  Basis Set: 6-31G*
  Basis Set:
  @DF-RHF Final Energy:  -207.95470162970605
    Total Energy =                       -207.9547016297061361
    Molecular point group: c1
  Basis Set: 6-31G*
  Basis Set:
  Basis Set: 6-31G*
  Basis Set:
  @DF-RHF Final Energy:  -207.95416472295148
    Total Energy =                       -207.9541647229515320
  Basis Set: 6-31G*
  Basis Set:
  Basis Set: 6-31G*
  Basis Set:
  @DF-RHF Final Energy:  -207.95694185605598
    Total Energy =                       -207.9569418560560621
  Basis Set: 6-31G*
  Basis Set:
  Basis Set: 6-31G*
  Basis Set:
  @DF-RHF Final Energy:  -207.95746547499209
    Total Energy =                       -207.9574654749922047
  Basis Set: 6-31G*
  Basis Set:
  @DF-RHF Final Energy:  -207.95756831735616
    Total Energy =                       -207.9575683173562197
  @DF-RHF Final Energy:  -207.95763077625946
    Total Energy =                       -207.9576307762595206
  @DF-RHF Final Energy:  -207.95764682813552
    Total Energy =                       -207.9576468281354380
  @DF-RHF Final Energy:  -207.95768515850068
    Total Energy =                       -207.9576851585007375
  @DF-RHF Final Energy:  -207.95771620201580
    Total Energy =                       -207.9577162020158596
  @DF-RHF Final Energy:  -207.95775743946604
    Total Energy =                       -207.9577574394660928
  @DF-RHF Final Energy:  -207.95775793895075
    Total Energy =                       -207.9577579389507491
  @DF-RHF Final Energy:  -207.95775775248853
    Total Energy =                       -207.9577577524885328
  @DF-RHF Final Energy:  -207.95775786805208
    Total Energy =                       -207.9577578680521128
  @DF-RHF Final Energy:  -207.95734808490045
    Total Energy =                       -207.9573480849003886
  @DF-RHF Final Energy:  -207.95775561257113
    Total Energy =                       -207.9577556125711340
  @DF-RHF Final Energy:  -207.95775797034611
    Total Energy =                       -207.9577579703461652
  @DF-RHF Final Energy:  -207.95775806200220
    Total Energy =                       -207.9577580620021422
  @DF-RHF Final Energy:  -207.95775806304465
    Total Energy =                       -207.9577580630446505
  @DF-RHF Final Energy:  -207.95775804681273
    Total Energy =                       -207.9577580468126996
  @DF-RHF Final Energy:  -207.95775802821740
    Total Energy =                       -207.9577580282173130
  @DF-RHF Final Energy:  -207.95775772074651
    Total Energy =                       -207.9577577207464003
  @DF-RHF Final Energy:  -207.95775770559860
    Total Energy =                       -207.9577577055986524
  @DF-RHF Final Energy:  -207.95775766336556
    Total Energy =                       -207.9577576633654985
  @DF-RHF Final Energy:  -207.95775785130144
    Total Energy =                       -207.9577578513014373
  @DF-RHF Final Energy:  -207.95775795562173
    Total Energy =                       -207.9577579556217870
  @DF-RHF Final Energy:  -207.95775794415670
    Total Energy =                       -207.9577579441566968
  @DF-RHF Final Energy:  -207.95775792873394
    Total Energy =                       -207.9577579287339688
  @DF-RHF Final Energy:  -207.95775791440803
    Total Energy =                       -207.9577579144079778
  @DF-RHF Final Energy:  -207.95775790146484
    Total Energy =                       -207.9577579014648734
  @DF-RHF Final Energy:  -207.95775789154357
    Total Energy =                       -207.9577578915435652
  @DF-RHF Final Energy:  -207.95775788508990
    Total Energy =                       -207.9577578850899044
  @DF-RHF Final Energy:  -207.95775787910804
    Total Energy =                       -207.9577578791080725
  @DF-RHF Final Energy:  -207.95775787161980
    Total Energy =                       -207.9577578716198332
  @DF-RHF Final Energy:  -207.95775772958268
    Total Energy =                       -207.9577577295827098
  @DF-RHF Final Energy:  -207.95775744021927
    Total Energy =                       -207.9577574402193534
  @DF-RHF Final Energy:  -207.95775774278468
    Total Energy =                       -207.9577577427847359
  Basis Set: 6-31G*
  Basis Set:
  @DF-RHF Final Energy:  -207.95775759922580
    Total Energy =                       -207.9577575992259426
  Basis Set: 6-31G*
  Basis Set:
  Basis Set: 6-31G*
  Basis Set:
  @DF-RHF Final Energy:  -207.95775783409172
    Total Energy =                       -207.9577578340917228
  Basis Set: 6-31G*
  Basis Set:
  Basis Set: 6-31G*
  Basis Set:
  @DF-RHF Final Energy:  -207.95775785757678
    Total Energy =                       -207.9577578575768939
  Basis Set: 6-31G*
  Basis Set:
  Charge       = 0
  Multiplicity = 1
  Basis Set: 6-31G*
  Basis Set:

    Orbital Energies (a.u.)
    -----------------------

    Doubly Occupied:

       1A    -20.529243     2A    -15.589140     3A    -11.345955
       4A    -11.275340     5A     -1.392289     6A     -1.239887
       7A     -0.964111     8A     -0.845050     9A     -0.691334
      10A     -0.676259    11A     -0.634405    12A     -0.591958
      13A     -0.570394    14A     -0.543657    15A     -0.426791
      16A     -0.392093

  @DF-RHF Final Energy:  -207.95775785360843

   => Energetics <=

    Nuclear Repulsion Energy =            120.3701976094885140
    One-Electron Energy =                -521.2401015924633612
    Two-Electron Energy =                 192.9121461293663629
    DFT Exchange-Correlation Energy =       0.0000000000000000
    Empirical Dispersion Energy =           0.0000000000000000
    PCM Polarization Energy =               0.0000000000000000
    EFP Energy =                            0.0000000000000000
    Total Energy =                       -207.9577578536084843
    Molecular point group: c1
  Basis Set: 6-31G*
  Basis Set:

  -Total Gradient:
     Atom            X                  Y                   Z
    ------   -----------------  -----------------  -----------------
       1        0.000801857935     0.001307087759     0.005274376921
       2       -0.000842251836    -0.002092973303    -0.005514519737
       3       -0.000891255369     0.001501211456    -0.004685468840
       4        0.000051982057    -0.000047747247    -0.000000596458
       5       -0.000289937889    -0.000357638465    -0.000341639025
       6        0.001141225796    -0.000538137886     0.005330807083
       7        0.000007906153     0.000057129116    -0.000050050243
       8        0.000029759704     0.000105853382    -0.000013983451
       9       -0.000009286552     0.000065215187     0.000001073749

    Molecular point group: c1

    Geometry (in Angstrom), charge = 0, multiplicity = 1:

    H           -0.963100677879    -1.066827998567     0.371552850314
    C           -0.714356052889    -0.046294705599     0.074654601971
    N            0.604523739091     0.129075278682    -0.176750703144
    O           -1.538841282280     0.814431420360     0.018839905968
    C            1.597163435089    -0.895279780111     0.059670144933
    H            0.909866747651     1.078106126440    -0.140531690345
    H            2.383423174036    -0.823535422122    -0.681036143563
    H            1.137869553610    -1.870029825751    -0.040230225050
    H            2.043568224964    -0.825581578145     1.047696659435

  Mulliken Charges: (a.u.)
   Center  Symbol    Alpha    Beta     Spin     Total
       1     H     0.43062  0.43062  0.00000  0.13877
       2     C     2.74264  2.74264  0.00000  0.51472
       3     N     3.86607  3.86607  0.00000 -0.73213
       4     O     4.28010  4.28010  0.00000 -0.56019
       5     C     3.14614  3.14614  0.00000 -0.29229
       6     H     0.30604  0.30604  0.00000  0.38792
       7     H     0.40586  0.40586  0.00000  0.18828
       8     H     0.40851  0.40851  0.00000  0.18298
       9     H     0.41403  0.41403  0.00000  0.17194

   Total alpha = 16.00000, Total beta = 16.00000, Total charge = -0.00000
