  ==> Input File <==

--------------------------------------------------------------------------
set {
	reference rhf
	basis cc-pvtz
}

set_num_threads( 4 )
memory 2 gb

molecule MOL {
0 1

H	 -2.335316	 -1.522796	 -1.135297
C	 -1.606788	 -0.905421	 -0.653601
C	 -1.958955	 0.341700	 -0.045471
C	 -0.325921	 -1.279072	 -0.600710
H	 -2.980796	 0.670874	 -0.070810
C	 -1.028569	 1.094183	 0.550119
H	 0.014752	 -2.198915	 -1.033112
N	 0.640204	 -0.530428	 -0.000115
H	 -1.255473	 2.031513	 1.014756
C	 0.366961	 0.683569	 0.606003
C	 2.006991	 -1.033007	 -0.000020
O	 1.230981	 1.331359	 1.131438
H	 2.182444	 -1.636914	 -0.880881
H	 2.678769	 -0.195442	 -0.002236
H	 2.183828	 -1.633244	 0.883082

	symmetry c1
}
set optking {
	frozen_dihedral = ("
		10 8 11 13
	")
}

ee = optimize('scf')
oeprop('DIPOLE', 'QUADRUPOLE', 'MULLIKEN_CHARGES')
f=open( 'psi4out.xyz', 'w' )
f.write( "15  " )
f.write( str(ee) + "\n" )
f.write( MOL.save_string_xyz() )
f.close()
--------------------------------------------------------------------------

    Molecular point group: c1
  Charge       = 0
  Multiplicity = 1
  Basis Set: CC-PVTZ
  Basis Set:
  @DF-RHF Final Energy:  -360.72272472012622
    Total Energy =                       -360.7227247201255977
    Molecular point group: c1
  Basis Set: CC-PVTZ
  Basis Set:
  Basis Set: CC-PVTZ
  Basis Set:
  @DF-RHF Final Energy:  -360.72295181357475
    Total Energy =                       -360.7229518135746957
  Basis Set: CC-PVTZ
  Basis Set:
  Basis Set: CC-PVTZ
  Basis Set:
  @DF-RHF Final Energy:  -360.72297318692222
    Total Energy =                       -360.7229731869224452
  Basis Set: CC-PVTZ
  Basis Set:
  Basis Set: CC-PVTZ
  Basis Set:
  @DF-RHF Final Energy:  -360.72298633125888
    Total Energy =                       -360.7229863312591647
  Basis Set: CC-PVTZ
  Basis Set:
  Charge       = 0
  Multiplicity = 1
  Basis Set: CC-PVTZ
  Basis Set:

    Orbital Energies (a.u.)
    -----------------------

    Doubly Occupied:

       1A    -20.501869     2A    -15.617161     3A    -11.338592
       4A    -11.293837     5A    -11.264742     6A    -11.258143
       7A    -11.230048     8A    -11.228056     9A     -1.390892
      10A     -1.285797    11A     -1.118793    12A     -1.029039
      13A     -0.972492    14A     -0.876100    15A     -0.838776
      16A     -0.719341    17A     -0.702479    18A     -0.663714
      19A     -0.653223    20A     -0.625722    21A     -0.611885
      22A     -0.574535    23A     -0.555399    24A     -0.550521
      25A     -0.530268    26A     -0.483802    27A     -0.420576
      28A     -0.410526    29A     -0.310507

  @DF-RHF Final Energy:  -360.72299564180418

   => Energetics <=

    Nuclear Repulsion Energy =            358.6427082933974475
    One-Electron Energy =               -1200.6177310937534912
    Two-Electron Energy =                 481.2520271585519822
    DFT Exchange-Correlation Energy =       0.0000000000000000
    Empirical Dispersion Energy =           0.0000000000000000
    PCM Polarization Energy =               0.0000000000000000
    EFP Energy =                            0.0000000000000000
    Total Energy =                       -360.7229956418041183
    Molecular point group: c1
  Basis Set: CC-PVTZ
  Basis Set:

  -Total Gradient:
     Atom            X                  Y                   Z
    ------   -----------------  -----------------  -----------------
       1       -0.000011494611    -0.000000420233     0.000000803945
       2        0.000078226230    -0.000038986985     0.000009724347
       3       -0.000010163763     0.000071365054     0.000025689714
       4       -0.000121212890    -0.000003584630    -0.000072679831
       5       -0.000004891736    -0.000015335018    -0.000003842662
       6       -0.000092942477    -0.000004335080     0.000000116641
       7        0.000015263946     0.000003018905     0.000018038620
       8       -0.000045276656    -0.000202265890     0.000946175226
       9        0.000010289363    -0.000003139546    -0.000004266536
      10        0.000170120594     0.000245034612    -0.000721890545
      11       -0.000261053562    -0.000765317430     0.000202338988
      12        0.000008941100     0.000009113798     0.000028556571
      13        0.000295693762     0.000697098532    -0.000431502719
      14       -0.000010687857    -0.000001435418    -0.000001655896
      15       -0.000020811442     0.000009189335     0.000004394138

  **** Optimization is complete! (in 5 steps) ****
    Final optimized geometry and variables:
    Molecular point group: c1

    Geometry (in Angstrom), charge = 0, multiplicity = 1:

    H           -2.333721138757    -1.484134609246    -1.262682547177
    C           -1.600913728289    -0.867550350206    -0.786488344398
    C           -1.945705102203     0.384112479577    -0.184625474256
    C           -0.320095236165    -1.245324396256    -0.742010777194
    H           -2.966286645989     0.717272008219    -0.209433413301
    C           -1.010493863004     1.136907087904     0.404035222277
    H            0.013615009794    -2.167049452904    -1.174556592429
    N            0.650309433760    -0.494664092944    -0.152901597364
    H           -1.232018651060     2.077173169407     0.865501365966
    C            0.379961176374     0.713416535846     0.464715833375
    C            2.021893359563    -0.981364130034    -0.133435135083
    O            1.251013577496     1.339698468160     1.004461242646
    H            2.202594021015    -1.572343582990    -1.019328703708
    H            2.691492607465    -0.139981466324    -0.121613443411
    H            2.207813219703    -1.582362456649     0.747653226049

  Mulliken Charges: (a.u.)
   Center  Symbol    Alpha    Beta     Spin     Total
       1     H     0.41390  0.41390  0.00000  0.17220
       2     C     3.10450  3.10450  0.00000 -0.20900
       3     C     3.06103  3.06103  0.00000 -0.12206
       4     C     3.03422  3.03422  0.00000 -0.06843
       5     H     0.41841  0.41841  0.00000  0.16319
       6     C     3.11791  3.11791  0.00000 -0.23583
       7     H     0.42126  0.42126  0.00000  0.15748
       8     N     3.51071  3.51071  0.00000 -0.02142
       9     H     0.40906  0.40906  0.00000  0.18189
      10     C     2.84519  2.84519  0.00000  0.30962
      11     C     3.09921  3.09921  0.00000 -0.19842
      12     O     4.23618  4.23618  0.00000 -0.47236
      13     H     0.45485  0.45485  0.00000  0.09031
      14     H     0.42744  0.42744  0.00000  0.14511
      15     H     0.44614  0.44614  0.00000  0.10771

   Total alpha = 29.00000, Total beta = 29.00000, Total charge = -0.00000
