                              Psi4 1.0.54 Driver

  ==> Input File <==

--------------------------------------------------------------------------
set {
	reference rhf
	basis cc-pvtz
}

set_num_threads( 4 )
memory 2 gb

molecule MOL {
0 1

H	 -2.498963	 -0.741158	 -0.729149
O	 -2.346257	 -0.289210	 0.080372
C	 -1.183935	 0.486039	 -0.009831
C	 0.062853	 -0.375310	 0.027457
H	 -1.178881	 1.094526	 -0.908634
H	 -1.184406	 1.155156	 0.838676
O	 1.172093	 0.457955	 -0.054438
H	 0.052476	 -1.081302	 -0.804627
H	 0.076323	 -0.955658	 0.947560
C	 2.355665	 -0.106063	 0.406280
H	 2.622523	 -0.992229	 -0.165359
H	 3.138685	 0.629392	 0.293715
H	 2.281991	 -0.382529	 1.455404

	symmetry c1
}
set optking {
	frozen_dihedral = ("
		10 7 4 8
	")
}

ee,wfn = optimize('scf', return_wfn=True)
oeprop( wfn, 'DIPOLE', 'QUADRUPOLE', 'MULLIKEN_CHARGES')
f=open( 'psi4out.xyz', 'w' )
f.write( "13  " )
f.write( str(ee) + "\n" )
f.write( MOL.save_string_xyz() )
f.close()
--------------------------------------------------------------------------

    Molecular point group: c1
  Charge       = 0
  Multiplicity = 1
  Basis Set: CC-PVTZ
  Basis Set:
  @DF-RHF Final Energy:  -268.06152156817933
    Total Energy =                       -268.0615215681796144
    Molecular point group: c1
  Basis Set: CC-PVTZ
  Basis Set:
  Basis Set: CC-PVTZ
  Basis Set:
  @DF-RHF Final Energy:  -268.06156524402184
    Total Energy =                       -268.0615652440218355
  Basis Set: CC-PVTZ
  Basis Set:
  Basis Set: CC-PVTZ
  Basis Set:
  @DF-RHF Final Energy:  -268.06157683549770
    Total Energy =                       -268.0615768354975899
  Basis Set: CC-PVTZ
  Basis Set:
  Charge       = 0
  Multiplicity = 1
  Basis Set: CC-PVTZ
  Basis Set:

    Orbital Energies (a.u.)
    -----------------------

    Doubly Occupied:

       1A    -20.555405     2A    -20.552680     3A    -11.269209
       4A    -11.267789     5A    -11.267169     6A     -1.390957
       7A     -1.368927     8A     -1.019526     9A     -0.914435
      10A     -0.842165    11A     -0.711365    12A     -0.677595
      13A     -0.661837    14A     -0.636735    15A     -0.600911
      16A     -0.573402    17A     -0.541660    18A     -0.490942
      19A     -0.486007    20A     -0.444083    21A     -0.421005

  @DF-RHF Final Energy:  -268.06157709349316

   => Energetics <=

    Nuclear Repulsion Energy =            190.4861198781148914
    One-Electron Energy =                -743.7077901708589707
    Two-Electron Energy =                 285.1600931992510368
    DFT Exchange-Correlation Energy =       0.0000000000000000
    Empirical Dispersion Energy =           0.0000000000000000
    PCM Polarization Energy =               0.0000000000000000
    EFP Energy =                            0.0000000000000000
    Total Energy =                       -268.0615770934930424
    Molecular point group: c1
  Basis Set: CC-PVTZ
  Basis Set:

  -Total Gradient:
     Atom            X                  Y                   Z
    ------   -----------------  -----------------  -----------------
       1       -0.000013931691    -0.000003823935     0.000008309669
       2       -0.000045602755    -0.000046627871    -0.000027927800
       3        0.000020114378     0.000033846759     0.000009440361
       4        0.001292006386    -0.001466258996     0.002100791723
       5        0.000000261923    -0.000004879543     0.000013766197
       6        0.000021187741     0.000011045420    -0.000005911388
       7        0.000136298524    -0.000515953295    -0.002520247342
       8       -0.001105954325     0.001372692140    -0.001124995168
       9        0.000000815940     0.000009444402    -0.000004584761
      10       -0.000282035890     0.000602700583     0.001563277307
      11       -0.000012818626     0.000009060721     0.000001050442
      12        0.000001345817    -0.000002879959    -0.000001707022
      13       -0.000011687423     0.000001633575    -0.000011262218

  **** Optimization is complete! (in 4 steps) ****
    Final optimized geometry and variables:
    Molecular point group: c1

    Geometry (in Angstrom), charge = 0, multiplicity = 1:

    H           -2.479534129875    -0.747555542202    -0.847153393069
    O           -2.342517692624    -0.306293077713    -0.028944113977
    C           -1.176964569451     0.467534707508    -0.085602079788
    C            0.068247630856    -0.397177700840    -0.035536685778
    H           -1.151925063195     1.086919133702    -0.976610204890
    H           -1.193885160646     1.126630148688     0.770651947392
    O            1.179929155266     0.433485433275    -0.133389860997
    H            0.048983512539    -1.105564417980    -0.864729864000
    H            0.078370391294    -0.965106498342     0.890874898147
    C            2.372477058269    -0.122966155517     0.314720777319
    H            2.636388980510    -1.013779048150    -0.251224273291
    H            3.150757564873     0.614318051917     0.182314853039
    H            2.314592419848    -0.388088689079     1.367286172210

  Mulliken Charges: (a.u.)
   Center  Symbol    Alpha    Beta     Spin     Total
       1     H     0.39349  0.39349  0.00000  0.21302
       2     O     4.20270  4.20270  0.00000 -0.40539
       3     C     2.97347  2.97347  0.00000  0.05305
       4     C     2.96606  2.96606  0.00000  0.06788
       5     H     0.46669  0.46669  0.00000  0.06661
       6     H     0.45392  0.45392  0.00000  0.09217
       7     O     4.17705  4.17705  0.00000 -0.35411
       8     H     0.47752  0.47752  0.00000  0.04496
       9     H     0.47079  0.47079  0.00000  0.05842
      10     C     3.03092  3.03092  0.00000 -0.06183
      11     H     0.47112  0.47112  0.00000  0.05777
      12     H     0.44701  0.44701  0.00000  0.10598
      13     H     0.46925  0.46925  0.00000  0.06149

   Total alpha = 21.00000, Total beta = 21.00000, Total charge =  0.00000

*** Psi4 exiting successfully. Buy a developer a beer!
