  ==> Input File <==

--------------------------------------------------------------------------
set {
	reference rhf
	basis 6-31G*
}

set_num_threads( 1 )
memory 2 gb

molecule MOL {
0 1

H	 5.300261	 0.389017	 0.765574
C	 4.683586	 0.007397	 -0.042263
C	 3.212531	 -0.053148	 0.367014
H	 4.822470	 0.658433	 -0.900287
H	 5.059313	 -0.976778	 -0.308771
C	 2.314963	 -0.593989	 -0.748188
H	 2.878439	 0.939523	 0.650893
H	 3.110370	 -0.683908	 1.248716
C	 0.838583	 -0.683237	 -0.361401
H	 2.411305	 0.031884	 -1.628327
H	 2.655736	 -1.588367	 -1.027702
C	 0.141227	 0.663235	 -0.235111
H	 0.293613	 -1.244586	 -1.118807
H	 0.712340	 -1.240008	 0.564475
C	 -1.181045	 0.701995	 0.511084
O	 0.601300	 1.653900	 -0.718145
C	 -2.285934	 -0.139295	 -0.145128
H	 -1.483764	 1.740803	 0.565433
H	 -1.015216	 0.349101	 1.527278
C	 -3.651768	 0.085446	 0.506485
H	 -2.346596	 0.110469	 -1.202272
H	 -2.034737	 -1.195320	 -0.088721
C	 -4.759797	 -0.746382	 -0.137905
H	 -3.908762	 1.140117	 0.445781
H	 -3.588286	 -0.154158	 1.565709
H	 -4.868882	 -0.505166	 -1.191300
H	 -4.548009	 -1.809175	 -0.062213
H	 -5.715422	 -0.564821	 0.343442

	symmetry c1
}
set optking {
	frozen_dihedral = ("
		10 6 3 2,
		16 12 15 17
	")
}

ee = energy('scf')
oeprop('DIPOLE', 'QUADRUPOLE', 'MULLIKEN_CHARGES')
f=open( 'psi4out.xyz', 'w' )
f.write( "28  " )
f.write( str(ee) + "\n" )
f.write( MOL.save_string_xyz() )
f.close()
--------------------------------------------------------------------------

    Molecular point group: c1

    Geometry (in Angstrom), charge = 0, multiplicity = 1:

       Center              X                  Y                   Z               Mass
    ------------   -----------------  -----------------  -----------------  -----------------
           H          5.306717242783     0.299530056875     0.869429337071     1.007825032070
           C          4.690042242783    -0.082089943125     0.061592337071    12.000000000000
           C          3.218987242783    -0.142634943125     0.470869337071    12.000000000000
           H          4.828926242783     0.568946056875    -0.796431662929     1.007825032070
           H          5.065769242783    -1.066264943125    -0.204915662929     1.007825032070
           C          2.321419242783    -0.683475943125    -0.644332662929    12.000000000000
           H          2.884895242783     0.850036056875     0.754748337071     1.007825032070
           H          3.116826242783    -0.773394943125     1.352571337071     1.007825032070
           C          0.845039242783    -0.772723943125    -0.257545662929    12.000000000000
           H          2.417761242783    -0.057602943125    -1.524471662929     1.007825032070
           H          2.662192242783    -1.677853943125    -0.923846662929     1.007825032070
           C          0.147683242783     0.573748056875    -0.131255662929    12.000000000000
           H          0.300069242783    -1.334072943125    -1.014951662929     1.007825032070
           H          0.718796242783    -1.329494943125     0.668330337071     1.007825032070
           C         -1.174588757217     0.612508056875     0.614939337071    12.000000000000
           O          0.607756242783     1.564413056875    -0.614289662929    15.994914619560
           C         -2.279477757217    -0.228781943125    -0.041272662929    12.000000000000
           H         -1.477307757217     1.651316056875     0.669288337071     1.007825032070
           H         -1.008759757217     0.259614056875     1.631133337071     1.007825032070
           C         -3.645311757217    -0.004040943125     0.610340337071    12.000000000000
           H         -2.340139757217     0.020982056875    -1.098416662929     1.007825032070
           H         -2.028280757217    -1.284806943125     0.015134337071     1.007825032070
           C         -4.753340757217    -0.835868943125    -0.034049662929    12.000000000000
           H         -3.902305757217     1.050630056875     0.549636337071     1.007825032070
           H         -3.581829757217    -0.243644943125     1.669564337071     1.007825032070
           H         -4.862425757217    -0.594652943125    -1.087444662929     1.007825032070
           H         -4.541552757217    -1.898661943125     0.041642337071     1.007825032070
           H         -5.708965757217    -0.654307943125     0.447297337071     1.007825032070

  Charge       = 0
  Multiplicity = 1
  Basis Set: 6-31G*
  Basis Set:

    Orbital Energies (a.u.)
    -----------------------

    Doubly Occupied:

       1A    -20.548047     2A    -11.322139     3A    -11.232491
       4A    -11.229912     5A    -11.228765     6A    -11.226084
       7A    -11.216453     8A    -11.216289     9A    -11.212336
      10A    -11.205729    11A     -1.393171    12A     -1.095160
      13A     -1.077398    14A     -1.022605    15A     -0.990704
      16A     -0.907328    17A     -0.873151    18A     -0.809223
      19A     -0.799710    20A     -0.723054    21A     -0.669436
      22A     -0.652264    23A     -0.627657    24A     -0.619897
      25A     -0.609460    26A     -0.587842    27A     -0.577433
      28A     -0.575051    29A     -0.542478    30A     -0.532167
      31A     -0.520657    32A     -0.506077    33A     -0.500459
      34A     -0.484422    35A     -0.479082    36A     -0.475351
      37A     -0.471630    38A     -0.465070    39A     -0.455305
      40A     -0.392255

  @DF-RHF Final Energy:  -426.16911954267164

   => Energetics <=

    Nuclear Repulsion Energy =            531.1004227140059584
    One-Electron Energy =               -1630.3911677738897197
    Two-Electron Energy =                 673.1216255172109868
    DFT Exchange-Correlation Energy =       0.0000000000000000
    Empirical Dispersion Energy =           0.0000000000000000
    PCM Polarization Energy =               0.0000000000000000
    EFP Energy =                            0.0000000000000000
    Total Energy =                       -426.1691195426726608

  Mulliken Charges: (a.u.)
   Center  Symbol    Alpha    Beta     Spin     Total
       1     H     0.41935  0.41935  0.00000  0.16130
       2     C     3.24011  3.24011  0.00000 -0.48023
       3     C     3.15640  3.15640  0.00000 -0.31281
       4     H     0.41829  0.41829  0.00000  0.16341
       5     H     0.42362  0.42362  0.00000  0.15277
       6     C     3.14924  3.14924  0.00000 -0.29848
       7     H     0.41047  0.41047  0.00000  0.17906
       8     H     0.42770  0.42770  0.00000  0.14459
       9     C     3.21184  3.21184  0.00000 -0.42369
      10     H     0.40660  0.40660  0.00000  0.18679
      11     H     0.42192  0.42192  0.00000  0.15617
      12     C     2.73163  2.73163  0.00000  0.53674
      13     H     0.40277  0.40277  0.00000  0.19445
      14     H     0.41324  0.41324  0.00000  0.17352
      15     C     3.20147  3.20147  0.00000 -0.40293
      16     O     4.26688  4.26688  0.00000 -0.53376
      17     C     3.16361  3.16361  0.00000 -0.32721
      18     H     0.39988  0.39988  0.00000  0.20025
      19     H     0.41269  0.41269  0.00000  0.17462
      20     C     3.15192  3.15192  0.00000 -0.30384
      21     H     0.41423  0.41423  0.00000  0.17153
      22     H     0.41859  0.41859  0.00000  0.16283
      23     C     3.24037  3.24037  0.00000 -0.48075
      24     H     0.41817  0.41817  0.00000  0.16366
      25     H     0.42132  0.42132  0.00000  0.15737
      26     H     0.41962  0.41962  0.00000  0.16076
      27     H     0.42122  0.42122  0.00000  0.15757
      28     H     0.41685  0.41685  0.00000  0.16630

   Total alpha = 40.00000, Total beta = 40.00000, Total charge = -0.00000
