  ==> Input File <==

--------------------------------------------------------------------------
set {
	reference rhf
	basis 6-31G*
}

set_num_threads( 1 )
memory 2 gb

molecule MOL {
0 1

O	 -2.821601	 1.309235	 -0.001213
C	 -2.668563	 0.129746	 -0.000350
C	 -3.801572	 -0.864014	 -0.000442
O	 -1.481751	 -0.454642	 0.000584
H	 -4.417280	 -0.689587	 -0.874708
H	 -3.443784	 -1.883046	 -0.000565
H	 -4.417179	 -0.689832	 0.873954
C	 -0.334255	 0.388708	 0.000906
C	 0.891947	 -0.504646	 0.000751
H	 -0.365390	 1.025305	 -0.873475
H	 -0.365484	 1.024911	 0.875569
C	 2.191998	 0.301789	 0.000897
H	 0.855148	 -1.151283	 -0.871571
H	 0.855132	 -1.151660	 0.872805
C	 2.076957	 1.617886	 -0.770452
H	 2.488908	 0.513100	 1.026703
H	 2.991765	 -0.297311	 -0.431000
C	 3.375084	 2.423944	 -0.769140
H	 1.278429	 2.217961	 -0.339943
H	 1.782569	 1.408428	 -1.796382
H	 3.677923	 2.678174	 0.242626
H	 3.262132	 3.350573	 -1.323068
H	 4.185749	 1.862715	 -1.225049

	symmetry c1
}
set optking {
	frozen_dihedral = ("
		13 9 8 10,
		2 4 8 10,
		19 15 12 16,
		1 2 4 8
	")
}

ee = energy('scf')
oeprop('DIPOLE', 'QUADRUPOLE', 'MULLIKEN_CHARGES')
f=open( 'psi4out.xyz', 'w' )
f.write( "23  " )
f.write( str(ee) + "\n" )
f.write( MOL.save_string_xyz() )
f.close()
--------------------------------------------------------------------------

    Molecular point group: c1

    Geometry (in Angstrom), charge = 0, multiplicity = 1:

       Center              X                  Y                   Z               Mass
    ------------   -----------------  -----------------  -----------------  -----------------
           O         -2.517076312395     0.818280655392     0.170488087983    15.994914619560
           C         -2.364038312395    -0.361208344608     0.171351087983    12.000000000000
           C         -3.497047312395    -1.354968344608     0.171259087983    12.000000000000
           O         -1.177226312395    -0.945596344608     0.172285087983    15.994914619560
           H         -4.112755312395    -1.180541344608    -0.703006912017     1.007825032070
           H         -3.139259312395    -2.374000344608     0.171136087983     1.007825032070
           H         -4.112654312395    -1.180786344608     1.045655087983     1.007825032070
           C         -0.029730312395    -0.102246344608     0.172607087983    12.000000000000
           C          1.196471687605    -0.995600344608     0.172452087983    12.000000000000
           H         -0.060865312395     0.534350655392    -0.701773912017     1.007825032070
           H         -0.060959312395     0.533956655392     1.047270087983     1.007825032070
           C          2.496522687605    -0.189165344608     0.172598087983    12.000000000000
           H          1.159672687605    -1.642237344608    -0.699869912017     1.007825032070
           H          1.159656687605    -1.642614344608     1.044506087983     1.007825032070
           C          2.381481687605     1.126931655392    -0.598750912017    12.000000000000
           H          2.793432687605     0.022145655392     1.198404087983     1.007825032070
           H          3.296289687605    -0.788265344608    -0.259298912017     1.007825032070
           C          3.679608687605     1.932989655392    -0.597438912017    12.000000000000
           H          1.582953687605     1.727006655392    -0.168241912017     1.007825032070
           H          2.087093687605     0.917473655392    -1.624680912017     1.007825032070
           H          3.982447687605     2.187219655392     0.414327087983     1.007825032070
           H          3.566656687605     2.859618655392    -1.151366912017     1.007825032070
           H          4.490273687605     1.371760655392    -1.053347912017     1.007825032070

  Charge       = 0
  Multiplicity = 1
  Basis Set: 6-31G*
  Basis Set:

    Orbital Energies (a.u.)
    -----------------------

    Doubly Occupied:

       1A    -20.602127     2A    -20.540213     3A    -11.373756
       4A    -11.280098     5A    -11.232145     6A    -11.223560
       7A    -11.222883     8A    -11.221367     9A    -11.212498
      10A     -1.467378    11A     -1.360306    12A     -1.098124
      13A     -1.038183    14A     -1.001774    15A     -0.930919
      16A     -0.855310    17A     -0.790675    18A     -0.775940
      19A     -0.690174    20A     -0.684824    21A     -0.668538
      22A     -0.641109    23A     -0.608065    24A     -0.588467
      25A     -0.578498    26A     -0.571967    27A     -0.566260
      28A     -0.526593    29A     -0.525035    30A     -0.516454
      31A     -0.497481    32A     -0.474810    33A     -0.464518
      34A     -0.459458    35A     -0.448109    36A     -0.435773

  @DF-RHF Final Energy:  -422.97200439063926

   => Energetics <=

    Nuclear Repulsion Energy =            460.7563153569194014
    One-Electron Energy =               -1489.1096894801767121
    Two-Electron Energy =                 605.3813697326165766
    DFT Exchange-Correlation Energy =       0.0000000000000000
    Empirical Dispersion Energy =           0.0000000000000000
    PCM Polarization Energy =               0.0000000000000000
    EFP Energy =                            0.0000000000000000
    Total Energy =                       -422.9720043906406772

  Mulliken Charges: (a.u.)
   Center  Symbol    Alpha    Beta     Spin     Total
       1     O     4.28429  4.28429  0.00000 -0.56857
       2     C     2.61555  2.61555  0.00000  0.76890
       3     C     3.28780  3.28780  0.00000 -0.57560
       4     O     4.31474  4.31474  0.00000 -0.62948
       5     H     0.39761  0.39761  0.00000  0.20478
       6     H     0.39983  0.39983  0.00000  0.20034
       7     H     0.39759  0.39759  0.00000  0.20482
       8     C     3.00068  3.00068  0.00000 -0.00135
       9     C     3.16484  3.16484  0.00000 -0.32969
      10     H     0.40620  0.40620  0.00000  0.18761
      11     H     0.41084  0.41084  0.00000  0.17832
      12     C     3.15810  3.15810  0.00000 -0.31620
      13     H     0.41378  0.41378  0.00000  0.17243
      14     H     0.41193  0.41193  0.00000  0.17614
      15     C     3.16591  3.16591  0.00000 -0.33182
      16     H     0.41978  0.41978  0.00000  0.16044
      17     H     0.41715  0.41715  0.00000  0.16570
      18     C     3.23784  3.23784  0.00000 -0.47568
      19     H     0.41571  0.41571  0.00000  0.16858
      20     H     0.42032  0.42032  0.00000  0.15936
      21     H     0.42082  0.42082  0.00000  0.15836
      22     H     0.41734  0.41734  0.00000  0.16531
      23     H     0.42135  0.42135  0.00000  0.15730

   Total alpha = 36.00000, Total beta = 36.00000, Total charge =  0.00000
