  ==> Input File <==

--------------------------------------------------------------------------
set {
	reference rhf
	basis 6-31G*
}

set_num_threads( 4 )
memory 2 gb

molecule MOL {
0 1

O	 -0.682937	 1.318834	 -0.186099
C	 -0.860635	 0.152188	 -0.042321
C	 -2.173363	 -0.477127	 0.338347
O	 0.083258	 -0.765189	 -0.202595
H	 -2.477673	 -1.180929	 -0.427595
H	 -2.923125	 0.290956	 0.455536
H	 -2.058825	 -1.029004	 1.264191
C	 1.391937	 -0.334737	 -0.569838
C	 2.451927	 -1.313980	 -0.100635
H	 1.565800	 0.652859	 -0.170381
H	 1.366202	 -0.279363	 -1.648620
H	 3.427069	 -0.999421	 -0.459633
H	 2.485538	 -1.357392	 0.980731
H	 2.250993	 -2.307500	 -0.486588

	symmetry c1
}
set optking {
	frozen_dihedral = ("
		10 8 4 2
	")
}

ee = optimize('scf')
oeprop('DIPOLE', 'QUADRUPOLE', 'MULLIKEN_CHARGES')
f=open( 'psi4out.xyz', 'w' )
f.write( "14  " )
f.write( str(ee) + "\n" )
f.write( MOL.save_string_xyz() )
f.close()
--------------------------------------------------------------------------

    Molecular point group: c1
  Charge       = 0
  Multiplicity = 1
  Basis Set: 6-31G*
  Basis Set:
  @DF-RHF Final Energy:  -305.87401292222989
    Total Energy =                       -305.8740129222300084
    Molecular point group: c1
  Basis Set: 6-31G*
  Basis Set:
  Basis Set: 6-31G*
  Basis Set:
  @DF-RHF Final Energy:  -305.87495321193808
    Total Energy =                       -305.8749532119380774
  Basis Set: 6-31G*
  Basis Set:
  Basis Set: 6-31G*
  Basis Set:
  @DF-RHF Final Energy:  -305.87503966988010
    Total Energy =                       -305.8750396698800387
  Basis Set: 6-31G*
  Basis Set:
  Basis Set: 6-31G*
  Basis Set:
  @DF-RHF Final Energy:  -305.87480270992648
    Total Energy =                       -305.8748027099264846
  Basis Set: 6-31G*
  Basis Set:
  Basis Set: 6-31G*
  Basis Set:
  @DF-RHF Final Energy:  -305.87515647804548
    Total Energy =                       -305.8751564780454828
  Basis Set: 6-31G*
  Basis Set:
  Charge       = 0
  Multiplicity = 1
  Basis Set: 6-31G*
  Basis Set:

    Orbital Energies (a.u.)
    -----------------------

    Doubly Occupied:

       1A    -20.601754     2A    -20.544095     3A    -11.375460
       4A    -11.284732     5A    -11.233121     6A    -11.223007
       7A     -1.467138     8A     -1.362872     9A     -1.057972
      10A     -1.000152    11A     -0.873015    12A     -0.779063
      13A     -0.693667    14A     -0.684285    15A     -0.664331
      16A     -0.611046    17A     -0.580781    18A     -0.563388
      19A     -0.556959    20A     -0.538057    21A     -0.512122
      22A     -0.500308    23A     -0.451642    24A     -0.438481

  @DF-RHF Final Energy:  -305.87515703561860

   => Energetics <=

    Nuclear Repulsion Energy =            245.5715023342800976
    One-Electron Energy =                -903.6984257544650063
    Two-Electron Energy =                 352.2517663845663378
    DFT Exchange-Correlation Energy =       0.0000000000000000
    Empirical Dispersion Energy =           0.0000000000000000
    PCM Polarization Energy =               0.0000000000000000
    EFP Energy =                            0.0000000000000000
    Total Energy =                       -305.8751570356185425
    Molecular point group: c1
  Basis Set: 6-31G*
  Basis Set:

  -Total Gradient:
     Atom            X                  Y                   Z
    ------   -----------------  -----------------  -----------------
       1       -0.000039206625     0.000030890220     0.000011385223
       2        0.000399219574     0.000105539912     0.001400502883
       3        0.000007398095    -0.000000297382    -0.000024372913
       4       -0.000641623637    -0.000027121313    -0.002393925483
       5        0.000002999406    -0.000002244461     0.000003424541
       6        0.000004513041     0.000004649194    -0.000001509578
       7        0.000007635639     0.000007925438     0.000004099251
       8        0.000934931364    -0.000778115563     0.002393738837
       9       -0.000034700383    -0.000011671163    -0.000006214137
      10       -0.000618827161     0.000678267227    -0.001381292717
      11       -0.000015604186    -0.000012725930     0.000004130053
      12       -0.000012093639     0.000013822258    -0.000009785418
      13       -0.000000710057     0.000007049994    -0.000002143037
      14        0.000006068569    -0.000015968429     0.000001962495

  **** Optimization is complete! (in 6 steps) ****
    Final optimized geometry and variables:
    Molecular point group: c1

    Geometry (in Angstrom), charge = 0, multiplicity = 1:

    O           -0.746325734285     1.556885472585    -0.083836932240
    C           -0.897030568656     0.389508709031     0.079586276077
    C           -2.186692851005    -0.259755926806     0.503839369308
    O            0.058788002935    -0.513191322626    -0.093849226858
    H           -2.500452216280    -0.974631513067    -0.248031171080
    H           -2.946444463278     0.495993437926     0.635917116566
    H           -2.036343012712    -0.802263138513     1.430020744826
    C            1.362168192339    -0.068774643296    -0.460587596192
    C            2.361424867491    -1.085162477535     0.050534126271
    H            1.532130670601     0.915694029399    -0.053900085429
    H            1.398475318914     0.008645099069    -1.540449177738
    H            3.365739719736    -0.794262523606    -0.240294822326
    H            2.322825765855    -1.151035612343     1.132055046866
    H            2.156972762144    -2.067535868589    -0.359622154901

  Mulliken Charges: (a.u.)
   Center  Symbol    Alpha    Beta     Spin     Total
       1     O     4.28290  4.28290  0.00000 -0.56579
       2     C     2.62025  2.62025  0.00000  0.75950
       3     C     3.28189  3.28189  0.00000 -0.56378
       4     O     4.30716  4.30716  0.00000 -0.61432
       5     H     0.40033  0.40033  0.00000  0.19933
       6     H     0.39703  0.39703  0.00000  0.20594
       7     H     0.40082  0.40082  0.00000  0.19836
       8     C     3.00640  3.00640  0.00000 -0.01279
       9     C     3.24765  3.24765  0.00000 -0.49531
      10     H     0.40016  0.40016  0.00000  0.19968
      11     H     0.41465  0.41465  0.00000  0.17070
      12     H     0.41649  0.41649  0.00000  0.16702
      13     H     0.41282  0.41282  0.00000  0.17435
      14     H     0.41144  0.41144  0.00000  0.17713

   Total alpha = 24.00000, Total beta = 24.00000, Total charge = -0.00000
