  ==> Input File <==

--------------------------------------------------------------------------
set {
	reference rhf
	basis 6-31G*
}

set_num_threads( 4 )
memory 2 gb

molecule MOL {
0 1

H	 -0.367348	 2.047014	 -0.308205
C	 0.352277	 1.337084	 0.083769
N	 -0.000016	 0.000074	 -0.335546
H	 1.328359	 1.600444	 -0.307950
H	 0.381933	 1.450534	 1.172486
C	 0.934531	 -0.525766	 -1.304247
C	 -0.170848	 -0.891259	 0.788954
H	 0.599926	 -1.498068	 -1.647787
H	 0.983201	 0.133303	 -2.163737
H	 1.947850	 -0.637498	 -0.904767
H	 -0.929079	 -0.499170	 1.457330
H	 -0.502941	 -1.862913	 0.441044
H	 0.748710	 -1.033714	 1.366056

	symmetry c1
}
set optking {
	frozen_dihedral = ("
		6 3 2 1
	")
}

ee = optimize('scf')
oeprop('DIPOLE', 'QUADRUPOLE', 'MULLIKEN_CHARGES')
f=open( 'psi4out.xyz', 'w' )
f.write( "13  " )
f.write( str(ee) + "\n" )
f.write( MOL.save_string_xyz() )
f.close()
--------------------------------------------------------------------------

    Molecular point group: c1
  Charge       = 0
  Multiplicity = 1
  Basis Set: 6-31G*
  Basis Set:
  @DF-RHF Final Energy:  -173.26164761265730
    Total Energy =                       -173.2616476126572707
    Molecular point group: c1
  Basis Set: 6-31G*
  Basis Set:
  Basis Set: 6-31G*
  Basis Set:
  @DF-RHF Final Energy:  -173.26236267664643
    Total Energy =                       -173.2623626766463758
  Basis Set: 6-31G*
  Basis Set:
  Basis Set: 6-31G*
  Basis Set:
  @DF-RHF Final Energy:  -173.26251600167731
    Total Energy =                       -173.2625160016773407
  Basis Set: 6-31G*
  Basis Set:
  Charge       = 0
  Multiplicity = 1
  Basis Set: 6-31G*
  Basis Set:

    Orbital Energies (a.u.)
    -----------------------

    Doubly Occupied:

       1A    -15.539887     2A    -11.235315     3A    -11.235297
       4A    -11.235215     5A     -1.219068     6A     -0.951120
       7A     -0.950297     8A     -0.806593     9A     -0.637007
      10A     -0.628050    11A     -0.626408    12A     -0.550499
      13A     -0.547088    14A     -0.513998    15A     -0.500348
      16A     -0.498781    17A     -0.339874

  @DF-RHF Final Energy:  -173.26251856917571

   => Energetics <=

    Nuclear Repulsion Energy =            138.7832623256688294
    One-Electron Energy =                -508.0618665741774294
    Two-Electron Energy =                 196.0160856793330026
    DFT Exchange-Correlation Energy =       0.0000000000000000
    Empirical Dispersion Energy =           0.0000000000000000
    PCM Polarization Energy =               0.0000000000000000
    EFP Energy =                            0.0000000000000000
    Total Energy =                       -173.2625185691755973
    Molecular point group: c1
  Basis Set: 6-31G*
  Basis Set:

  -Total Gradient:
     Atom            X                  Y                   Z
    ------   -----------------  -----------------  -----------------
       1       -0.000927388970    -0.000196866964     0.001428108115
       2        0.001487787472     0.000136695762    -0.001382858844
       3       -0.001329781504     0.000738140935    -0.000959729716
       4        0.000025055650     0.000004465839     0.000009034180
       5       -0.000000690930     0.000065882413    -0.000033644939
       6        0.000799491469    -0.000606003376     0.000972549078
       7        0.000044348445    -0.000212988661    -0.000004993255
       8       -0.000003206560    -0.000020070123    -0.000014965680
       9       -0.000045946311     0.000029949124     0.000058962209
      10       -0.000043215870     0.000029668685     0.000010580416
      11        0.000029609284     0.000033663209    -0.000077511403
      12       -0.000016240719    -0.000050242497     0.000026972310
      13       -0.000019821457     0.000047705652    -0.000032502472

  **** Optimization is complete! (in 4 steps) ****
    Final optimized geometry and variables:
    Molecular point group: c1

    Geometry (in Angstrom), charge = 0, multiplicity = 1:

    H           -0.686165745035     2.087477962879    -0.120487429602
    C            0.048649020591     1.382118581347     0.256415080509
    N           -0.281395399976     0.019948500680    -0.143205803457
    H            1.028209987422     1.685132143029    -0.103937114603
    H            0.064222300678     1.479535987034     1.337153559180
    C            0.631978118241    -0.518677775736    -1.124416124658
    C           -0.470464099550    -0.877695603259     0.973732327667
    H            0.276867705407    -1.484385772209    -1.466476662070
    H            0.678599886019     0.139060353176    -1.985011427493
    H            1.649214504529    -0.647515841372    -0.740688341317
    H           -1.234120304841    -0.486960962772     1.636151059888
    H           -0.809341847569    -1.842667086968     0.613508768170
    H            0.439944460188    -1.037118805062     1.560614902184

  Mulliken Charges: (a.u.)
   Center  Symbol    Alpha    Beta     Spin     Total
       1     H     0.41575  0.41575  0.00000  0.16850
       2     C     3.14423  3.14423  0.00000 -0.28846
       3     N     3.77048  3.77048  0.00000 -0.54096
       4     H     0.42412  0.42412  0.00000  0.15177
       5     H     0.42187  0.42187  0.00000  0.15625
       6     C     3.14193  3.14193  0.00000 -0.28386
       7     C     3.14158  3.14158  0.00000 -0.28317
       8     H     0.41792  0.41792  0.00000  0.16416
       9     H     0.41639  0.41639  0.00000  0.16722
      10     H     0.43557  0.43557  0.00000  0.12886
      11     H     0.41643  0.41643  0.00000  0.16714
      12     H     0.41804  0.41804  0.00000  0.16392
      13     H     0.43568  0.43568  0.00000  0.12864

   Total alpha = 17.00000, Total beta = 17.00000, Total charge = -0.00000
