  ==> Input File <==

--------------------------------------------------------------------------
set {
	reference rhf
	basis 6-31G*
}

set_num_threads( 4 )
memory 2 gb

molecule MOL {
0 1

O	 1.547534	 1.816745	 0.478601
C	 0.816459	 1.661495	 1.403017
C	 -0.489220	 0.905080	 1.372918
O	 1.064699	 2.143811	 2.614167
C	 -0.823008	 0.326187	 0.001381
H	 -0.429395	 0.124065	 2.126012
H	 -1.265953	 1.584512	 1.713178
C	 -2.149452	 -0.435131	 -0.000098
H	 -0.019528	 -0.331874	 -0.314155
H	 -0.858073	 1.130080	 -0.727204
C	 -3.368779	 0.488503	 -0.000883
H	 -2.193746	 -1.087250	 -0.871175
H	 -2.195311	 -1.087803	 0.870418
C	 -4.693822	 -0.272754	 -0.001129
H	 -3.325798	 1.139422	 -0.871284
H	 -3.326423	 1.139959	 0.869145
H	 -4.781274	 -0.907928	 -0.878124
H	 -5.538651	 0.408946	 -0.001420
H	 -4.781694	 -0.907783	 0.875984
C	 2.265202	 2.875938	 2.780714
H	 3.121922	 2.257594	 2.554420
H	 2.285240	 3.178310	 3.816110
H	 2.273614	 3.743688	 2.136940

	symmetry c1
}
set optking {
	frozen_dihedral = ("
		9 5 8 12
	")
}

ee = optimize('scf')
oeprop('DIPOLE', 'QUADRUPOLE', 'MULLIKEN_CHARGES')
f=open( 'psi4out.xyz', 'w' )
f.write( "23  " )
f.write( str(ee) + "\n" )
f.write( MOL.save_string_xyz() )
f.close()
--------------------------------------------------------------------------

    Molecular point group: c1
  Charge       = 0
  Multiplicity = 1
  Basis Set: 6-31G*
  Basis Set:
  @DF-RHF Final Energy:  -422.97409741198283
    Total Energy =                       -422.9740974119824841
    Molecular point group: c1
  Basis Set: 6-31G*
  Basis Set:
  Basis Set: 6-31G*
  Basis Set:
  @DF-RHF Final Energy:  -422.97432771943102
    Total Energy =                       -422.9743277194307893
  Basis Set: 6-31G*
  Basis Set:
  Basis Set: 6-31G*
  Basis Set:
  @DF-RHF Final Energy:  -422.97409639267568
    Total Energy =                       -422.9740963926760742
  Basis Set: 6-31G*
  Basis Set:
  Basis Set: 6-31G*
  Basis Set:
  @DF-RHF Final Energy:  -422.97439150408559
    Total Energy =                       -422.9743915040860429
  Basis Set: 6-31G*
  Basis Set:
  Basis Set: 6-31G*
  Basis Set:
  @DF-RHF Final Energy:  -422.97439523595290
    Total Energy =                       -422.9743952359531249
  Basis Set: 6-31G*
  Basis Set:
  Charge       = 0
  Multiplicity = 1
  Basis Set: 6-31G*
  Basis Set:

    Orbital Energies (a.u.)
    -----------------------

    Doubly Occupied:

       1A    -20.603602     2A    -20.545431     3A    -11.372258
       4A    -11.280833     5A    -11.235292     6A    -11.219300
       7A    -11.218542     8A    -11.217744     9A    -11.210860
      10A     -1.469299    11A     -1.362752    12A     -1.093298
      13A     -1.042466    14A     -0.987079    15A     -0.932881
      16A     -0.849190    17A     -0.793037    18A     -0.765179
      19A     -0.701332    20A     -0.682325    21A     -0.672413
      22A     -0.633287    23A     -0.624686    24A     -0.599199
      25A     -0.575986    26A     -0.557264    27A     -0.556055
      28A     -0.528131    29A     -0.520659    30A     -0.505742
      31A     -0.492250    32A     -0.468499    33A     -0.465085
      34A     -0.458233    35A     -0.452592    36A     -0.437175

  @DF-RHF Final Energy:  -422.97439569516575

   => Energetics <=

    Nuclear Repulsion Energy =            456.7361368517911160
    One-Electron Energy =               -1481.1611579659765994
    Two-Electron Energy =                 601.4506254190191612
    DFT Exchange-Correlation Energy =       0.0000000000000000
    Empirical Dispersion Energy =           0.0000000000000000
    PCM Polarization Energy =               0.0000000000000000
    EFP Energy =                            0.0000000000000000
    Total Energy =                       -422.9743956951663222
    Molecular point group: c1
  Basis Set: 6-31G*
  Basis Set:

  -Total Gradient:
     Atom            X                  Y                   Z
    ------   -----------------  -----------------  -----------------
       1        0.000005131734     0.000002357485     0.000000209969
       2       -0.000010808991     0.000026380986    -0.000012564892
       3        0.000001718429    -0.000030431842    -0.000008186782
       4        0.000009485737    -0.000013865235    -0.000002245219
       5        0.000449077034    -0.000885251456     0.002273142928
       6       -0.000019517828    -0.000002554440    -0.000002007105
       7       -0.000009884140     0.000013297786    -0.000007029115
       8       -0.000934345463     0.001692690185    -0.001511730904
       9       -0.000252507090     0.000460154642    -0.001633506654
      10       -0.000006524273    -0.000001635408    -0.000000748584
      11        0.000033697122    -0.000007682006    -0.000029692653
      12        0.000710977220    -0.001249611798     0.000895258934
      13        0.000008035794    -0.000006644004     0.000007697488
      14        0.000008006130    -0.000014135631     0.000024884034
      15        0.000007584539     0.000004852812    -0.000006926612
      16        0.000003212830     0.000004436796     0.000005514958
      17        0.000000231916     0.000008117907     0.000001332216
      18       -0.000005313926     0.000001511343     0.000008086891
      19        0.000000416528    -0.000007599226    -0.000004333229
      20        0.000000834556     0.000006036204     0.000002061452
      21       -0.000000906168    -0.000000059004     0.000000170132
      22        0.000001163573     0.000000095527     0.000000470573
      23        0.000000234724    -0.000000461626     0.000000142170

  **** Optimization is complete! (in 6 steps) ****
    Final optimized geometry and variables:
    Molecular point group: c1

    Geometry (in Angstrom), charge = 0, multiplicity = 1:

    O            2.184422642725     0.710127235221    -0.497953838869
    C            1.450533438946     0.584806560649     0.428729712968
    C            0.126767972179    -0.140295551422     0.410387016754
    O            1.709678277251     1.080406773923     1.632317862482
    C           -0.216543557062    -0.731543650825    -0.954458984879
    H            0.171455557225    -0.914684326070     1.171507104669
    H           -0.627832734271     0.563163798189     0.747990983594
    C           -1.549125148112    -1.490580320448    -0.974202899802
    H            0.583467775325    -1.394553918743    -1.265527185718
    H           -0.238017285810     0.063858577867    -1.693475977127
    C           -2.791949039713    -0.597112105343    -0.977731681175
    H           -1.569961023936    -2.131138105587    -1.852692492237
    H           -1.594214610600    -2.165369731832    -0.120034950015
    C           -4.093695013093    -1.396882474776    -1.020980138956
    H           -2.748941555966     0.069625954758    -1.836185537073
    H           -2.796707537519     0.039916363747    -0.096590572758
    H           -4.142092505005    -2.018116451279    -1.910778502111
    H           -4.958504431287    -0.740769299738    -1.028159465530
    H           -4.181446043422    -2.050383010843    -0.157579879468
    C            2.926969144350     1.786816320154     1.787936822470
    H            3.769069540748     1.145047578904     1.572259369238
    H            2.953761392431     2.105190629218     2.818419437887
    H            2.955877031956     2.643706911195     1.130356715411

  Mulliken Charges: (a.u.)
   Center  Symbol    Alpha    Beta     Spin     Total
       1     O     4.28591  4.28591  0.00000 -0.57182
       2     C     2.60505  2.60505  0.00000  0.78991
       3     C     3.20872  3.20872  0.00000 -0.41744
       4     O     4.30743  4.30743  0.00000 -0.61487
       5     C     3.15488  3.15488  0.00000 -0.30976
       6     H     0.40082  0.40082  0.00000  0.19837
       7     H     0.39943  0.39943  0.00000  0.20114
       8     C     3.15625  3.15625  0.00000 -0.31251
       9     H     0.40930  0.40930  0.00000  0.18141
      10     H     0.41207  0.41207  0.00000  0.17587
      11     C     3.15338  3.15338  0.00000 -0.30676
      12     H     0.41812  0.41812  0.00000  0.16377
      13     H     0.42467  0.42467  0.00000  0.15066
      14     C     3.23934  3.23934  0.00000 -0.47867
      15     H     0.42100  0.42100  0.00000  0.15800
      16     H     0.42349  0.42349  0.00000  0.15301
      17     H     0.42086  0.42086  0.00000  0.15828
      18     H     0.41866  0.41866  0.00000  0.16269
      19     H     0.42160  0.42160  0.00000  0.15680
      20     C     3.09244  3.09244  0.00000 -0.18488
      21     H     0.40907  0.40907  0.00000  0.18186
      22     H     0.40847  0.40847  0.00000  0.18307
      23     H     0.40907  0.40907  0.00000  0.18187

   Total alpha = 36.00000, Total beta = 36.00000, Total charge =  0.00000
