  ==> Input File <==

--------------------------------------------------------------------------
set {
	reference rhf
	basis cc-pvtz
}

set_num_threads( 4 )
memory 2 gb

molecule MOL {
0 1

H	 -2.375368	 1.165416	 -1.558761
N	 -1.395144	 1.134885	 -1.376283
C	 -0.784983	 -0.024947	 -1.999690
H	 -1.273485	 1.094355	 -0.386559
C	 0.697469	 -0.065267	 -1.707529
H	 -1.223803	 -0.969504	 -1.680642
H	 -0.916795	 0.048554	 -3.073596
O	 0.881195	 -0.248324	 -0.336237
H	 1.160803	 -0.881997	 -2.259296
H	 1.158393	 0.866634	 -2.026965
C	 2.208068	 -0.234417	 0.074171
H	 2.725499	 -1.027054	 -0.446768
H	 2.688377	 0.712084	 -0.164856
H	 2.295137	 -0.403407	 1.144883

	symmetry c1
}
set optking {
	frozen_dihedral = ("
		5 8 11 13
	")
}

ee = optimize('scf')
oeprop('DIPOLE', 'QUADRUPOLE', 'MULLIKEN_CHARGES')
f=open( 'psi4out.xyz', 'w' )
f.write( "14  " )
f.write( str(ee) + "\n" )
f.write( MOL.save_string_xyz() )
f.close()
--------------------------------------------------------------------------

    Molecular point group: c1
  Charge       = 0
  Multiplicity = 1
  Basis Set: CC-PVTZ
  Basis Set:
  @DF-RHF Final Energy:  -248.22522461805704
    Total Energy =                       -248.2252246180570978
    Molecular point group: c1
  Basis Set: CC-PVTZ
  Basis Set:
  Basis Set: CC-PVTZ
  Basis Set:
  @DF-RHF Final Energy:  -248.22599876790463
    Total Energy =                       -248.2259987679045139
  Basis Set: CC-PVTZ
  Basis Set:
  Basis Set: CC-PVTZ
  Basis Set:
  @DF-RHF Final Energy:  -248.22619399422291
    Total Energy =                       -248.2261939942229674
  Basis Set: CC-PVTZ
  Basis Set:
  Basis Set: CC-PVTZ
  Basis Set:
  @DF-RHF Final Energy:  -248.22619500869899
    Total Energy =                       -248.2261950086988236
  Basis Set: CC-PVTZ
  Basis Set:
  Charge       = 0
  Multiplicity = 1
  Basis Set: CC-PVTZ
  Basis Set:

    Orbital Energies (a.u.)
    -----------------------

    Doubly Occupied:

       1A    -20.550805     2A    -15.523569     3A    -11.263962
       4A    -11.263665     5A    -11.239937     6A     -1.384685
       7A     -1.176058     8A     -1.000620     9A     -0.907678
      10A     -0.815814    11A     -0.685500    12A     -0.676190
      13A     -0.647431    14A     -0.612236    15A     -0.607656
      16A     -0.542214    17A     -0.530319    18A     -0.498076
      19A     -0.474564    20A     -0.420251    21A     -0.383919

  @DF-RHF Final Energy:  -248.22619527618829

   => Energetics <=

    Nuclear Repulsion Energy =            194.7038175670910221
    One-Electron Energy =                -723.4497223247025204
    Two-Electron Energy =                 280.5197094814233196
    DFT Exchange-Correlation Energy =       0.0000000000000000
    Empirical Dispersion Energy =           0.0000000000000000
    PCM Polarization Energy =               0.0000000000000000
    EFP Energy =                            0.0000000000000000
    Total Energy =                       -248.2261952761881503
    Molecular point group: c1
  Basis Set: CC-PVTZ
  Basis Set:

  -Total Gradient:
     Atom            X                  Y                   Z
    ------   -----------------  -----------------  -----------------
       1       -0.000000153252     0.000000213850     0.000002575383
       2       -0.000003455945    -0.000002609826     0.000001203873
       3        0.000004671292     0.000011671602    -0.000005422411
       4       -0.000001400259    -0.000001249698     0.000001291797
       5       -0.000004301179     0.000070743556     0.000005237636
       6        0.000006299419     0.000005178037     0.000002822647
       7       -0.000001021387    -0.000000287022    -0.000003806326
       8        0.000018067545    -0.000123426886    -0.000037597862
       9        0.000003513664    -0.000001033150     0.000003128160
      10       -0.000005539604    -0.000002909175     0.000004212592
      11       -0.000023976940     0.000079355198     0.000125083455
      12       -0.000006222779     0.000001816196    -0.000001203535
      13        0.000019190334    -0.000039149684    -0.000097857958
      14       -0.000005670903     0.000001687001     0.000000332550

  **** Optimization is complete! (in 5 steps) ****
    Final optimized geometry and variables:
    Molecular point group: c1

    Geometry (in Angstrom), charge = 0, multiplicity = 1:

    H           -2.700238651288     1.052453984403    -0.495084575303
    N           -1.719299785591     1.020870594941    -0.316755625963
    C           -1.111955399336    -0.136595870495    -0.947184511627
    H           -1.593807424559     0.976427707454     0.672301216160
    C            0.371692581674    -0.178483985332    -0.661080818799
    H           -1.549510746299    -1.082305661736    -0.629811838655
    H           -1.248175047110    -0.059272290919    -2.020295584865
    O            0.560742765115    -0.365747055411     0.708872697217
    H            0.832676307778    -0.993522287401    -1.217356070002
    H            0.831577047071     0.754323797672    -0.979219185821
    C            1.889197668135    -0.354114724239     1.114120785744
    H            2.455540984441    -1.154697701872     0.642870444265
    H            2.369387524554     0.592125291461     0.876284155673
    H            1.911538405997    -0.497210057443     2.184795372581

  Mulliken Charges: (a.u.)
   Center  Symbol    Alpha    Beta     Spin     Total
       1     H     0.43023  0.43023  0.00000  0.13955
       2     N     3.69417  3.69417  0.00000 -0.38834
       3     C     3.02193  3.02193  0.00000 -0.04387
       4     H     0.42248  0.42248  0.00000  0.15504
       5     C     2.96938  2.96938  0.00000  0.06124
       6     H     0.46454  0.46454  0.00000  0.07092
       7     H     0.45869  0.45869  0.00000  0.08263
       8     O     4.17996  4.17996  0.00000 -0.35991
       9     H     0.46975  0.46975  0.00000  0.06050
      10     H     0.46854  0.46854  0.00000  0.06292
      11     C     3.03185  3.03185  0.00000 -0.06370
      12     H     0.47105  0.47105  0.00000  0.05790
      13     H     0.46989  0.46989  0.00000  0.06022
      14     H     0.44755  0.44755  0.00000  0.10491

   Total alpha = 21.00000, Total beta = 21.00000, Total charge =  0.00000
