                              Psi4 1.0.54 Driver

  ==> Input File <==

--------------------------------------------------------------------------
set {
	reference rhf
	basis cc-pvtz
}

set_num_threads( 4 )
memory 2 gb

molecule MOL {
0 1

H	 -2.171709	 0.882708	 0.500286
C	 -2.016894	 0.001719	 -0.114152
O	 -0.775228	 0.000056	 -0.739966
H	 -2.760846	 0.003757	 -0.898169
H	 -2.174774	 -0.879864	 0.498643
C	 0.059170	 1.138364	 -0.654434
C	 1.298585	 0.746396	 -1.451363
C	 -0.605748	 2.358960	 -1.293707
C	 0.445090	 1.432182	 0.796542
H	 1.026988	 0.513006	 -2.473061
H	 1.759689	 -0.131368	 -1.016602
H	 2.024613	 1.550612	 -1.460805
H	 -0.935595	 2.124218	 -2.298578
H	 0.098165	 3.180732	 -1.349260
H	 -1.460570	 2.702167	 -0.724453
H	 0.855132	 0.544860	 1.263676
H	 1.194912	 2.213453	 0.832029
H	 -0.400912	 1.767817	 1.383225

	symmetry c1
}
set optking {
	frozen_dihedral = ("
		6 3 2 5
	")
}

ee,wfn = optimize('scf', return_wfn=True)
oeprop( wfn, 'DIPOLE', 'QUADRUPOLE', 'MULLIKEN_CHARGES')
f=open( 'psi4out.xyz', 'w' )
f.write( "18  " )
f.write( str(ee) + "\n" )
f.write( MOL.save_string_xyz() )
f.close()
--------------------------------------------------------------------------

    Molecular point group: c1
  Charge       = 0
  Multiplicity = 1
  Basis Set: CC-PVTZ
  Basis Set:
  @DF-RHF Final Energy:  -271.27348205719659
    Total Energy =                       -271.2734820571961336
    Molecular point group: c1
  Basis Set: CC-PVTZ
  Basis Set:
  Basis Set: CC-PVTZ
  Basis Set:
  @DF-RHF Final Energy:  -271.27275927602147
    Total Energy =                       -271.2727592760213611
  Basis Set: CC-PVTZ
  Basis Set:
  Basis Set: CC-PVTZ
  Basis Set:
  @DF-RHF Final Energy:  -271.27454347615856
    Total Energy =                       -271.2745434761584420
  Basis Set: CC-PVTZ
  Basis Set:
  Basis Set: CC-PVTZ
  Basis Set:
  @DF-RHF Final Energy:  -271.27437992129899
    Total Energy =                       -271.2743799212989870
  Basis Set: CC-PVTZ
  Basis Set:
  Basis Set: CC-PVTZ
  Basis Set:
  @DF-RHF Final Energy:  -271.27458824008750
    Total Energy =                       -271.2745882400877235
  Basis Set: CC-PVTZ
  Basis Set:
  Basis Set: CC-PVTZ
  Basis Set:
  @DF-RHF Final Energy:  -271.27459743165008
    Total Energy =                       -271.2745974316500224
  Basis Set: CC-PVTZ
  Basis Set:
  Charge       = 0
  Multiplicity = 1
  Basis Set: CC-PVTZ
  Basis Set:

    Orbital Energies (a.u.)
    -----------------------

    Doubly Occupied:

       1A    -20.538162     2A    -11.280730     3A    -11.258441
       4A    -11.207297     5A    -11.206809     6A    -11.201769
       7A     -1.371279     8A     -1.074163     9A     -0.946553
      10A     -0.940972    11A     -0.913499    12A     -0.753835
      13A     -0.656332    14A     -0.645838    15A     -0.640389
      16A     -0.591032    17A     -0.572146    18A     -0.552184
      19A     -0.539049    20A     -0.524730    21A     -0.515389
      22A     -0.491241    23A     -0.488394    24A     -0.439517
      25A     -0.404379

  @DF-RHF Final Energy:  -271.27459714621506

   => Energetics <=

    Nuclear Repulsion Energy =            272.5166891722906826
    One-Electron Energy =                -908.0743196837768210
    Two-Electron Energy =                 364.2830333652708532
    DFT Exchange-Correlation Energy =       0.0000000000000000
    Empirical Dispersion Energy =           0.0000000000000000
    PCM Polarization Energy =               0.0000000000000000
    EFP Energy =                            0.0000000000000000
    Total Energy =                       -271.2745971462153420
    Molecular point group: c1
  Basis Set: CC-PVTZ
  Basis Set:

  -Total Gradient:
     Atom            X                  Y                   Z
    ------   -----------------  -----------------  -----------------
       1        0.000014205531    -0.000029030470     0.000026952717
       2       -0.000376420484    -0.000553194165    -0.000983784771
       3       -0.000268252836     0.000778688524    -0.000734425326
       4       -0.000122807037    -0.000066851526     0.000046704560
       5        0.000470392236     0.000405945214     0.000920834409
       6        0.000397788293    -0.000371132481     0.000720269364
       7        0.000004946634    -0.000054593844     0.000075350205
       8       -0.000046251566    -0.000063275930     0.000013122108
       9        0.000021303267    -0.000057938804    -0.000096667270
      10       -0.000021454532    -0.000000845746     0.000057036583
      11        0.000016549747     0.000003345457    -0.000001713854
      12       -0.000024115352     0.000010070167    -0.000001027286
      13       -0.000049064649    -0.000007513700    -0.000010631278
      14        0.000045432877    -0.000008039404    -0.000017422920
      15       -0.000023991422     0.000035118100     0.000042100925
      16       -0.000019607144    -0.000020530054     0.000016248323
      17        0.000007907238    -0.000016504977    -0.000041605732
      18       -0.000026560802     0.000016283635    -0.000031340758

  **** Optimization is complete! (in 7 steps) ****
    Final optimized geometry and variables:
    Molecular point group: c1

    Geometry (in Angstrom), charge = 0, multiplicity = 1:

    H           -1.957369682973    -0.285021404977     0.953427086664
    C           -1.755553999114    -1.000088093867     0.166780541987
    O           -0.468398596295    -0.890009768186    -0.358813670688
    H           -2.495004125110    -0.858784628013    -0.614158412446
    H           -1.877741137497    -1.991455334536     0.585609898801
    C            0.350217082698     0.212593876122    -0.024283148482
    C            1.619410196542    -0.006667269991    -0.839999926023
    C           -0.310594714477     1.529858211499    -0.434535943762
    C            0.687977432397     0.208257419815     1.467711004622
    H            1.384854005282    -0.031248044742    -1.896458991383
    H            2.075966418451    -0.951502325752    -0.574009680536
    H            2.335923920097     0.786564482529    -0.662277783884
    H           -0.573026367774     1.505193751287    -1.485305500464
    H            0.367830771402     2.358973429790    -0.271749268564
    H           -1.210146866889     1.727639742136     0.135471633822
    H            1.120190615237    -0.744278646934     1.748892924635
    H            1.404820669547     0.988955848540     1.693380041905
    H           -0.184837830767     0.380563743126     2.085016101145

  Mulliken Charges: (a.u.)
   Center  Symbol    Alpha    Beta     Spin     Total
       1     H     0.46865  0.46865  0.00000  0.06270
       2     C     3.04262  3.04262  0.00000 -0.08524
       3     O     4.19366  4.19366  0.00000 -0.38731
       4     H     0.45667  0.45667  0.00000  0.08667
       5     H     0.45082  0.45082  0.00000  0.09835
       6     C     2.87900  2.87900  0.00000  0.24200
       7     C     3.14294  3.14294  0.00000 -0.28588
       8     C     3.16075  3.16075  0.00000 -0.32150
       9     C     3.16079  3.16079  0.00000 -0.32158
      10     H     0.44915  0.44915  0.00000  0.10169
      11     H     0.44885  0.44885  0.00000  0.10230
      12     H     0.45925  0.45925  0.00000  0.08150
      13     H     0.44652  0.44652  0.00000  0.10695
      14     H     0.44822  0.44822  0.00000  0.10357
      15     H     0.44856  0.44856  0.00000  0.10289
      16     H     0.44647  0.44647  0.00000  0.10706
      17     H     0.44892  0.44892  0.00000  0.10217
      18     H     0.44816  0.44816  0.00000  0.10368

   Total alpha = 25.00000, Total beta = 25.00000, Total charge = -0.00000

*** Psi4 exiting successfully. Buy a developer a beer!
