  ==> Input File <==

--------------------------------------------------------------------------
set {
	reference rhf
	basis 6-31G*
}

set_num_threads( 4 )
memory 2 gb

molecule MOL {
0 1

H	 -2.066749	 -0.753811	 1.952886
C	 -1.452267	 -0.464798	 1.123254
C	 -1.953665	 0.369424	 0.069595
C	 -0.180464	 -0.875421	 1.037675
H	 -2.971316	 0.715593	 0.109567
C	 -1.166059	 0.717727	 -0.957938
H	 0.270359	 -1.501337	 1.784262
N	 0.640212	 -0.532897	 -0.000111
H	 -1.506227	 1.339479	 -1.762963
C	 0.217855	 0.270805	 -1.050804
C	 2.010177	 -1.032049	 0.000042
O	 0.957934	 0.561761	 -1.957354
H	 2.187698	 -1.635381	 -0.882279
H	 2.677579	 -0.189247	 -0.001871
H	 2.188882	 -1.632203	 0.884288

	symmetry c1
}
set optking {
	frozen_dihedral = ("
		10 8 11 13
	")
}

ee = optimize('scf')
oeprop('DIPOLE', 'QUADRUPOLE', 'MULLIKEN_CHARGES')
f=open( 'psi4out.xyz', 'w' )
f.write( "15  " )
f.write( str(ee) + "\n" )
f.write( MOL.save_string_xyz() )
f.close()
--------------------------------------------------------------------------

    Molecular point group: c1
  Charge       = 0
  Multiplicity = 1
  Basis Set: 6-31G*
  Basis Set:
  @DF-RHF Final Energy:  -360.59587279378599
    Total Energy =                       -360.5958727937861568
    Molecular point group: c1
  Basis Set: 6-31G*
  Basis Set:
  Basis Set: 6-31G*
  Basis Set:
  @DF-RHF Final Energy:  -360.59671028512099
    Total Energy =                       -360.5967102851214463
  Basis Set: 6-31G*
  Basis Set:
  Basis Set: 6-31G*
  Basis Set:
  @DF-RHF Final Energy:  -360.59680603716004
    Total Energy =                       -360.5968060371600927
  Basis Set: 6-31G*
  Basis Set:
  Basis Set: 6-31G*
  Basis Set:
  @DF-RHF Final Energy:  -360.59678380507688
    Total Energy =                       -360.5967838050769387
  Basis Set: 6-31G*
  Basis Set:
  Charge       = 0
  Multiplicity = 1
  Basis Set: 6-31G*
  Basis Set:

    Orbital Energies (a.u.)
    -----------------------

    Doubly Occupied:

       1A    -20.508925     2A    -15.622578     3A    -11.341337
       4A    -11.298270     5A    -11.267041     6A    -11.260415
       7A    -11.232700     8A    -11.228758     9A     -1.385334
      10A     -1.281090    11A     -1.114912    12A     -1.026432
      13A     -0.970320    14A     -0.873045    15A     -0.835813
      16A     -0.716134    17A     -0.697350    18A     -0.661466
      19A     -0.648763    20A     -0.623040    21A     -0.606519
      22A     -0.573530    23A     -0.548198    24A     -0.547061
      25A     -0.528189    26A     -0.478158    27A     -0.413811
      28A     -0.405983    29A     -0.304370

  @DF-RHF Final Energy:  -360.59681173929908

   => Energetics <=

    Nuclear Repulsion Energy =            358.0481734271770051
    One-Electron Energy =               -1199.2908853578608159
    Two-Electron Energy =                 480.6459001913849534
    DFT Exchange-Correlation Energy =       0.0000000000000000
    Empirical Dispersion Energy =           0.0000000000000000
    PCM Polarization Energy =               0.0000000000000000
    EFP Energy =                            0.0000000000000000
    Total Energy =                       -360.5968117392988006
    Molecular point group: c1
  Basis Set: 6-31G*
  Basis Set:

  -Total Gradient:
     Atom            X                  Y                   Z
    ------   -----------------  -----------------  -----------------
       1       -0.000011004975     0.000006648008     0.000009928436
       2        0.000212714506    -0.000071801587     0.000011438638
       3       -0.000034121853     0.000114388585    -0.000158101401
       4       -0.000279414583    -0.000036930134     0.000148871904
       5        0.000002561588    -0.000016717248     0.000016959286
       6       -0.000188284317     0.000050805476     0.000070807650
       7        0.000039091591     0.000014543224    -0.000018107558
       8        0.000099280312     0.000139989123    -0.000266430118
       9        0.000020402266     0.000002080040    -0.000009910732
      10        0.000149320044    -0.000260372657     0.000202861360
      11       -0.000031938139    -0.000011768326     0.000002620421
      12       -0.000007144037     0.000073355194    -0.000040188765
      13        0.000001389370     0.000000010051     0.000015115651
      14       -0.000003956884     0.000007993437    -0.000004747108
      15        0.000031105108    -0.000012223189     0.000018882337

  **** Optimization is complete! (in 5 steps) ****
    Final optimized geometry and variables:
    Molecular point group: c1

    Geometry (in Angstrom), charge = 0, multiplicity = 1:

    H           -2.042121249817    -0.609335485044     2.185215259511
    C           -1.419018885553    -0.325761741885     1.360234436984
    C           -1.908331184728     0.506867488243     0.300995522226
    C           -0.147280347649    -0.744040296030     1.289726470707
    H           -2.925147334964     0.856204143253     0.333343600481
    C           -1.112274940337     0.850798650850    -0.722851833371
    H            0.290876575583    -1.368808540222     2.043453339749
    N            0.679205765844    -0.405805897870     0.257543773847
    H           -1.443602614125     1.471740020916    -1.532343216539
    C            0.267723034616     0.395156740347    -0.796825167339
    C            2.057025960730    -0.877960557579     0.212547276968
    O            1.034023819639     0.667710139451    -1.687541128382
    H            2.219306356571    -1.466972369966    -0.678577117763
    H            2.736663015260    -0.038357400617     0.193083141331
    H            2.251302315357    -1.481991738066     1.087160939715

  Mulliken Charges: (a.u.)
   Center  Symbol    Alpha    Beta     Spin     Total
       1     H     0.39312  0.39312  0.00000  0.21377
       2     C     3.16251  3.16251  0.00000 -0.32503
       3     C     3.05819  3.05819  0.00000 -0.11639
       4     C     2.92167  2.92167  0.00000  0.15666
       5     H     0.39091  0.39091  0.00000  0.21817
       6     C     3.16974  3.16974  0.00000 -0.33947
       7     H     0.38729  0.38729  0.00000  0.22541
       8     N     3.86277  3.86277  0.00000 -0.72554
       9     H     0.38648  0.38648  0.00000  0.22704
      10     C     2.59739  2.59739  0.00000  0.80522
      11     C     3.13863  3.13863  0.00000 -0.27726
      12     O     4.32155  4.32155  0.00000 -0.64311
      13     H     0.39698  0.39698  0.00000  0.20604
      14     H     0.39671  0.39671  0.00000  0.20657
      15     H     0.41605  0.41605  0.00000  0.16790

   Total alpha = 29.00000, Total beta = 29.00000, Total charge =  0.00000
