  ==> Input File <==

--------------------------------------------------------------------------
set {
	reference rhf
	basis 6-31G*
}

set_num_threads( 4 )
memory 2 gb

molecule MOL {
0 1

H	 3.729471	 -0.928294	 -0.070608
O	 2.826016	 -1.159218	 0.122261
C	 2.077727	 -0.067559	 -0.035091
C	 0.624473	 -0.343591	 0.253101
O	 2.542965	 0.974826	 -0.363729
C	 -0.265902	 0.883932	 0.072916
H	 0.324016	 -1.163849	 -0.390541
H	 0.565024	 -0.726111	 1.268924
C	 -1.728698	 0.646073	 0.462102
H	 -0.209144	 1.219470	 -0.958188
H	 0.135059	 1.692851	 0.673903
C	 -2.175871	 -0.818167	 0.430558
H	 -2.355923	 1.214511	 -0.220707
H	 -1.912573	 1.057751	 1.453499
C	 -3.666564	 -0.983292	 0.725591
H	 -1.952647	 -1.239726	 -0.547452
H	 -1.607706	 -1.399948	 1.151738
H	 -3.959138	 -2.028292	 0.699309
H	 -4.271525	 -0.451474	 -0.003122
H	 -3.916834	 -0.594442	 1.708646

	symmetry c1
}
set optking {
	frozen_dihedral = ("
		12 9 6 10
	")
}

ee = optimize('scf')
oeprop('DIPOLE', 'QUADRUPOLE', 'MULLIKEN_CHARGES')
f=open( 'psi4out.xyz', 'w' )
f.write( "20  " )
f.write( str(ee) + "\n" )
f.write( MOL.save_string_xyz() )
f.close()
--------------------------------------------------------------------------

    Molecular point group: c1
  Charge       = 0
  Multiplicity = 1
  Basis Set: 6-31G*
  Basis Set:
  @DF-RHF Final Energy:  -383.94152978516229
    Total Energy =                       -383.9415297851620608
    Molecular point group: c1
  Basis Set: 6-31G*
  Basis Set:
  Basis Set: 6-31G*
  Basis Set:
  @DF-RHF Final Energy:  -383.94205447197908
    Total Energy =                       -383.9420544719790769
  Basis Set: 6-31G*
  Basis Set:
  Basis Set: 6-31G*
  Basis Set:
  @DF-RHF Final Energy:  -383.94295100761701
    Total Energy =                       -383.9429510076166707
  Basis Set: 6-31G*
  Basis Set:
  Basis Set: 6-31G*
  Basis Set:
  @DF-RHF Final Energy:  -383.94273158613368
    Total Energy =                       -383.9427315861335046
  Basis Set: 6-31G*
  Basis Set:
  @DF-RHF Final Energy:  -383.94300738243129
    Total Energy =                       -383.9430073824308920
  Basis Set: 6-31G*
  Basis Set:
  @DF-RHF Final Energy:  -383.94301014324776
    Total Energy =                       -383.9430101432476476
  Basis Set: 6-31G*
  Basis Set:
  Basis Set: 6-31G*
  Basis Set:
  @DF-RHF Final Energy:  -383.94301388133124
    Total Energy =                       -383.9430138813312965
  Basis Set: 6-31G*
  Basis Set:
  Basis Set: 6-31G*
  Basis Set:
  @DF-RHF Final Energy:  -383.94301565535477
    Total Energy =                       -383.9430156553545430
  Basis Set: 6-31G*
  Basis Set:
  Charge       = 0
  Multiplicity = 1
  Basis Set: 6-31G*
  Basis Set:

    Orbital Energies (a.u.)
    -----------------------

    Doubly Occupied:

       1A    -20.612489     2A    -20.551694     3A    -11.381219
       4A    -11.240712     5A    -11.222580     6A    -11.221294
       7A    -11.220313     8A    -11.212633     9A     -1.474621
      10A     -1.365683    11A     -1.094126    12A     -1.040694
      13A     -0.960541    14A     -0.870213    15A     -0.821508
      16A     -0.768772    17A     -0.699652    18A     -0.689082
      19A     -0.667822    20A     -0.637117    21A     -0.595704
      22A     -0.593417    23A     -0.580503    24A     -0.551690
      25A     -0.539678    26A     -0.518904    27A     -0.497338
      28A     -0.479017    29A     -0.470954    30A     -0.461663
      31A     -0.453544    32A     -0.444136

  @DF-RHF Final Energy:  -383.94301561364779

   => Energetics <=

    Nuclear Repulsion Energy =            376.8032312035629161
    One-Electron Energy =               -1269.6138641136174101
    Two-Electron Energy =                 508.8676172964064790
    DFT Exchange-Correlation Energy =       0.0000000000000000
    Empirical Dispersion Energy =           0.0000000000000000
    PCM Polarization Energy =               0.0000000000000000
    EFP Energy =                            0.0000000000000000
    Total Energy =                       -383.9430156136479582
    Molecular point group: c1
  Basis Set: 6-31G*
  Basis Set:

  -Total Gradient:
     Atom            X                  Y                   Z
    ------   -----------------  -----------------  -----------------
       1        0.000002218657    -0.000001565347     0.000001035225
       2        0.000005351960    -0.000003501967    -0.000006872043
       3        0.000003310138     0.000017152129     0.000024703137
       4       -0.000027287414     0.000002368886    -0.000042906296
       5       -0.000001335233    -0.000005591557    -0.000001586414
       6        0.000991279790    -0.007238793500    -0.000515095578
       7        0.000001086113     0.000002821420     0.000003127648
       8       -0.000007884935     0.000001910924     0.000006298215
       9       -0.001777311900     0.002164367227    -0.005670490038
      10       -0.000363791874     0.005605382950     0.001929323230
      11        0.000002038115     0.000013310736     0.000004012340
      12        0.001173016929    -0.000539578075     0.004255600444
      13        0.000006083624    -0.000001251584     0.000008188702
      14       -0.000005515422    -0.000011796647     0.000010515085
      15       -0.000008145329    -0.000003292336    -0.000008603482
      16        0.000007056971    -0.000006269744    -0.000001091493
      17        0.000001501786     0.000007897929     0.000006565467
      18       -0.000006663103    -0.000001962341    -0.000000934138
      19       -0.000000222337     0.000000073856     0.000001203516
      20        0.000005213466    -0.000001682956    -0.000002993525

  **** Optimization is complete! (in 9 steps) ****
    Final optimized geometry and variables:
    Molecular point group: c1

    Geometry (in Angstrom), charge = 0, multiplicity = 1:

    H            3.722715700087    -0.708496627608    -0.273472339902
    O            2.832846601397    -0.968822625651    -0.056455164193
    C            2.037195207917     0.084323147450    -0.242160225485
    C            0.601529819341    -0.242895827315     0.081117621403
    O            2.453747201780     1.131467106738    -0.617515704663
    C           -0.334119720746     0.943556067960    -0.129907118046
    H            0.326163435554    -1.097571290095    -0.527542745966
    H            0.579441177159    -0.591087466936     1.109954394092
    C           -1.815931731915     0.713417742626     0.247255378965
    H           -0.259476551979     1.299181748700    -1.151897993186
    H            0.040908611858     1.772177252480     0.461673733063
    C           -2.329530927400    -0.729689518393     0.198053015748
    H           -2.435028466351     1.334295212454    -0.393785068275
    H           -1.977797475340     1.079633485878     1.258940533064
    C           -3.817175880895    -0.822030060403     0.537250316795
    H           -2.163934401417    -1.152870904014    -0.790918237741
    H           -1.769417050634    -1.346890443473     0.894383333676
    H           -4.162906982663    -1.850672625158     0.510374148451
    H           -4.416393961259    -0.252582681765    -0.167304974173
    H           -4.017121677741    -0.431547976599     1.531132241595

  Mulliken Charges: (a.u.)
   Center  Symbol    Alpha    Beta     Spin     Total
       1     H     0.26782  0.26782  0.00000  0.46436
       2     O     4.35183  4.35183  0.00000 -0.70366
       3     C     2.62165  2.62165  0.00000  0.75670
       4     C     3.21437  3.21437  0.00000 -0.42875
       5     O     4.27909  4.27909  0.00000 -0.55818
       6     C     3.15794  3.15794  0.00000 -0.31588
       7     H     0.39628  0.39628  0.00000  0.20745
       8     H     0.39834  0.39834  0.00000  0.20331
       9     C     3.15458  3.15458  0.00000 -0.30915
      10     H     0.40966  0.40966  0.00000  0.18069
      11     H     0.40865  0.40865  0.00000  0.18270
      12     C     3.15739  3.15739  0.00000 -0.31477
      13     H     0.41753  0.41753  0.00000  0.16495
      14     H     0.42147  0.42147  0.00000  0.15706
      15     C     3.23914  3.23914  0.00000 -0.47828
      16     H     0.42270  0.42270  0.00000  0.15460
      17     H     0.42166  0.42166  0.00000  0.15667
      18     H     0.41828  0.41828  0.00000  0.16343
      19     H     0.42057  0.42057  0.00000  0.15886
      20     H     0.42105  0.42105  0.00000  0.15790

   Total alpha = 32.00000, Total beta = 32.00000, Total charge =  0.00000
