                              Psi4 1.0.54 Driver

  ==> Input File <==

--------------------------------------------------------------------------
set {
	reference rhf
	basis cc-pvtz
}

set_num_threads( 4 )
memory 2 gb

molecule MOL {
0 1

O	 1.847685	 1.294399	 -0.000190
C	 1.704209	 0.119472	 -0.000093
C	 0.380337	 -0.600947	 -0.000234
O	 2.715427	 -0.733672	 0.000025
C	 -0.824290	 0.329213	 -0.000115
H	 0.371455	 -1.255476	 -0.865660
H	 0.371410	 -1.255787	 0.864952
C	 -0.656816	 1.496099	 -0.968798
H	 -0.985848	 0.704478	 1.004051
H	 -1.712833	 -0.236891	 -0.255667
C	 -1.855644	 2.440069	 -0.983042
H	 0.237353	 2.058209	 -0.708520
H	 -0.491985	 1.112870	 -1.973390
C	 -1.688114	 3.606594	 -1.950805
H	 -2.020609	 2.824185	 0.019654
H	 -2.749041	 1.880024	 -1.244484
H	 -0.821299	 4.206770	 -1.694576
H	 -2.555496	 4.256336	 -1.935999
H	 -1.555886	 3.255164	 -2.968768
C	 4.020999	 -0.192556	 0.000019
H	 4.182809	 0.412891	 -0.879449
H	 4.692590	 -1.035653	 0.000152
H	 4.182726	 0.413087	 0.879368

	symmetry c1
}
set optking {
	frozen_dihedral = ("
		9 5 3 6
	")
}

ee,wfn = optimize('scf', return_wfn=True)
oeprop( wfn, 'DIPOLE', 'QUADRUPOLE', 'MULLIKEN_CHARGES')
f=open( 'psi4out.xyz', 'w' )
f.write( "23  " )
f.write( str(ee) + "\n" )
f.write( MOL.save_string_xyz() )
f.close()
--------------------------------------------------------------------------

    Molecular point group: c1
  Charge       = 0
  Multiplicity = 1
  Basis Set: CC-PVTZ
  Basis Set:
  @DF-RHF Final Energy:  -423.11739408032366
    Total Energy =                       -423.1173940803232654
    Molecular point group: c1
  Basis Set: CC-PVTZ
  Basis Set:
  Basis Set: CC-PVTZ
  Basis Set:
  @DF-RHF Final Energy:  -423.12532433903931
    Total Energy =                       -423.1253243390397074
  Basis Set: CC-PVTZ
  Basis Set:
  Basis Set: CC-PVTZ
  Basis Set:
  @DF-RHF Final Energy:  -423.12683522747079
    Total Energy =                       -423.1268352274709059
  Basis Set: CC-PVTZ
  Basis Set:
  Basis Set: CC-PVTZ
  Basis Set:
  @DF-RHF Final Energy:  -423.12412875512621
    Total Energy =                       -423.1241287551252981
  Basis Set: CC-PVTZ
  Basis Set:
  @DF-RHF Final Energy:  -423.12759202805699
    Total Energy =                       -423.1275920280563696
  @DF-RHF Final Energy:  -423.12781514735747
    Total Energy =                       -423.1278151473575235
  @DF-RHF Final Energy:  -423.12793634668571
    Total Energy =                       -423.1279363466857149
  @DF-RHF Final Energy:  -423.12803425379570
    Total Energy =                       -423.1280342537954766
  Basis Set: CC-PVTZ
  Basis Set:
  @DF-RHF Final Energy:  -423.12813170628868
    Total Energy =                       -423.1281317062894232
  Basis Set: CC-PVTZ
  Basis Set:
  Basis Set: CC-PVTZ
  Basis Set:
  @DF-RHF Final Energy:  -423.12818715948140
    Total Energy =                       -423.1281871594810582
  Basis Set: CC-PVTZ
  Basis Set:
  Basis Set: CC-PVTZ
  Basis Set:
  @DF-RHF Final Energy:  -423.12819055539870
    Total Energy =                       -423.1281905553991010
  Basis Set: CC-PVTZ
  Basis Set:
  Charge       = 0
  Multiplicity = 1
  Basis Set: CC-PVTZ
  Basis Set:

    Orbital Energies (a.u.)
    -----------------------

    Doubly Occupied:

       1A    -20.598036     2A    -20.532800     3A    -11.365425
       4A    -11.278916     5A    -11.234008     6A    -11.220594
       7A    -11.211856     8A    -11.209492     9A    -11.204608
      10A     -1.473059    11A     -1.365704    12A     -1.091772
      13A     -1.042553    14A     -0.986921    15A     -0.932555
      16A     -0.845207    17A     -0.796013    18A     -0.768596
      19A     -0.700837    20A     -0.683506    21A     -0.674719
      22A     -0.644284    23A     -0.610808    24A     -0.601491
      25A     -0.569977    26A     -0.563425    27A     -0.552182
      28A     -0.528465    29A     -0.524188    30A     -0.504032
      31A     -0.489511    32A     -0.470580    33A     -0.464236
      34A     -0.458082    35A     -0.453347    36A     -0.436284

  @DF-RHF Final Energy:  -423.12819089917292

   => Energetics <=

    Nuclear Repulsion Energy =            464.6996490524739443
    One-Electron Energy =               -1497.4795465589922969
    Two-Electron Energy =                 609.6517066073447495
    DFT Exchange-Correlation Energy =       0.0000000000000000
    Empirical Dispersion Energy =           0.0000000000000000
    PCM Polarization Energy =               0.0000000000000000
    EFP Energy =                            0.0000000000000000
    Total Energy =                       -423.1281908991736600
    Molecular point group: c1
  Basis Set: CC-PVTZ
  Basis Set:

  -Total Gradient:
     Atom            X                  Y                   Z
    ------   -----------------  -----------------  -----------------
       1       -0.000002859051     0.000058536649     0.000011272963
       2        0.000017981172    -0.000027227130    -0.000001588511
       3        0.002469002741     0.003486402911    -0.003457746387
       4        0.000006379232    -0.000010770767    -0.000039373522
       5        0.003093128663     0.004013742219    -0.000805359142
       6       -0.002548556738    -0.003529383651     0.002963173555
       7       -0.000002381578    -0.000003828794     0.000008176112
       8       -0.000008827427    -0.000017570956     0.000018000494
       9       -0.003041517111    -0.003988470521     0.001271923693
      10        0.000001984136     0.000001370904     0.000002613381
      11        0.000004979950     0.000007542573    -0.000002219629
      12        0.000030068367     0.000012603143     0.000005054843
      13        0.000001286230    -0.000002896923     0.000004437498
      14       -0.000002647002    -0.000003526853    -0.000000458983
      15        0.000000648883    -0.000002234061     0.000000093705
      16       -0.000003544070    -0.000003305620     0.000000302975
      17        0.000002407413     0.000002429829    -0.000000000490
      18       -0.000002345088     0.000003244374    -0.000001176168
      19       -0.000000580183     0.000001101124    -0.000003794954
      20        0.000010907135    -0.000004845527     0.000034216396
      21       -0.000015214949     0.000013432298    -0.000010887999
      22       -0.000015041131    -0.000007115732    -0.000006385276
      23        0.000004740413     0.000000770513     0.000009725447

  **** Optimization is complete! (in 12 steps) ****
    Final optimized geometry and variables:
    Molecular point group: c1

    Geometry (in Angstrom), charge = 0, multiplicity = 1:

    O            1.401131094073     0.273707336167     1.057370082422
    C            1.161135723090    -0.745158962060     0.502872193759
    C           -0.190602159321    -1.409045049993     0.466918476459
    O            2.079706282907    -1.463673342751    -0.119009895299
    C           -1.392247331185    -0.467436505175     0.552443852751
    H           -0.263240570264    -2.071330478262    -0.385106262212
    H           -0.198858651705    -2.067245040477     1.332826418656
    C           -1.414639713224     0.659990399918    -0.475113519597
    H           -1.479646323974    -0.079431156225     1.560627875933
    H           -2.275495554897    -1.084553649630     0.409297510920
    C           -2.696663853912     1.486039790325    -0.415828892198
    H           -0.562990699458     1.311227184223    -0.321666840978
    H           -1.310051077819     0.235719216665    -1.472191774196
    C           -2.724926793318     2.617459755598    -1.437864019029
    H           -2.807379976558     1.900509292113     0.582300329557
    H           -3.553826449600     0.836792675893    -0.573622221807
    H           -1.899688187427     3.304166047475    -1.282920152959
    H           -3.645561379802     3.185609594189    -1.369394426946
    H           -2.648290216961     2.233116400137    -2.449724614354
    C            3.408710423488    -0.982748498144    -0.088538580696
    H            3.472491084143    -0.010566933233    -0.554099602388
    H            3.996546709050    -1.698907608092    -0.639319607859
    H            3.764742422727    -0.910697689431     0.928463487958

  Mulliken Charges: (a.u.)
   Center  Symbol    Alpha    Beta     Spin     Total
       1     O     4.20342  4.20342  0.00000 -0.40684
       2     C     2.79912  2.79912  0.00000  0.40176
       3     C     3.11083  3.11083  0.00000 -0.22167
       4     O     4.14596  4.14596  0.00000 -0.29192
       5     C     3.08700  3.08700  0.00000 -0.17399
       6     H     0.43523  0.43523  0.00000  0.12954
       7     H     0.43786  0.43786  0.00000  0.12429
       8     C     3.09533  3.09533  0.00000 -0.19066
       9     H     0.44675  0.44675  0.00000  0.10650
      10     H     0.44980  0.44980  0.00000  0.10040
      11     C     3.08572  3.08572  0.00000 -0.17145
      12     H     0.43970  0.43970  0.00000  0.12060
      13     H     0.45677  0.45677  0.00000  0.08646
      14     C     3.14995  3.14995  0.00000 -0.29990
      15     H     0.45313  0.45313  0.00000  0.09373
      16     H     0.45563  0.45563  0.00000  0.08874
      17     H     0.45346  0.45346  0.00000  0.09308
      18     H     0.44887  0.44887  0.00000  0.10226
      19     H     0.45617  0.45617  0.00000  0.08765
      20     C     3.03572  3.03572  0.00000 -0.07143
      21     H     0.45397  0.45397  0.00000  0.09206
      22     H     0.44516  0.44516  0.00000  0.10967
      23     H     0.45445  0.45445  0.00000  0.09109

   Total alpha = 36.00000, Total beta = 36.00000, Total charge = -0.00000

*** Psi4 exiting successfully. Buy a developer a beer!
