  ==> Input File <==

--------------------------------------------------------------------------
set {
	reference rhf
	basis cc-pvtz
}

set_num_threads( 4 )
memory 2 gb

molecule MOL {
0 1

H	 -1.333122	 -0.481651	 -0.668347
N	 -0.625934	 -0.663929	 -0.000707
C	 -0.816626	 -1.760737	 0.918937
C	 0.468494	 0.129045	 -0.002160
H	 -1.705219	 -1.612366	 1.520914
H	 0.039985	 -1.811073	 1.569150
H	 -0.909431	 -2.700969	 0.388476
C	 1.785715	 -0.615093	 0.000603
O	 0.413285	 1.323206	 0.000532
H	 1.866994	 -1.243310	 -0.878792
H	 2.591506	 0.100263	 0.006422
H	 1.860358	 -1.250360	 0.875522

	symmetry c1
}
set optking {
	frozen_dihedral = ("
		3 2 4 9
	")
}

ee = optimize('scf')
oeprop('DIPOLE', 'QUADRUPOLE', 'MULLIKEN_CHARGES')
f=open( 'psi4out.xyz', 'w' )
f.write( "12  " )
f.write( str(ee) + "\n" )
f.write( MOL.save_string_xyz() )
f.close()
--------------------------------------------------------------------------

    Molecular point group: c1
  Charge       = 0
  Multiplicity = 1
  Basis Set: CC-PVTZ
  Basis Set:
  @DF-RHF Final Energy:  -247.07430916046408
    Total Energy =                       -247.0743091604641677
    Molecular point group: c1
  Basis Set: CC-PVTZ
  Basis Set:
  Basis Set: CC-PVTZ
  Basis Set:
  @DF-RHF Final Energy:  -247.08141945279792
    Total Energy =                       -247.0814194527979453
  Basis Set: CC-PVTZ
  Basis Set:
  Basis Set: CC-PVTZ
  Basis Set:
  @DF-RHF Final Energy:  -247.08782473670414
    Total Energy =                       -247.0878247367041922
  Basis Set: CC-PVTZ
  Basis Set:
  Basis Set: CC-PVTZ
  Basis Set:
  @DF-RHF Final Energy:  -247.08852318698791
    Total Energy =                       -247.0885231869876861
  Basis Set: CC-PVTZ
  Basis Set:
  @DF-RHF Final Energy:  -247.09030134649109
    Total Energy =                       -247.0903013464909463
  @DF-RHF Final Energy:  -247.09112052892380
    Total Energy =                       -247.0911205289239092
  @DF-RHF Final Energy:  -247.09237837059842
    Total Energy =                       -247.0923783705981123
  Basis Set: CC-PVTZ
  Basis Set:
  @DF-RHF Final Energy:  -247.09251507649091
    Total Energy =                       -247.0925150764909404
  Basis Set: CC-PVTZ
  Basis Set:
  Basis Set: CC-PVTZ
  Basis Set:
  @DF-RHF Final Energy:  -247.09255082394648
    Total Energy =                       -247.0925508239467945
  Basis Set: CC-PVTZ
  Basis Set:
  Basis Set: CC-PVTZ
  Basis Set:
  @DF-RHF Final Energy:  -247.09255642576272
    Total Energy =                       -247.0925564257626093
  Basis Set: CC-PVTZ
  Basis Set:
  Charge       = 0
  Multiplicity = 1
  Basis Set: CC-PVTZ
  Basis Set:

    Orbital Energies (a.u.)
    -----------------------

    Doubly Occupied:

       1A    -20.522482     2A    -15.568965     3A    -11.341455
       4A    -11.266467     5A    -11.229251     6A     -1.400663
       7A     -1.228491     8A     -1.008311     9A     -0.949257
      10A     -0.774784    11A     -0.678902    12A     -0.666902
      13A     -0.637789    14A     -0.597322    15A     -0.578648
      16A     -0.565088    17A     -0.551815    18A     -0.511982
      19A     -0.429464    20A     -0.396951

  @DF-RHF Final Energy:  -247.09255742857115

   => Energetics <=

    Nuclear Repulsion Energy =            181.6804851507402816
    One-Electron Energy =                -695.7361065050606612
    Two-Electron Energy =                 266.9630639257491111
    DFT Exchange-Correlation Energy =       0.0000000000000000
    Empirical Dispersion Energy =           0.0000000000000000
    PCM Polarization Energy =               0.0000000000000000
    EFP Energy =                            0.0000000000000000
    Total Energy =                       -247.0925574285712401
    Molecular point group: c1
  Basis Set: CC-PVTZ
  Basis Set:

  -Total Gradient:
     Atom            X                  Y                   Z
    ------   -----------------  -----------------  -----------------
       1       -0.000035707983    -0.000048788596    -0.000025258474
       2        0.004944128203    -0.005611684107    -0.001314204844
       3       -0.003635979500     0.003887527604     0.002948198841
       4       -0.000094311498     0.001240700142    -0.008892531843
       5        0.000000249724    -0.000013134496     0.000071260191
       6        0.000021258565     0.000020216371    -0.000018193081
       7        0.000001507506     0.000015838333    -0.000025087007
       8        0.000028440194     0.000004952263    -0.000044405911
       9       -0.001245238997     0.000492830635     0.007311953382
      10        0.000011068951    -0.000016254021    -0.000001757576
      11        0.000020857027     0.000007652740     0.000006882273
      12       -0.000016272192     0.000020143134    -0.000016855951

  **** Optimization is complete! (in 11 steps) ****
    Final optimized geometry and variables:
    Molecular point group: c1

    Geometry (in Angstrom), charge = 0, multiplicity = 1:

    H           -1.648648779016     0.051970365705    -0.510992470646
    N           -0.809188425213    -0.451858859391    -0.321835498831
    C           -1.012516871819    -1.470789494564     0.694299375827
    C            0.226510341515     0.452380090493    -0.209264820948
    H           -1.188358600592    -1.051960744282     1.681184352055
    H           -0.160680771424    -2.133481659192     0.748330935272
    H           -1.870584377286    -2.065707115916     0.416878237222
    C            1.592492075956    -0.118772002441     0.086931229477
    O            0.046054559667     1.623703675952    -0.327028758967
    H            1.770279510823    -1.031205146615    -0.465835042396
    H            2.335494896538     0.621538308490    -0.163046409261
    H            1.672041023121    -0.342000184433     1.145060663775

  Mulliken Charges: (a.u.)
   Center  Symbol    Alpha    Beta     Spin     Total
       1     H     0.42686  0.42686  0.00000  0.14628
       2     N     3.61334  3.61334  0.00000 -0.22668
       3     C     3.08941  3.08941  0.00000 -0.17882
       4     C     2.84165  2.84165  0.00000  0.31670
       5     H     0.45725  0.45725  0.00000  0.08551
       6     H     0.45151  0.45151  0.00000  0.09698
       7     H     0.44323  0.44323  0.00000  0.11354
       8     C     3.15852  3.15852  0.00000 -0.31705
       9     O     4.19517  4.19517  0.00000 -0.39034
      10     H     0.44464  0.44464  0.00000  0.11072
      11     H     0.43023  0.43023  0.00000  0.13955
      12     H     0.44820  0.44820  0.00000  0.10361

   Total alpha = 20.00000, Total beta = 20.00000, Total charge = -0.00000
