                              Psi4 1.0.54 Driver

  ==> Input File <==

--------------------------------------------------------------------------
set {
	reference rhf
	basis cc-pvtz
}

set_num_threads( 4 )
memory 2 gb

molecule MOL {
0 1

O	 -0.235444	 -2.022106	 -2.355121
C	 -0.520810	 -0.892198	 -2.124239
C	 -0.881910	 -0.448129	 -0.720509
C	 -0.520924	 0.161448	 -3.206181
C	 0.376695	 -0.140025	 0.100361
H	 -1.432055	 -1.254877	 -0.252952
H	 -1.522647	 0.426562	 -0.755669
C	 1.630207	 -0.772146	 -0.501001
H	 0.486632	 0.935267	 0.162725
H	 0.248225	 -0.501310	 1.117842
C	 2.907848	 -0.545876	 0.309149
H	 1.772784	 -0.391628	 -1.509394
H	 1.468529	 -1.842059	 -0.599744
C	 3.373802	 0.906639	 0.372125
H	 3.699140	 -1.146831	 -0.127906
H	 2.764321	 -0.923458	 1.318191
H	 3.519798	 1.311927	 -0.623875
H	 4.316899	 0.983758	 0.900700
H	 2.661122	 1.540651	 0.885346
H	 -1.540180	 0.488465	 -3.385556
H	 -0.106172	 -0.241074	 -4.117513
H	 0.044167	 1.032126	 -2.892842

	symmetry c1
}
set optking {
	frozen_dihedral = ("
		6 3 5 8
	")
}

ee,wfn = optimize('scf', return_wfn=True)
oeprop( wfn, 'DIPOLE', 'QUADRUPOLE', 'MULLIKEN_CHARGES')
f=open( 'psi4out.xyz', 'w' )
f.write( "22  " )
f.write( str(ee) + "\n" )
f.write( MOL.save_string_xyz() )
f.close()
--------------------------------------------------------------------------

    Molecular point group: c1
  Charge       = 0
  Multiplicity = 1
  Basis Set: CC-PVTZ
  Basis Set:
  @DF-RHF Final Energy:  -348.21233286637653
    Total Energy =                       -348.2123328663763573
    Molecular point group: c1
  Basis Set: CC-PVTZ
  Basis Set:
  Basis Set: CC-PVTZ
  Basis Set:
  @DF-RHF Final Energy:  -348.17786450971232
    Total Energy =                       -348.1778645097122649
  Basis Set: CC-PVTZ
  Basis Set:
  Basis Set: CC-PVTZ
  Basis Set:
  @DF-RHF Final Energy:  -348.21412981735256
    Total Energy =                       -348.2141298173527275
  Basis Set: CC-PVTZ
  Basis Set:
  Basis Set: CC-PVTZ
  Basis Set:
  @DF-RHF Final Energy:  -348.21511225925531
    Total Energy =                       -348.2151122592557613
  Basis Set: CC-PVTZ
  Basis Set:
  @DF-RHF Final Energy:  -348.21573182095716
    Total Energy =                       -348.2157318209572168
  @DF-RHF Final Energy:  -348.21631042718167
    Total Energy =                       -348.2163104271814404
  @DF-RHF Final Energy:  -348.21643054811506
    Total Energy =                       -348.2164305481147153
  @DF-RHF Final Energy:  -348.21653064664747
    Total Energy =                       -348.2165306466472430
  @DF-RHF Final Energy:  -348.21657978734640
    Total Energy =                       -348.2165797873460633
  Basis Set: CC-PVTZ
  Basis Set:
  @DF-RHF Final Energy:  -348.21658978032787
    Total Energy =                       -348.2165897803272401
  Basis Set: CC-PVTZ
  Basis Set:
  Basis Set: CC-PVTZ
  Basis Set:
  @DF-RHF Final Energy:  -348.21660919515858
    Total Energy =                       -348.2166091951588669
  Basis Set: CC-PVTZ
  Basis Set:
  Basis Set: CC-PVTZ
  Basis Set:
  @DF-RHF Final Energy:  -348.21661068475549
    Total Energy =                       -348.2166106847554374
  Basis Set: CC-PVTZ
  Basis Set:
  Charge       = 0
  Multiplicity = 1
  Basis Set: CC-PVTZ
  Basis Set:

    Orbital Energies (a.u.)
    -----------------------

    Doubly Occupied:

       1A    -20.536716     2A    -11.319533     3A    -11.229673
       4A    -11.227886     5A    -11.226491     6A    -11.218480
       7A    -11.217814     8A    -11.211191     9A     -1.396787
      10A     -1.095237    11A     -1.044082    12A     -0.997711
      13A     -0.940743    14A     -0.862199    15A     -0.792437
      16A     -0.726079    17A     -0.658385    18A     -0.645124
      19A     -0.628719    20A     -0.624573    21A     -0.599835
      22A     -0.581269    23A     -0.567915    24A     -0.544578
      25A     -0.536704    26A     -0.522768    27A     -0.499545
      28A     -0.488643    29A     -0.471048    30A     -0.463000
      31A     -0.454444    32A     -0.399661

  @DF-RHF Final Energy:  -348.21661116172436

   => Energetics <=

    Nuclear Repulsion Energy =            383.0956294007933138
    One-Electron Energy =               -1231.1659438395620327
    Two-Electron Energy =                 499.8537032770441328
    DFT Exchange-Correlation Energy =       0.0000000000000000
    Empirical Dispersion Energy =           0.0000000000000000
    PCM Polarization Energy =               0.0000000000000000
    EFP Energy =                            0.0000000000000000
    Total Energy =                       -348.2166111617245861
    Molecular point group: c1
  Basis Set: CC-PVTZ
  Basis Set:

  -Total Gradient:
     Atom            X                  Y                   Z
    ------   -----------------  -----------------  -----------------
       1        0.000021433498    -0.000087803247    -0.000032235343
       2       -0.000057754603     0.000118985556     0.000004859496
       3        0.004753289375    -0.004598045747    -0.002999420736
       4        0.000024735871    -0.000034243221     0.000010961311
       5       -0.002396043858    -0.002713766106     0.004911360490
       6       -0.003432125074     0.004619009021     0.001309394373
       7       -0.000010032862     0.000017768426     0.000007508869
       8        0.001092588961     0.002678608536    -0.003204191998
       9       -0.000005820332    -0.000001720323     0.000000799718
      10        0.000004776502    -0.000001631913     0.000009870347
      11       -0.000000566664     0.000005479022     0.000011982580
      12       -0.000002052773     0.000005113094    -0.000018095398
      13        0.000012244898     0.000004377258     0.000006267872
      14       -0.000000267393     0.000002273368    -0.000000208278
      15        0.000003171779    -0.000004730458    -0.000001263324
      16       -0.000007310175     0.000001326063    -0.000000204960
      17        0.000000388207     0.000000104626    -0.000007290969
      18        0.000003830511    -0.000001853598    -0.000000808360
      19        0.000002300750    -0.000000414275     0.000004228395
      20       -0.000033539020    -0.000000836123    -0.000007044170
      21        0.000013652248    -0.000021787658    -0.000023778276
      22        0.000013100152     0.000013787707     0.000017308363

  **** Optimization is complete! (in 13 steps) ****
    Final optimized geometry and variables:
    Molecular point group: c1

    Geometry (in Angstrom), charge = 0, multiplicity = 1:

    O           -1.119848402185    -1.975421649740    -1.221119117035
    C           -1.169048094533    -0.788768634877    -1.214885029195
    C           -1.631654148453    -0.017459124965     0.003264227906
    C           -0.802359131353     0.019456975412    -2.438671746115
    C           -0.497157225073     0.574923631497     0.881103935846
    H           -2.267602954362    -0.658564861935     0.597312670755
    H           -2.260970360164     0.800175526820    -0.334781591458
    C            0.862404743550    -0.117431088925     0.763494244587
    H           -0.378615859718     1.622294771232     0.630866681532
    H           -0.825961865550     0.547262566752     1.913337243828
    C            1.909611244471     0.399676975632     1.751739990404
    H            1.248176951630    -0.006453470859    -0.246004307306
    H            0.734245219524    -1.182971888331     0.920690803103
    C            2.338706138981     1.848861053744     1.533964866593
    H            2.785918953072    -0.236456774420     1.679746658150
    H            1.533989827365     0.282821852244     2.764707319186
    H            2.707729421427     1.998463969703     0.524119517442
    H            3.135032169111     2.119307854304     2.217630513965
    H            1.523846637287     2.544406853349     1.695296731880
    H           -1.716205510648     0.374114398560    -2.905403162575
    H           -0.263157681995    -0.596832263639    -3.141942236257
    H           -0.215510537628     0.891509086287    -2.176395928671

  Mulliken Charges: (a.u.)
   Center  Symbol    Alpha    Beta     Spin     Total
       1     O     4.18053  4.18053  0.00000 -0.36106
       2     C     2.85168  2.85168  0.00000  0.29664
       3     C     3.10257  3.10257  0.00000 -0.20513
       4     C     3.15738  3.15738  0.00000 -0.31475
       5     C     3.11305  3.11305  0.00000 -0.22609
       6     H     0.43711  0.43711  0.00000  0.12578
       7     H     0.44654  0.44654  0.00000  0.10693
       8     C     3.10241  3.10241  0.00000 -0.20481
       9     H     0.44787  0.44787  0.00000  0.10426
      10     H     0.44271  0.44271  0.00000  0.11457
      11     C     3.09268  3.09268  0.00000 -0.18536
      12     H     0.45087  0.45087  0.00000  0.09827
      13     H     0.43468  0.43468  0.00000  0.13063
      14     C     3.15409  3.15409  0.00000 -0.30817
      15     H     0.44581  0.44581  0.00000  0.10838
      16     H     0.45353  0.45353  0.00000  0.09294
      17     H     0.45490  0.45490  0.00000  0.09021
      18     H     0.44468  0.44468  0.00000  0.11063
      19     H     0.45422  0.45422  0.00000  0.09156
      20     H     0.44532  0.44532  0.00000  0.10936
      21     H     0.43591  0.43591  0.00000  0.12819
      22     H     0.45148  0.45148  0.00000  0.09704

   Total alpha = 32.00000, Total beta = 32.00000, Total charge =  0.00000

*** Psi4 exiting successfully. Buy a developer a beer!
