  ==> Input File <==

--------------------------------------------------------------------------
set {
	reference rhf
	basis cc-pvtz
}

set_num_threads( 4 )
memory 2 gb

molecule MOL {
0 1

H	 -2.362939	 -1.309000	 -0.383250
C	 -1.359344	 -1.272457	 0.020748
C	 -0.684082	 0.000127	 -0.464918
H	 -0.825835	 -2.151141	 -0.318537
H	 -1.416276	 -1.292399	 1.099455
C	 -1.359089	 1.272668	 0.021259
N	 0.742439	 -0.000109	 0.007333
H	 -0.596914	 0.000345	 -1.538146
H	 -2.362696	 1.309620	 -0.382686
H	 -0.825392	 2.151374	 -0.317674
H	 -1.415983	 1.292181	 1.099973
O	 1.589871	 -0.000015	 -0.820618
O	 0.930711	 -0.000205	 1.178163

	symmetry c1
}
set optking {
	frozen_dihedral = ("
		12 7 3 8
	")
}

ee = optimize('scf')
oeprop('DIPOLE', 'QUADRUPOLE', 'MULLIKEN_CHARGES')
f=open( 'psi4out.xyz', 'w' )
f.write( "13  " )
f.write( str(ee) + "\n" )
f.write( MOL.save_string_xyz() )
f.close()
--------------------------------------------------------------------------

    Molecular point group: c1
  Charge       = 0
  Multiplicity = 1
  Basis Set: CC-PVTZ
  Basis Set:
  @DF-RHF Final Energy:  -321.86463060692563
    Total Energy =                       -321.8646306069255161
    Molecular point group: c1
  Basis Set: CC-PVTZ
  Basis Set:
  Basis Set: CC-PVTZ
  Basis Set:
  @DF-RHF Final Energy:  -321.86462960545191
    Total Energy =                       -321.8646296054516256
  Basis Set: CC-PVTZ
  Basis Set:
  Charge       = 0
  Multiplicity = 1
  Basis Set: CC-PVTZ
  Basis Set:

    Orbital Energies (a.u.)
    -----------------------

    Doubly Occupied:

       1A    -20.590667     2A    -20.587579     3A    -15.832555
       4A    -11.304115     5A    -11.243230     6A    -11.243216
       7A     -1.633879     8A     -1.418168     9A     -1.142658
      10A     -0.974371    11A     -0.957235    12A     -0.816687
      13A     -0.751244    14A     -0.733122    15A     -0.726615
      16A     -0.650797    17A     -0.595283    18A     -0.588838
      19A     -0.570779    20A     -0.529769    21A     -0.522951
      22A     -0.485761    23A     -0.469555    24A     -0.452314

  @DF-RHF Final Energy:  -321.86463061448171

   => Energetics <=

    Nuclear Repulsion Energy =            257.3253529978983352
    One-Electron Energy =                -948.7371954299347863
    Two-Electron Energy =                 369.5472118175547394
    DFT Exchange-Correlation Energy =       0.0000000000000000
    Empirical Dispersion Energy =           0.0000000000000000
    PCM Polarization Energy =               0.0000000000000000
    EFP Energy =                            0.0000000000000000
    Total Energy =                       -321.8646306144817117
    Molecular point group: c1
  Basis Set: CC-PVTZ
  Basis Set:

  -Total Gradient:
     Atom            X                  Y                   Z
    ------   -----------------  -----------------  -----------------
       1        0.000000679414     0.000000154366    -0.000000040848
       2       -0.000002642334     0.000001168618     0.000002792773
       3        0.000009660117    -0.000000257046    -0.000008477705
       4        0.000000431471     0.000001312705     0.000000222713
       5       -0.000000655075    -0.000001442045     0.000001266685
       6       -0.000001196900    -0.000000978626     0.000003391936
       7       -0.000016498108     0.000000549548    -0.000017588208
       8       -0.000003259809    -0.000000054683    -0.000001920170
       9        0.000002270159    -0.000001478054    -0.000000149611
      10        0.000000620511    -0.000001306853    -0.000000212012
      11       -0.000000966367     0.000001664104     0.000002503066
      12        0.000002281192     0.000000212185     0.000013032475
      13        0.000009275732     0.000000455779     0.000005178908

  **** Optimization is complete! (in 3 steps) ****
    Final optimized geometry and variables:
    Molecular point group: c1

    Geometry (in Angstrom), charge = 0, multiplicity = 1:

    H           -2.362954583745    -1.309055689699    -0.383206586566
    C           -1.359346718625    -1.272425242411     0.020758559011
    C           -0.684137876067     0.000151237841    -0.464990801258
    H           -0.825805080208    -2.151096749579    -0.318488379590
    H           -1.416271392290    -1.292333659386     1.099472817952
    C           -1.359092191622     1.272668249293     0.021263680294
    N            0.742432280135    -0.000071843684     0.007331016140
    H           -0.596946532361     0.000355511034    -1.538218219656
    H           -2.362691696675     1.309643724016    -0.382685981427
    H           -0.825382052300     2.151367462980    -0.317646988196
    H           -1.416010357578     1.292167488724     1.099987124719
    O            1.589936975013     0.000014200323    -0.820572808402
    O            0.930700532273    -0.000313119934     1.178158266441

  Mulliken Charges: (a.u.)
   Center  Symbol    Alpha    Beta     Spin     Total
       1     H     0.44909  0.44909  0.00000  0.10182
       2     C     3.14435  3.14435  0.00000 -0.28871
       3     C     3.00759  3.00759  0.00000 -0.01518
       4     H     0.44078  0.44078  0.00000  0.11844
       5     H     0.43874  0.43874  0.00000  0.12253
       6     C     3.14435  3.14435  0.00000 -0.28871
       7     N     3.27557  3.27557  0.00000  0.44886
       8     H     0.42466  0.42466  0.00000  0.15068
       9     H     0.44909  0.44909  0.00000  0.10181
      10     H     0.44078  0.44078  0.00000  0.11844
      11     H     0.43874  0.43874  0.00000  0.12253
      12     O     4.16831  4.16831  0.00000 -0.33662
      13     O     4.17795  4.17795  0.00000 -0.35590

   Total alpha = 24.00000, Total beta = 24.00000, Total charge = -0.00000
