  ==> Input File <==

--------------------------------------------------------------------------
set {
	reference rhf
	basis 6-31G*
}

set_num_threads( 4 )
memory 2 gb

molecule MOL {
0 1

O	 0.749854	 1.307668	 -0.000040
C	 0.576249	 0.131685	 -0.000108
C	 -0.766779	 -0.556801	 -0.000461
O	 1.568443	 -0.749345	 -0.000005
C	 -1.945214	 0.412366	 0.000161
H	 -0.796911	 -1.211249	 -0.867467
H	 -0.796854	 -1.212390	 0.865687
C	 -3.287791	 -0.317055	 0.000105
H	 -1.876087	 1.060580	 -0.866812
H	 -1.875822	 1.059691	 0.867761
H	 -3.394745	 -0.949193	 -0.877058
H	 -4.111778	 0.388953	 0.000015
H	 -3.394954	 -0.949187	 0.877259
C	 1.407089	 -1.898879	 0.811009
H	 1.293045	 -1.619004	 1.848412
H	 2.304635	 -2.482381	 0.677578
H	 0.541868	 -2.465841	 0.498830

	symmetry c1
}
set optking {
	frozen_dihedral = ("
		14 4 2 1
	")
}

ee = optimize('scf')
oeprop('DIPOLE', 'QUADRUPOLE', 'MULLIKEN_CHARGES')
f=open( 'psi4out.xyz', 'w' )
f.write( "17  " )
f.write( str(ee) + "\n" )
f.write( MOL.save_string_xyz() )
f.close()
--------------------------------------------------------------------------

    Molecular point group: c1
  Charge       = 0
  Multiplicity = 1
  Basis Set: 6-31G*
  Basis Set:
  @DF-RHF Final Energy:  -344.88086922195606
    Total Energy =                       -344.8808692219560612
    Molecular point group: c1
  Basis Set: 6-31G*
  Basis Set:
  Basis Set: 6-31G*
  Basis Set:
  @DF-RHF Final Energy:  -344.88112103922748
    Total Energy =                       -344.8811210392275370
  Basis Set: 6-31G*
  Basis Set:
  Basis Set: 6-31G*
  Basis Set:
  @DF-RHF Final Energy:  -344.88677225192322
    Total Energy =                       -344.8867722519229346
  Basis Set: 6-31G*
  Basis Set:
  Basis Set: 6-31G*
  Basis Set:
  @DF-RHF Final Energy:  -344.88798676732614
    Total Energy =                       -344.8879867673258559
  Basis Set: 6-31G*
  Basis Set:
  @DF-RHF Final Energy:  -344.88781276786023
    Total Energy =                       -344.8878127678601686
  Basis Set: 6-31G*
  Basis Set:
  @DF-RHF Final Energy:  -344.88883427519062
    Total Energy =                       -344.8888342751906748
  Basis Set: 6-31G*
  Basis Set:
  Basis Set: 6-31G*
  Basis Set:
  @DF-RHF Final Energy:  -344.88884671999887
    Total Energy =                       -344.8888467199985826
  Basis Set: 6-31G*
  Basis Set:
  Basis Set: 6-31G*
  Basis Set:
  @DF-RHF Final Energy:  -344.88884774693315
    Total Energy =                       -344.8888477469329246
  Basis Set: 6-31G*
  Basis Set:
  Charge       = 0
  Multiplicity = 1
  Basis Set: 6-31G*
  Basis Set:

    Orbital Energies (a.u.)
    -----------------------

    Doubly Occupied:

       1A    -20.595732     2A    -20.547185     3A    -11.374683
       4A    -11.296005     5A    -11.244676     6A    -11.226414
       7A    -11.218565     8A     -1.461282     9A     -1.367217
      10A     -1.082481    11A     -0.988903    12A     -0.966114
      13A     -0.838289    14A     -0.766362    15A     -0.702270
      16A     -0.684805    17A     -0.673909    18A     -0.641011
      19A     -0.608932    20A     -0.580775    21A     -0.568518
      22A     -0.547525    23A     -0.522688    24A     -0.495465
      25A     -0.490828    26A     -0.483606    27A     -0.451672
      28A     -0.433399

  @DF-RHF Final Energy:  -344.88884788831257

   => Energetics <=

    Nuclear Repulsion Energy =            313.6195608932725349
    One-Electron Energy =               -1091.2981981105758678
    Two-Electron Energy =                 432.7897893289907074
    DFT Exchange-Correlation Energy =       0.0000000000000000
    Empirical Dispersion Energy =           0.0000000000000000
    PCM Polarization Energy =               0.0000000000000000
    EFP Energy =                            0.0000000000000000
    Total Energy =                       -344.8888478883125686
    Molecular point group: c1
  Basis Set: 6-31G*
  Basis Set:

  -Total Gradient:
     Atom            X                  Y                   Z
    ------   -----------------  -----------------  -----------------
       1        0.000163778200    -0.000138568739     0.003812165506
       2        0.000506820859     0.001053317608    -0.004120346233
       3       -0.000024255856     0.000011215037     0.000004293004
       4       -0.002070646441    -0.002437032522    -0.002203977343
       5        0.000010035400    -0.000012027074    -0.000009475685
       6        0.000002091659    -0.000002024574    -0.000006576245
       7       -0.000000716838     0.000003821509    -0.000015602301
       8       -0.000000536246     0.000000502718     0.000009935466
       9        0.000004842930    -0.000007725078     0.000003099221
      10       -0.000004181200     0.000009518397     0.000003200855
      11       -0.000000484065     0.000002475724    -0.000003314946
      12        0.000000590530     0.000001048693     0.000003098637
      13        0.000001249063    -0.000003105786    -0.000001996124
      14        0.001402956632     0.001522083834     0.002522096646
      15       -0.000003725655    -0.000008200693     0.000004551468
      16       -0.000005389953    -0.000005251814    -0.000005975213
      17        0.000017570977     0.000009952756     0.000004823288

  **** Optimization is complete! (in 9 steps) ****
    Final optimized geometry and variables:
    Molecular point group: c1

    Geometry (in Angstrom), charge = 0, multiplicity = 1:

    O            0.934640837668     1.513369305789    -0.015042433653
    C            0.760442952759     0.344381289142    -0.053486051083
    C           -0.610646980847    -0.301362524470    -0.053743226128
    O            1.814101923927    -0.483800014049    -0.130051926385
    C           -1.745514042067     0.709219090628    -0.203255450295
    H           -0.637387448540    -1.035975682588    -0.854697208174
    H           -0.730658136014    -0.860999383617     0.871170525184
    C           -3.116637031578     0.035274694923    -0.200891563917
    H           -1.607956590012     1.266243661600    -1.123610124164
    H           -1.685046935426     1.433439531425     0.600793502135
    H           -3.212109107453    -0.673513536104    -1.018804875335
    H           -3.907779837709     0.769927260327    -0.308119357683
    H           -3.291771366551    -0.504215507697     0.725982744614
    C            1.842204353974    -1.688666554673     0.600025173069
    H            1.659405374823    -1.510509951536     1.653215335250
    H            2.837503204790    -2.086364040078     0.478227993433
    H            1.125651752060    -2.408157803062     0.223067204173

  Mulliken Charges: (a.u.)
   Center  Symbol    Alpha    Beta     Spin     Total
       1     O     4.25904  4.25904  0.00000 -0.51808
       2     C     2.60479  2.60479  0.00000  0.79041
       3     C     3.22698  3.22698  0.00000 -0.45397
       4     O     4.30689  4.30689  0.00000 -0.61377
       5     C     3.14966  3.14966  0.00000 -0.29931
       6     H     0.40275  0.40275  0.00000  0.19451
       7     H     0.40543  0.40543  0.00000  0.18915
       8     C     3.24327  3.24327  0.00000 -0.48655
       9     H     0.40964  0.40964  0.00000  0.18072
      10     H     0.40733  0.40733  0.00000  0.18534
      11     H     0.42142  0.42142  0.00000  0.15716
      12     H     0.41371  0.41371  0.00000  0.17259
      13     H     0.42221  0.42221  0.00000  0.15558
      14     C     3.09425  3.09425  0.00000 -0.18849
      15     H     0.41558  0.41558  0.00000  0.16883
      16     H     0.39897  0.39897  0.00000  0.20206
      17     H     0.41809  0.41809  0.00000  0.16383

   Total alpha = 28.00000, Total beta = 28.00000, Total charge =  0.00000
