  ==> Input File <==

--------------------------------------------------------------------------
set {
	reference rhf
	basis cc-pvtz
}

set_num_threads( 4 )
memory 2 gb

molecule MOL {
0 1

H	 1.128311	 0.207724	 1.465118
C	 1.134565	 0.093781	 0.372499
C	 0.062554	 0.862911	 -0.350953
O	 1.948932	 -0.587720	 -0.146651
C	 -1.060428	 1.327904	 0.581414
H	 -0.318597	 0.248417	 -1.156319
H	 0.545006	 1.732598	 -0.791360
C	 -1.891231	 0.181123	 1.150019
H	 -1.705145	 2.003111	 0.030951
H	 -0.635466	 1.910704	 1.393939
H	 -2.356410	 -0.392078	 0.355913
H	 -2.676792	 0.557378	 1.794198
H	 -1.285048	 -0.502585	 1.734073

	symmetry c1
}
set optking {
	frozen_dihedral = ("
		6 3 2 4
	")
}

ee = optimize('scf')
oeprop('DIPOLE', 'QUADRUPOLE', 'MULLIKEN_CHARGES')
f=open( 'psi4out.xyz', 'w' )
f.write( "13  " )
f.write( str(ee) + "\n" )
f.write( MOL.save_string_xyz() )
f.close()
--------------------------------------------------------------------------

    Molecular point group: c1
  Charge       = 0
  Multiplicity = 1
  Basis Set: CC-PVTZ
  Basis Set:
  @DF-RHF Final Energy:  -231.06919513509999
    Total Energy =                       -231.0691951351001308
    Molecular point group: c1
  Basis Set: CC-PVTZ
  Basis Set:
  Basis Set: CC-PVTZ
  Basis Set:
  @DF-RHF Final Energy:  -231.06792129678112
    Total Energy =                       -231.0679212967811509
  Basis Set: CC-PVTZ
  Basis Set:
  Basis Set: CC-PVTZ
  Basis Set:
  @DF-RHF Final Energy:  -231.06940440183644
    Total Energy =                       -231.0694044018365503
  Basis Set: CC-PVTZ
  Basis Set:
  Basis Set: CC-PVTZ
  Basis Set:
  @DF-RHF Final Energy:  -231.06944369706201
    Total Energy =                       -231.0694436970620700
  Basis Set: CC-PVTZ
  Basis Set:
  Basis Set: CC-PVTZ
  Basis Set:
  @DF-RHF Final Energy:  -231.06948986057702
    Total Energy =                       -231.0694898605769652
  Basis Set: CC-PVTZ
  Basis Set:
  Charge       = 0
  Multiplicity = 1
  Basis Set: CC-PVTZ
  Basis Set:

    Orbital Energies (a.u.)
    -----------------------

    Doubly Occupied:

       1A    -20.551690     2A    -11.322871     3A    -11.235366
       4A    -11.234748     5A    -11.222525     6A     -1.407536
       7A     -1.088657     8A     -0.973448     9A     -0.849074
      10A     -0.792957    11A     -0.663336    12A     -0.651200
      13A     -0.634878    14A     -0.594900    15A     -0.570988
      16A     -0.531321    17A     -0.508928    18A     -0.493760
      19A     -0.484792    20A     -0.412592

  @DF-RHF Final Energy:  -231.06951158297451

   => Energetics <=

    Nuclear Repulsion Energy =            172.9402234594930121
    One-Electron Energy =                -655.5683368495422201
    Two-Electron Energy =                 251.5586018070746377
    DFT Exchange-Correlation Energy =       0.0000000000000000
    Empirical Dispersion Energy =           0.0000000000000000
    PCM Polarization Energy =               0.0000000000000000
    EFP Energy =                            0.0000000000000000
    Total Energy =                       -231.0695115829745419
    Molecular point group: c1
  Basis Set: CC-PVTZ
  Basis Set:

  -Total Gradient:
     Atom            X                  Y                   Z
    ------   -----------------  -----------------  -----------------
       1       -0.000004013950     0.000009567099    -0.000016824454
       2       -0.001551020733    -0.001913889109     0.000415484728
       3        0.001646862925     0.001221974497    -0.001241516306
       4        0.000932621970     0.001231979225    -0.000152283695
       5       -0.000038077478     0.000026726361     0.000029803127
       6       -0.000972075719    -0.000573394568     0.000954126751
       7       -0.000004708628     0.000001981939     0.000008602757
       8        0.000015225694    -0.000005703799     0.000004499354
       9        0.000008271505     0.000009167547    -0.000004103279
      10       -0.000010385734    -0.000006696324    -0.000002790853
      11        0.000000558520    -0.000003210930     0.000003522690
      12       -0.000010564632    -0.000000273410     0.000004624426
      13       -0.000012693738     0.000001771471    -0.000003145245

  **** Optimization is complete! (in 6 steps) ****
    Final optimized geometry and variables:
    Molecular point group: c1

    Geometry (in Angstrom), charge = 0, multiplicity = 1:

    H            1.171076184869    -0.125297447798     1.141049508697
    C            1.119159178196    -0.263362795324     0.053221478266
    C            0.019279800251     0.490721169657    -0.657125267698
    O            1.921044789867    -0.935883250966    -0.495524670562
    C           -1.104404966164     0.962348734386     0.263036842802
    H           -0.364281775305    -0.144611542542    -1.446798334511
    H            0.496986201985     1.340479905865    -1.136537147837
    C           -1.953207552649    -0.180104197908     0.814693093475
    H           -1.739854557074     1.648029649061    -0.285465101457
    H           -0.681969059541     1.534386390261     1.084675542972
    H           -2.426414540651    -0.733628306768     0.011038677049
    H           -2.734161156349     0.194897905092     1.465011929210
    H           -1.358485621551    -0.882279104191     1.389594284762

  Mulliken Charges: (a.u.)
   Center  Symbol    Alpha    Beta     Spin     Total
       1     H     0.46162  0.46162  0.00000  0.07676
       2     C     2.91119  2.91119  0.00000  0.17762
       3     C     3.08860  3.08860  0.00000 -0.17720
       4     O     4.16474  4.16474  0.00000 -0.32949
       5     C     3.10398  3.10398  0.00000 -0.20796
       6     H     0.44059  0.44059  0.00000  0.11882
       7     H     0.43685  0.43685  0.00000  0.12630
       8     C     3.14657  3.14657  0.00000 -0.29314
       9     H     0.44400  0.44400  0.00000  0.11200
      10     H     0.45163  0.45163  0.00000  0.09674
      11     H     0.45116  0.45116  0.00000  0.09768
      12     H     0.44526  0.44526  0.00000  0.10949
      13     H     0.45381  0.45381  0.00000  0.09238

   Total alpha = 20.00000, Total beta = 20.00000, Total charge = -0.00000
