  ==> Input File <==

--------------------------------------------------------------------------
set {
	reference rhf
	basis 6-31G*
}

set_num_threads( 4 )
memory 2 gb

molecule MOL {
0 1

H	 2.805627	 2.620528	 -4.242413
C	 3.117903	 2.255798	 -3.268771
C	 1.942608	 2.209738	 -2.293201
H	 3.547412	 1.268100	 -3.407753
H	 3.905120	 2.911544	 -2.906713
C	 2.350114	 1.705791	 -0.906915
H	 1.166268	 1.568303	 -2.697500
H	 1.512160	 3.205743	 -2.201658
C	 1.197702	 1.665840	 0.096887
H	 2.777700	 0.713032	 -0.992019
H	 3.128274	 2.352795	 -0.508298
C	 0.169600	 0.576866	 -0.172154
H	 1.587778	 1.483404	 1.097051
H	 0.694134	 2.628585	 0.149025
C	 -1.181045	 0.701995	 0.511084
O	 0.414819	 -0.354397	 -0.878569
C	 -2.285934	 -0.139295	 -0.145128
H	 -1.449051	 1.751551	 0.493206
H	 -1.071135	 0.403303	 1.551943
C	 -3.651768	 0.085446	 0.506485
H	 -2.346596	 0.110469	 -1.202272
H	 -2.034737	 -1.195320	 -0.088721
C	 -4.759797	 -0.746382	 -0.137905
H	 -3.908762	 1.140117	 0.445781
H	 -3.588286	 -0.154158	 1.565709
H	 -4.868882	 -0.505166	 -1.191300
H	 -4.548009	 -1.809175	 -0.062213
H	 -5.715422	 -0.564821	 0.343442

	symmetry c1
}
set optking {
	frozen_dihedral = ("
		16 12 15 17
	")
}

ee = optimize('scf')
oeprop('DIPOLE', 'QUADRUPOLE', 'MULLIKEN_CHARGES')
f=open( 'psi4out.xyz', 'w' )
f.write( "28  " )
f.write( str(ee) + "\n" )
f.write( MOL.save_string_xyz() )
f.close()
--------------------------------------------------------------------------

    Molecular point group: c1
  Charge       = 0
  Multiplicity = 1
  Basis Set: 6-31G*
  Basis Set:
  @DF-RHF Final Energy:  -426.17000311990637
    Total Energy =                       -426.1700031199061414
    Molecular point group: c1
  Basis Set: 6-31G*
  Basis Set:
  Basis Set: 6-31G*
  Basis Set:
  @DF-RHF Final Energy:  -426.16940474552291
    Total Energy =                       -426.1694047455230248
  Basis Set: 6-31G*
  Basis Set:
  Basis Set: 6-31G*
  Basis Set:
  @DF-RHF Final Energy:  -426.17024957425849
    Total Energy =                       -426.1702495742583778
  Basis Set: 6-31G*
  Basis Set:
  Basis Set: 6-31G*
  Basis Set:
  @DF-RHF Final Energy:  -426.17089342562690
    Total Energy =                       -426.1708934256271277
  Basis Set: 6-31G*
  Basis Set:
  @DF-RHF Final Energy:  -426.17085097253073
    Total Energy =                       -426.1708509725309568
  @DF-RHF Final Energy:  -426.17102669673227
    Total Energy =                       -426.1710266967322696
  Basis Set: 6-31G*
  Basis Set:
  @DF-RHF Final Energy:  -426.17103040977577
    Total Energy =                       -426.1710304097756534
  Basis Set: 6-31G*
  Basis Set:
  Basis Set: 6-31G*
  Basis Set:
  @DF-RHF Final Energy:  -426.17103559606903
    Total Energy =                       -426.1710355960688048
  Basis Set: 6-31G*
  Basis Set:
  Basis Set: 6-31G*
  Basis Set:
  @DF-RHF Final Energy:  -426.17103693794354
    Total Energy =                       -426.1710369379436543
  Basis Set: 6-31G*
  Basis Set:
  Charge       = 0
  Multiplicity = 1
  Basis Set: 6-31G*
  Basis Set:

    Orbital Energies (a.u.)
    -----------------------

    Doubly Occupied:

       1A    -20.550320     2A    -11.324398     3A    -11.231235
       4A    -11.230957     5A    -11.219417     6A    -11.217638
       7A    -11.216778     8A    -11.210627     9A    -11.210142
      10A    -11.204899    11A     -1.395797    12A     -1.088246
      13A     -1.076944    14A     -1.022080    15A     -0.990244
      16A     -0.910476    17A     -0.864861    18A     -0.805237
      19A     -0.791889    20A     -0.724466    21A     -0.668344
      22A     -0.655281    23A     -0.627311    24A     -0.616641
      25A     -0.608316    26A     -0.582003    27A     -0.579436
      28A     -0.573153    29A     -0.533284    30A     -0.532330
      31A     -0.518224    32A     -0.507214    33A     -0.491568
      34A     -0.481867    35A     -0.474386    36A     -0.469452
      37A     -0.467792    38A     -0.464954    39A     -0.456636
      40A     -0.394220

  @DF-RHF Final Energy:  -426.17103701294138

   => Energetics <=

    Nuclear Repulsion Energy =            529.5370227112622388
    One-Electron Energy =               -1627.4379920205735743
    Two-Electron Energy =                 671.7299322963704071
    DFT Exchange-Correlation Energy =       0.0000000000000000
    Empirical Dispersion Energy =           0.0000000000000000
    PCM Polarization Energy =               0.0000000000000000
    EFP Energy =                            0.0000000000000000
    Total Energy =                       -426.1710370129408147
    Molecular point group: c1
  Basis Set: 6-31G*
  Basis Set:

  -Total Gradient:
     Atom            X                  Y                   Z
    ------   -----------------  -----------------  -----------------
       1       -0.000002603007    -0.000003525867    -0.000000719803
       2       -0.000000943970    -0.000008927858     0.000002266573
       3        0.000007909855     0.000018274799     0.000004161590
       4        0.000004372903     0.000000340285     0.000003158426
       5       -0.000000611800     0.000003361173    -0.000002543547
       6       -0.000011226343    -0.000020290992    -0.000008847293
       7       -0.000007260094    -0.000000221207     0.000001961297
       8        0.000000855273     0.000000949300     0.000002228159
       9       -0.000006312267     0.000003941352    -0.000015176177
      10        0.000004616486    -0.000001255823    -0.000000887810
      11       -0.000010853027     0.000003302671     0.000004785351
      12       -0.000610031463     0.000943459335    -0.001003209171
      13       -0.000003182217    -0.000005136521     0.000005696365
      14       -0.000005818977    -0.000004944466     0.000001163459
      15        0.000442584000    -0.000970857581     0.000685351103
      16        0.000387513349    -0.000497678484     0.000631181713
      17       -0.000204999481     0.000532506048    -0.000306182917
      18        0.000005297817    -0.000011666878    -0.000015325324
      19        0.000008798248    -0.000004479254     0.000015060470
      20       -0.000005321233     0.000001563849    -0.000003684671
      21       -0.000008370797     0.000007221707    -0.000009313551
      22        0.000007658731     0.000012535742     0.000010946025
      23        0.000002470732     0.000002942724    -0.000000156529
      24       -0.000001064938    -0.000000436864     0.000001556617
      25        0.000001932740    -0.000002323569    -0.000003903722
      26        0.000000455419     0.000001184495    -0.000000880838
      27        0.000000992574    -0.000002452334     0.000001647146
      28        0.000003141496     0.000002614218    -0.000000332940

  **** Optimization is complete! (in 10 steps) ****
    Final optimized geometry and variables:
    Molecular point group: c1

    Geometry (in Angstrom), charge = 0, multiplicity = 1:

    H            3.570669042723     1.726833573197    -3.442657412082
    C            3.726553579670     1.363243325399    -2.431698572225
    C            2.432157387244     1.414289346100    -1.621146329643
    H            4.103224785188     0.346939803650    -2.500619230759
    H            4.501826827145     1.973799159698    -1.976494262712
    C            2.619953340717     0.917813561014    -0.185636204296
    H            1.674170399569     0.815858872336    -2.113923083750
    H            2.062144892934     2.438229118438    -1.599828705472
    C            1.345445959677     0.965821067159     0.656882315048
    H            2.998522132985    -0.098878212177    -0.199436249934
    H            3.375472535125     1.528455833519     0.303665859105
    C            0.321158124877    -0.108156280065     0.329276842462
    H            1.584462936519     0.859872699295     1.714470499632
    H            0.860994570154     1.936429879430     0.567279857190
    C           -0.952847591203    -0.093035704395     1.158973906874
    O            0.518785824673    -0.946262227040    -0.497481162785
    C           -2.102400099947    -0.885638896159     0.540578993772
    H           -1.249103854033     0.937654865281     1.338802785707
    H           -0.695445743490    -0.499856107292     2.136919511178
    C           -3.357263365750    -0.880684600359     1.415051951601
    H           -2.336805052880    -0.470675043392    -0.436282368595
    H           -1.777368741873    -1.905115626196     0.365302453695
    C           -4.510863768224    -1.669359227360     0.796539147078
    H           -3.675867062876     0.144939262397     1.590793271515
    H           -3.119504912892    -1.297265279249     2.391881897716
    H           -4.795988167376    -1.255759753983    -0.166520949530
    H           -4.235092769617    -2.708182300075     0.640425240524
    H           -5.387087938867    -1.651488923178     1.437126662771

  Mulliken Charges: (a.u.)
   Center  Symbol    Alpha    Beta     Spin     Total
       1     H     0.41938  0.41938  0.00000  0.16124
       2     C     3.24036  3.24036  0.00000 -0.48071
       3     C     3.15621  3.15621  0.00000 -0.31242
       4     H     0.41876  0.41876  0.00000  0.16249
       5     H     0.42407  0.42407  0.00000  0.15185
       6     C     3.14888  3.14888  0.00000 -0.29775
       7     H     0.40675  0.40675  0.00000  0.18651
       8     H     0.42816  0.42816  0.00000  0.14368
       9     C     3.20916  3.20916  0.00000 -0.41833
      10     H     0.40951  0.40951  0.00000  0.18098
      11     H     0.42186  0.42186  0.00000  0.15627
      12     C     2.73377  2.73377  0.00000  0.53245
      13     H     0.40709  0.40709  0.00000  0.18583
      14     H     0.40947  0.40947  0.00000  0.18106
      15     C     3.20646  3.20646  0.00000 -0.41291
      16     O     4.26768  4.26768  0.00000 -0.53535
      17     C     3.14876  3.14876  0.00000 -0.29752
      18     H     0.41276  0.41276  0.00000  0.17448
      19     H     0.40631  0.40631  0.00000  0.18738
      20     C     3.15346  3.15346  0.00000 -0.30692
      21     H     0.41754  0.41754  0.00000  0.16491
      22     H     0.40728  0.40728  0.00000  0.18544
      23     C     3.23933  3.23933  0.00000 -0.47866
      24     H     0.42422  0.42422  0.00000  0.15156
      25     H     0.42340  0.42340  0.00000  0.15320
      26     H     0.42059  0.42059  0.00000  0.15883
      27     H     0.41963  0.41963  0.00000  0.16075
      28     H     0.41915  0.41915  0.00000  0.16169

   Total alpha = 40.00000, Total beta = 40.00000, Total charge = -0.00000
