  ==> Input File <==

--------------------------------------------------------------------------
set {
	reference rhf
	basis cc-pvtz
}

set_num_threads( 4 )
memory 2 gb

molecule MOL {
0 1

H	 -3.144994	 -1.202467	 -0.018751
O	 -2.321472	 -0.864941	 -0.318626
C	 -2.021813	 0.336996	 0.342658
C	 -0.669613	 0.837286	 -0.127252
H	 -2.780861	 1.084746	 0.127159
H	 -2.006390	 0.184138	 1.420053
C	 0.490865	 -0.082543	 0.241244
H	 -0.708709	 0.967192	 -1.204587
H	 -0.507562	 1.822272	 0.303070
C	 0.033402	 -1.445417	 0.753013
H	 1.103482	 0.400687	 0.993737
H	 1.126548	 -0.222693	 -0.630758
C	 1.192671	 -2.368138	 1.114214
H	 -0.599817	 -1.306004	 1.624965
H	 -0.587036	 -1.925255	 0.000349
H	 1.811972	 -1.931186	 1.890393
H	 0.835621	 -3.325836	 1.475647
H	 1.826876	 -2.555177	 0.253839

	symmetry c1
}
set optking {
	frozen_dihedral = ("
		10 7 4 8
	")
}

ee = optimize('scf')
oeprop('DIPOLE', 'QUADRUPOLE', 'MULLIKEN_CHARGES')
f=open( 'psi4out.xyz', 'w' )
f.write( "18  " )
f.write( str(ee) + "\n" )
f.write( MOL.save_string_xyz() )
f.close()
--------------------------------------------------------------------------

    Molecular point group: c1
  Charge       = 0
  Multiplicity = 1
  Basis Set: CC-PVTZ
  Basis Set:
  @DF-RHF Final Energy:  -271.26735073571217
    Total Energy =                       -271.2673507357123981
    Molecular point group: c1
  Basis Set: CC-PVTZ
  Basis Set:
  Basis Set: CC-PVTZ
  Basis Set:
  @DF-RHF Final Energy:  -271.27534951134817
    Total Energy =                       -271.2753495113478266
  Basis Set: CC-PVTZ
  Basis Set:
  Basis Set: CC-PVTZ
  Basis Set:
  @DF-RHF Final Energy:  -271.27666049081796
    Total Energy =                       -271.2766604908179033
  Basis Set: CC-PVTZ
  Basis Set:
  Basis Set: CC-PVTZ
  Basis Set:
  @DF-RHF Final Energy:  -271.27698984225975
    Total Energy =                       -271.2769898422596953
  Basis Set: CC-PVTZ
  Basis Set:
  Basis Set: CC-PVTZ
  Basis Set:
  @DF-RHF Final Energy:  -271.27704957554158
    Total Energy =                       -271.2770495755414686
  Basis Set: CC-PVTZ
  Basis Set:
  Basis Set: CC-PVTZ
  Basis Set:
  @DF-RHF Final Energy:  -271.27708149711987
    Total Energy =                       -271.2770814971196387
  Basis Set: CC-PVTZ
  Basis Set:
  Basis Set: CC-PVTZ
  Basis Set:
  @DF-RHF Final Energy:  -271.27708340552709
    Total Energy =                       -271.2770834055268097
  Basis Set: CC-PVTZ
  Basis Set:
  Charge       = 0
  Multiplicity = 1
  Basis Set: CC-PVTZ
  Basis Set:

    Orbital Energies (a.u.)
    -----------------------

    Doubly Occupied:

       1A    -20.546302     2A    -11.266754     3A    -11.211789
       4A    -11.208460     5A    -11.203341     6A    -11.200393
       7A     -1.364365     8A     -1.071215     9A     -1.007423
      10A     -0.914262    11A     -0.832853    12A     -0.767294
      13A     -0.707588    14A     -0.647407    15A     -0.623924
      16A     -0.582649    17A     -0.566355    18A     -0.553281
      19A     -0.534964    20A     -0.500559    21A     -0.487771
      22A     -0.469521    23A     -0.449535    24A     -0.447309
      25A     -0.427775

  @DF-RHF Final Energy:  -271.27708362434475

   => Energetics <=

    Nuclear Repulsion Energy =            254.9058718374288901
    One-Electron Energy =                -873.1797270658868229
    Two-Electron Energy =                 346.9967716041132917
    DFT Exchange-Correlation Energy =       0.0000000000000000
    Empirical Dispersion Energy =           0.0000000000000000
    PCM Polarization Energy =               0.0000000000000000
    EFP Energy =                            0.0000000000000000
    Total Energy =                       -271.2770836243446411
    Molecular point group: c1
  Basis Set: CC-PVTZ
  Basis Set:

  -Total Gradient:
     Atom            X                  Y                   Z
    ------   -----------------  -----------------  -----------------
       1        0.000002688152     0.000008328903     0.000000759438
       2       -0.000000484165    -0.000010746795     0.000005748396
       3       -0.000005092047     0.000004562983    -0.000008029151
       4       -0.002247474227    -0.002503793448     0.000647056698
       5        0.000002404270     0.000003841655    -0.000005226102
       6       -0.000000687661    -0.000012315933    -0.000001983984
       7        0.000516512513    -0.000595298755    -0.002971088786
       8        0.001784795556     0.002322029693     0.000245423520
       9        0.000007985696    -0.000008637070     0.000009140832
      10       -0.000073205296     0.000785880127     0.002078644182
      11        0.000002091369     0.000000461440    -0.000002479049
      12       -0.000005738084     0.000003383423    -0.000001282393
      13       -0.000006682425     0.000012941190     0.000005533949
      14        0.000006678664    -0.000000329074    -0.000001730919
      15       -0.000002794007     0.000004563645    -0.000002640713
      16        0.000010244449    -0.000005494083    -0.000001990029
      17       -0.000000702181    -0.000006615111     0.000004426787
      18        0.000009459429    -0.000002762792    -0.000000282677

  **** Optimization is complete! (in 8 steps) ****
    Final optimized geometry and variables:
    Molecular point group: c1

    Geometry (in Angstrom), charge = 0, multiplicity = 1:

    H           -2.819696222648    -0.297674858774    -0.447454750007
    O           -1.958771829883    -0.061315104355    -0.739528381229
    C           -1.480190887987     1.029386439697     0.004317492394
    C           -0.076145950273     1.384233374158    -0.449515983348
    H           -2.119899650613     1.893951319330    -0.153836891197
    H           -1.496961738518     0.805328460962     1.067691496307
    C            1.088052449175     0.438718811088    -0.060127833491
    H           -0.100114944798     1.516594521225    -1.525192901217
    H            0.140186564560     2.368678976373    -0.045636733764
    C            0.737985455842    -0.956240265462     0.460215799527
    H            1.684855661691     0.929870770107     0.703428954424
    H            1.743876137888     0.331539123933    -0.917612547845
    C            1.986409353470    -1.755069173523     0.822375385899
    H            0.105008306823    -0.876481111911     1.337922914695
    H            0.162930330138    -1.494986079199    -0.281350821380
    H            2.567167887294    -1.254666334029     1.590769018555
    H            1.726321585772    -2.739750471662     1.194164626538
    H            2.630336203211    -1.888499471578    -0.040799834042

  Mulliken Charges: (a.u.)
   Center  Symbol    Alpha    Beta     Spin     Total
       1     H     0.39591  0.39591  0.00000  0.20818
       2     O     4.19980  4.19980  0.00000 -0.39961
       3     C     2.98432  2.98432  0.00000  0.03135
       4     C     3.09352  3.09352  0.00000 -0.18704
       5     H     0.45917  0.45917  0.00000  0.08166
       6     H     0.46828  0.46828  0.00000  0.06345
       7     C     3.09403  3.09403  0.00000 -0.18805
       8     H     0.45018  0.45018  0.00000  0.09964
       9     H     0.45137  0.45137  0.00000  0.09726
      10     C     3.08069  3.08069  0.00000 -0.16139
      11     H     0.45552  0.45552  0.00000  0.08895
      12     H     0.45162  0.45162  0.00000  0.09675
      13     C     3.15150  3.15150  0.00000 -0.30299
      14     H     0.45903  0.45903  0.00000  0.08194
      15     H     0.44257  0.44257  0.00000  0.11486
      16     H     0.45783  0.45783  0.00000  0.08434
      17     H     0.44921  0.44921  0.00000  0.10158
      18     H     0.45545  0.45545  0.00000  0.08910

   Total alpha = 25.00000, Total beta = 25.00000, Total charge = -0.00000
