  ==> Input File <==

--------------------------------------------------------------------------
set {
	reference rhf
	basis cc-pvtz
}

set_num_threads( 4 )
memory 2 gb

molecule MOL {
0 1

H	 3.189716	 0.262431	 0.648300
N	 2.334608	 -0.251539	 0.662909
C	 1.263552	 0.494993	 0.021953
H	 2.117613	 -0.435178	 1.620263
C	 -0.016533	 -0.325589	 -0.026925
H	 1.579603	 0.725047	 -0.990066
H	 1.059711	 1.448811	 0.510487
C	 -1.280353	 0.525521	 0.047747
H	 -0.016686	 -0.912532	 -0.939714
H	 -0.014099	 -1.037598	 0.796369
C	 -2.560681	 -0.301323	 -0.007747
H	 -1.279957	 1.241025	 -0.770189
H	 -1.270445	 1.110526	 0.963468
H	 -2.617064	 -0.872870	 -0.928010
H	 -3.439525	 0.331102	 0.043462
H	 -2.609427	 -1.002736	 0.818585

	symmetry c1
}
set optking {
	frozen_dihedral = ("
		6 3 5 9
	")
}

ee = optimize('scf')
oeprop('DIPOLE', 'QUADRUPOLE', 'MULLIKEN_CHARGES')
f=open( 'psi4out.xyz', 'w' )
f.write( "16  " )
f.write( str(ee) + "\n" )
f.write( MOL.save_string_xyz() )
f.close()
--------------------------------------------------------------------------

    Molecular point group: c1
  Charge       = 0
  Multiplicity = 1
  Basis Set: CC-PVTZ
  Basis Set:
  @DF-RHF Final Energy:  -212.39677749134628
    Total Energy =                       -212.3967774913464837
    Molecular point group: c1
  Basis Set: CC-PVTZ
  Basis Set:
  Basis Set: CC-PVTZ
  Basis Set:
  @DF-RHF Final Energy:  -212.39709745749062
    Total Energy =                       -212.3970974574904176
  Basis Set: CC-PVTZ
  Basis Set:
  Basis Set: CC-PVTZ
  Basis Set:
  @DF-RHF Final Energy:  -212.39717206647558
    Total Energy =                       -212.3971720664754912
  Basis Set: CC-PVTZ
  Basis Set:
  Basis Set: CC-PVTZ
  Basis Set:
  @DF-RHF Final Energy:  -212.39717339313094
    Total Energy =                       -212.3971733931307426
  Basis Set: CC-PVTZ
  Basis Set:
  Charge       = 0
  Multiplicity = 1
  Basis Set: CC-PVTZ
  Basis Set:

    Orbital Energies (a.u.)
    -----------------------

    Doubly Occupied:

       1A    -15.526174     2A    -11.238359     3A    -11.212835
       4A    -11.208137     5A    -11.205788     6A     -1.177228
       7A     -1.060229     8A     -0.958478     9A     -0.845098
      10A     -0.791568    11A     -0.669660    12A     -0.627544
      13A     -0.614908    14A     -0.575887    15A     -0.559235
      16A     -0.530023    17A     -0.503090    18A     -0.471501
      19A     -0.465901    20A     -0.457421    21A     -0.383412

  @DF-RHF Final Energy:  -212.39717355421308

   => Energetics <=

    Nuclear Repulsion Energy =            186.5279511610283123
    One-Electron Energy =                -655.6853032600809001
    Two-Electron Energy =                 256.7601785448395049
    DFT Exchange-Correlation Energy =       0.0000000000000000
    Empirical Dispersion Energy =           0.0000000000000000
    PCM Polarization Energy =               0.0000000000000000
    EFP Energy =                            0.0000000000000000
    Total Energy =                       -212.3971735542130546
    Molecular point group: c1
  Basis Set: CC-PVTZ
  Basis Set:

  -Total Gradient:
     Atom            X                  Y                   Z
    ------   -----------------  -----------------  -----------------
       1       -0.000004585093    -0.000007925812     0.000001684059
       2       -0.000016344118     0.000029272566     0.000001277408
       3       -0.003648175398     0.005651931843    -0.000396186144
       4       -0.000000229935     0.000001747169    -0.000012895532
       5        0.003323747121    -0.005202786250     0.002749833097
       6        0.002559410971    -0.003937815418    -0.000102153499
       7       -0.000004404410    -0.000016501160    -0.000002448595
       8        0.000010341295    -0.000001018701     0.000003790453
       9       -0.002212457023     0.003478161001    -0.002245014363
      10        0.000001954817     0.000007016272     0.000002825255
      11       -0.000007370800    -0.000002993666     0.000002513187
      12        0.000004783848     0.000004625299    -0.000002469665
      13       -0.000004831742    -0.000001835386     0.000001502835
      14        0.000000079788    -0.000001429862    -0.000000887393
      15       -0.000000461687    -0.000000900812    -0.000000072244
      16       -0.000001457636     0.000000452916    -0.000001298859

  **** Optimization is complete! (in 5 steps) ****
    Final optimized geometry and variables:
    Molecular point group: c1

    Geometry (in Angstrom), charge = 0, multiplicity = 1:

    H            3.239925832732     0.224144123037     0.409894800239
    N            2.381068272462    -0.280139409216     0.473084345298
    C            1.283937646407     0.475499131608    -0.117058178613
    H            2.212850694218    -0.456810356329     1.441434845560
    C            0.001215397821    -0.358743168010    -0.136812726995
    H            1.583170847204     0.698626432979    -1.134535533998
    H            1.102196100378     1.421741191678     0.391009624979
    C           -1.265536996877     0.494484716869    -0.101936119658
    H           -0.020113003706    -0.958807922909    -1.040391612361
    H            0.000489716369    -1.043379331315     0.705515188051
    C           -2.544572031943    -0.330183480109    -0.196679458375
    H           -1.239358345908     1.211386497205    -0.918931905645
    H           -1.281091772509     1.079717075189     0.813588805415
    H           -2.579177156424    -0.894042414010    -1.122837140290
    H           -3.424243154139     0.302282917392    -0.161548725142
    H           -2.613828006221    -1.039003072282     0.621963963931

  Mulliken Charges: (a.u.)
   Center  Symbol    Alpha    Beta     Spin     Total
       1     H     0.42958  0.42958  0.00000  0.14085
       2     N     3.69101  3.69101  0.00000 -0.38203
       3     C     3.03001  3.03001  0.00000 -0.06002
       4     H     0.43073  0.43073  0.00000  0.13853
       5     C     3.07941  3.07941  0.00000 -0.15883
       6     H     0.45593  0.45593  0.00000  0.08815
       7     H     0.46636  0.46636  0.00000  0.06729
       8     C     3.08852  3.08852  0.00000 -0.17704
       9     H     0.45302  0.45302  0.00000  0.09396
      10     H     0.45531  0.45531  0.00000  0.08939
      11     C     3.14991  3.14991  0.00000 -0.29982
      12     H     0.45507  0.45507  0.00000  0.08985
      13     H     0.45653  0.45653  0.00000  0.08693
      14     H     0.45462  0.45462  0.00000  0.09075
      15     H     0.44881  0.44881  0.00000  0.10237
      16     H     0.45517  0.45517  0.00000  0.08967

   Total alpha = 21.00000, Total beta = 21.00000, Total charge =  0.00000
