  ==> Input File <==

--------------------------------------------------------------------------
set {
	reference rhf
	basis 6-31G*
}

set_num_threads( 4 )
memory 2 gb

molecule MOL {
0 1

H	 -3.650283	 0.221984	 0.000000
C	 -2.577024	 0.154109	 0.000000
C	 -1.960329	 -1.089307	 0.000000
C	 -1.811733	 1.307557	 0.000000
H	 -2.554473	 -1.985285	 0.000000
C	 -0.581547	 -1.175855	 0.000000
H	 -2.287118	 2.271701	 0.000000
C	 -0.428719	 1.219221	 0.000000
H	 -0.090826	 -2.129898	 0.000000
C	 0.198341	 -0.021559	 0.000000
H	 0.149947	 2.124040	 0.000000
C	 1.691355	 -0.173192	 0.000000
C	 2.338123	 -1.093858	 -1.013710
O	 2.362696	 0.423891	 0.788775
H	 1.977412	 -2.110971	 -0.899034
H	 3.407711	 -1.074325	 -0.861754
H	 2.113145	 -0.774513	 -2.026224

	symmetry c1
}
set optking {
	frozen_dihedral = ("
		13 12 10 8
	")
}

ee = optimize('scf')
oeprop('DIPOLE', 'QUADRUPOLE', 'MULLIKEN_CHARGES')
f=open( 'psi4out.xyz', 'w' )
f.write( "17  " )
f.write( str(ee) + "\n" )
f.write( MOL.save_string_xyz() )
f.close()
--------------------------------------------------------------------------

    Molecular point group: c1
  Charge       = 0
  Multiplicity = 1
  Basis Set: 6-31G*
  Basis Set:
  @DF-RHF Final Energy:  -382.46912977782637
    Total Energy =                       -382.4691297778264243
    Molecular point group: c1
  Basis Set: 6-31G*
  Basis Set:
  Basis Set: 6-31G*
  Basis Set:
  @DF-RHF Final Energy:  -382.46895002339716
    Total Energy =                       -382.4689500233971557
  Basis Set: 6-31G*
  Basis Set:
  Basis Set: 6-31G*
  Basis Set:
  @DF-RHF Final Energy:  -382.47012840207401
    Total Energy =                       -382.4701284020742378
  Basis Set: 6-31G*
  Basis Set:
  Basis Set: 6-31G*
  Basis Set:
  @DF-RHF Final Energy:  -382.47093479622208
    Total Energy =                       -382.4709347962221955
  Basis Set: 6-31G*
  Basis Set:
  Basis Set: 6-31G*
  Basis Set:
  @DF-RHF Final Energy:  -382.47094448527906
    Total Energy =                       -382.4709444852788920
  Basis Set: 6-31G*
  Basis Set:
  Basis Set: 6-31G*
  Basis Set:
  @DF-RHF Final Energy:  -382.47094807781644
    Total Energy =                       -382.4709480778158195
  Basis Set: 6-31G*
  Basis Set:
  Basis Set: 6-31G*
  Basis Set:
  @DF-RHF Final Energy:  -382.47095020579189
    Total Energy =                       -382.4709502057920645
  Basis Set: 6-31G*
  Basis Set:
  Charge       = 0
  Multiplicity = 1
  Basis Set: 6-31G*
  Basis Set:

    Orbital Energies (a.u.)
    -----------------------

    Doubly Occupied:

       1A    -20.553295     2A    -11.332536     3A    -11.247184
       4A    -11.245281     5A    -11.243341     6A    -11.241973
       7A    -11.241041     8A    -11.239289     9A    -11.230666
      10A     -1.398923    11A     -1.165989    12A     -1.050190
      13A     -1.026388    14A     -0.997312    15A     -0.860304
      16A     -0.836594    17A     -0.760798    18A     -0.705320
      19A     -0.659412    20A     -0.645413    21A     -0.624009
      22A     -0.616980    23A     -0.599873    24A     -0.589639
      25A     -0.558360    26A     -0.525386    27A     -0.514286
      28A     -0.502439    29A     -0.490654    30A     -0.410263
      31A     -0.344432    32A     -0.342010

  @DF-RHF Final Energy:  -382.47095064525348

   => Energetics <=

    Nuclear Repulsion Energy =            403.1664501869002493
    One-Electron Energy =               -1317.6756406654374132
    Two-Electron Energy =                 532.0382398332836829
    DFT Exchange-Correlation Energy =       0.0000000000000000
    Empirical Dispersion Energy =           0.0000000000000000
    PCM Polarization Energy =               0.0000000000000000
    EFP Energy =                            0.0000000000000000
    Total Energy =                       -382.4709506452535379
    Molecular point group: c1
  Basis Set: 6-31G*
  Basis Set:

  -Total Gradient:
     Atom            X                  Y                   Z
    ------   -----------------  -----------------  -----------------
       1       -0.000000169682     0.000003256447    -0.000002511588
       2       -0.000008006947    -0.000073573631     0.000012747801
       3       -0.000056970034     0.000040192358    -0.000006688020
       4        0.000075255651     0.000034576740    -0.000003796682
       5        0.000002230249    -0.000001993084    -0.000000094399
       6        0.000058661835     0.000031511448    -0.000026688777
       7       -0.000005615067    -0.000002258781     0.000000559207
       8       -0.000125945560    -0.000023098815    -0.004085919929
       9       -0.000000740061    -0.000000706786    -0.000003248904
      10        0.000128456492     0.001341124431     0.004771206986
      11        0.000002967243    -0.000002159179    -0.000003472219
      12       -0.000168447160    -0.004111812716     0.001761486499
      13        0.000103078064     0.002819913896    -0.002451281964
      14       -0.000008042549    -0.000036320719     0.000015225487
      15        0.000011414534    -0.000008749819     0.000020383551
      16        0.000002218327     0.000004541494    -0.000004589635
      17       -0.000010345342    -0.000014443284     0.000006682586

  **** Optimization is complete! (in 8 steps) ****
    Final optimized geometry and variables:
    Molecular point group: c1

    Geometry (in Angstrom), charge = 0, multiplicity = 1:

    H           -3.638823839771     0.305762586411    -0.004013344850
    C           -2.567682628223     0.213154935285     0.014690533930
    C           -1.981115748523    -1.041496241332     0.027447919576
    C           -1.772897305584     1.349346146171     0.023246732059
    H           -2.594643402296    -1.924370860146     0.024200984721
    C           -0.600877141940    -1.160792445230     0.035814090418
    H           -2.225974215292     2.324208657823     0.007596191436
    C           -0.394968279189     1.230212611516     0.056450063503
    H           -0.157057827455    -2.140208222442     0.035889746603
    C            0.200542379416    -0.026281921709     0.068634894636
    H            0.227123875470     2.105616818381     0.080817827304
    C            1.701385212743    -0.104032190721     0.048233569448
    C            2.347889529281    -1.016499263386    -0.971433750686
    O            2.357142147046     0.608791867988     0.746352026515
    H            2.032541105539    -2.047277866919    -0.849244037943
    H            3.422750599369    -0.955264085183    -0.873850900792
    H            2.051391197673    -0.705614766158    -1.968485952345

  Mulliken Charges: (a.u.)
   Center  Symbol    Alpha    Beta     Spin     Total
       1     H     0.39600  0.39600  0.00000  0.20801
       2     C     3.09548  3.09548  0.00000 -0.19096
       3     C     3.10183  3.10183  0.00000 -0.20367
       4     C     3.10142  3.10142  0.00000 -0.20283
       5     H     0.39631  0.39631  0.00000  0.20738
       6     C     3.10399  3.10399  0.00000 -0.20799
       7     H     0.39548  0.39548  0.00000  0.20905
       8     C     3.09639  3.09639  0.00000 -0.19279
       9     H     0.39533  0.39533  0.00000  0.20934
      10     C     3.03791  3.03791  0.00000 -0.07583
      11     H     0.38354  0.38354  0.00000  0.23293
      12     C     2.74251  2.74251  0.00000  0.51497
      13     C     3.28715  3.28715  0.00000 -0.57430
      14     O     4.25853  4.25853  0.00000 -0.51706
      15     H     0.40916  0.40916  0.00000  0.18168
      16     H     0.39642  0.39642  0.00000  0.20717
      17     H     0.40256  0.40256  0.00000  0.19488

   Total alpha = 32.00000, Total beta = 32.00000, Total charge = -0.00000
