  ==> Input File <==

--------------------------------------------------------------------------
set {
	reference rhf
	basis 6-31G*
}

set_num_threads( 4 )
memory 2 gb

molecule MOL {
0 1

H	 -2.646374	 -0.642757	 1.268656
C	 -2.083525	 -0.384536	 0.393091
O	 -0.807605	 -0.127164	 0.768327
F	 -2.118945	 -1.383102	 -0.486752
F	 -2.621877	 0.670592	 -0.209486
C	 -0.609541	 0.559486	 1.952375
C	 0.413964	 1.651038	 1.667573
Cl	 -0.024917	 -0.527839	 3.222474
H	 -1.510487	 1.025771	 2.311050
F	 0.644692	 2.359093	 2.752728
F	 -0.072795	 2.459455	 0.747266
F	 1.549889	 1.162802	 1.232515

	symmetry c1
}
set optking {
	frozen_dihedral = ("
		6 3 2 4
	")
}

ee = optimize('scf')
oeprop('DIPOLE', 'QUADRUPOLE', 'MULLIKEN_CHARGES')
f=open( 'psi4out.xyz', 'w' )
f.write( "12  " )
f.write( str(ee) + "\n" )
f.write( MOL.save_string_xyz() )
f.close()
--------------------------------------------------------------------------

    Molecular point group: c1
  Charge       = 0
  Multiplicity = 1
  Basis Set: 6-31G*
  Basis Set:
  @DF-RHF Final Energy: -1146.30757502442543
    Total Energy =                      -1146.3075750244256596
    Molecular point group: c1
  Basis Set: 6-31G*
  Basis Set:
  Basis Set: 6-31G*
  Basis Set:
  @DF-RHF Final Energy: -1146.30957310977305
    Total Energy =                      -1146.3095731097730550
  Basis Set: 6-31G*
  Basis Set:
  Basis Set: 6-31G*
  Basis Set:
  @DF-RHF Final Energy: -1146.31055500326761
    Total Energy =                      -1146.3105550032682913
  Basis Set: 6-31G*
  Basis Set:
  Basis Set: 6-31G*
  Basis Set:
  @DF-RHF Final Energy: -1146.31097895442736
    Total Energy =                      -1146.3109789544287196
  Basis Set: 6-31G*
  Basis Set:
  @DF-RHF Final Energy: -1146.31106368695100
    Total Energy =                      -1146.3110636869512291
  Basis Set: 6-31G*
  Basis Set:
  @DF-RHF Final Energy: -1146.31109133646760
    Total Energy =                      -1146.3110913364680528
  Basis Set: 6-31G*
  Basis Set:
  Basis Set: 6-31G*
  Basis Set:
  @DF-RHF Final Energy: -1146.31109439097554
    Total Energy =                      -1146.3110943909750858
  Basis Set: 6-31G*
  Basis Set:
  Basis Set: 6-31G*
  Basis Set:
  @DF-RHF Final Energy: -1146.31109618932442
    Total Energy =                      -1146.3110961893237345
  Basis Set: 6-31G*
  Basis Set:
  Charge       = 0
  Multiplicity = 1
  Basis Set: 6-31G*
  Basis Set:

    Orbital Energies (a.u.)
    -----------------------

    Doubly Occupied:

       1A   -104.853772     2A    -26.364254     3A    -26.362072
       4A    -26.361444     5A    -26.344466     6A    -26.342722
       7A    -20.651107     8A    -11.533325     9A    -11.488982
      10A    -11.409354    11A    -10.588564    12A     -8.057859
      13A     -8.054451    14A     -8.054285    15A     -1.765493
      16A     -1.715581    17A     -1.661818    18A     -1.660253
      19A     -1.638756    20A     -1.490455    21A     -1.183082
      22A     -1.060358    23A     -0.983268    24A     -0.928441
      25A     -0.862089    26A     -0.857185    27A     -0.849672
      28A     -0.821751    29A     -0.814293    30A     -0.791213
      31A     -0.731600    32A     -0.727914    33A     -0.699102
      34A     -0.689551    35A     -0.686189    36A     -0.676420
      37A     -0.667669    38A     -0.661507    39A     -0.657626
      40A     -0.640762    41A     -0.602439    42A     -0.570472
      43A     -0.522404    44A     -0.488551    45A     -0.479084

  @DF-RHF Final Energy: -1146.31109644018261

   => Energetics <=

    Nuclear Repulsion Energy =            726.6181513660038718
    One-Electron Energy =               -3035.7551907802558162
    Two-Electron Energy =                1162.8259429740685391
    DFT Exchange-Correlation Energy =       0.0000000000000000
    Empirical Dispersion Energy =           0.0000000000000000
    PCM Polarization Energy =               0.0000000000000000
    EFP Energy =                            0.0000000000000000
    Total Energy =                      -1146.3110964401832916
    Molecular point group: c1
  Basis Set: 6-31G*
  Basis Set:

  -Total Gradient:
     Atom            X                  Y                   Z
    ------   -----------------  -----------------  -----------------
       1       -0.000011414443    -0.000015288347    -0.000010904999
       2       -0.000272759710     0.001200888618    -0.001574332816
       3       -0.001038214812     0.002560659808    -0.000829416276
       4        0.000497947785    -0.001661665542     0.001552991308
       5       -0.000017434224    -0.000015771113    -0.000010289170
       6        0.000830235997    -0.002069303781     0.000877148752
       7       -0.000012330406    -0.000031803186     0.000001247840
       8       -0.000005816122    -0.000001814666    -0.000004542964
       9       -0.000013024007    -0.000010342703    -0.000002169542
      10        0.000010128478     0.000019557557    -0.000019760570
      11        0.000018536530     0.000001793639     0.000022215824
      12        0.000014144938     0.000023089781    -0.000002187449

  **** Optimization is complete! (in 9 steps) ****
    Final optimized geometry and variables:
    Molecular point group: c1

    Geometry (in Angstrom), charge = 0, multiplicity = 1:

    H           -1.925856467918    -1.533635961790    -0.080568764668
    C           -1.544107647680    -1.028405092747    -0.951429632057
    O           -0.327066814598    -0.454584888377    -0.738230227230
    F           -1.400415475140    -1.886883288569    -1.937448297706
    F           -2.418096251609    -0.096744379016    -1.321970284136
    C           -0.116766646495     0.144724852610     0.477425175765
    C            1.057968761061     1.099110777595     0.297253768142
    CL           0.236696613476    -1.048184358105     1.753302573386
    H           -0.968645550484     0.718442439062     0.807224521925
    F            1.309428366125     1.725906877427     1.426877318199
    F            0.740706683176     1.999965457464    -0.608053210151
    F            2.142429942375     0.476955355489    -0.091954339828

  Mulliken Charges: (a.u.)
   Center  Symbol    Alpha    Beta     Spin     Total
       1     H     0.41564  0.41564  0.00000  0.16872
       2     C     2.56845  2.56845  0.00000  0.86311
       3     O     4.29586  4.29586  0.00000 -0.59171
       4     F     4.67027  4.67027  0.00000 -0.34054
       5     F     4.68208  4.68208  0.00000 -0.36417
       6     C     3.04179  3.04179  0.00000 -0.08357
       7     C     2.42949  2.42949  0.00000  1.14102
       8    CL     8.50915  8.50915  0.00000 -0.01830
       9     H     0.37236  0.37236  0.00000  0.25528
      10     F     4.67465  4.67465  0.00000 -0.34930
      11     F     4.67358  4.67358  0.00000 -0.34716
      12     F     4.66668  4.66668  0.00000 -0.33336

   Total alpha = 45.00000, Total beta = 45.00000, Total charge =  0.00000
