  ==> Input File <==

--------------------------------------------------------------------------
set {
	reference rhf
	basis 6-31G*
}

set_num_threads( 4 )
memory 2 gb

molecule MOL {
0 1

H	 1.308201	 -2.561167	 -1.788359
C	 1.257980	 -1.532759	 -1.441814
C	 0.136991	 -1.370689	 -0.419935
H	 1.079467	 -0.889054	 -2.295945
H	 2.229016	 -1.278675	 -1.030640
N	 -0.000257	 -0.000071	 0.054619
H	 -0.792336	 -1.663219	 -0.892327
H	 0.285204	 -2.063782	 0.413337
C	 -1.363055	 0.315058	 0.462241
C	 0.980064	 0.336181	 1.078612
C	 -2.412078	 -0.285320	 -0.468531
H	 -1.482241	 1.391144	 0.451970
H	 -1.549931	 -0.001174	 1.492681
C	 1.331962	 1.820475	 1.095347
H	 1.886689	 -0.220967	 0.879184
H	 0.640740	 0.019273	 2.069176
H	 -2.262839	 0.075384	 -1.480151
H	 -2.369300	 -1.368867	 -0.491760
H	 -3.410332	 -0.003975	 -0.144961
H	 1.724487	 2.121302	 0.130432
H	 0.472162	 2.444513	 1.314144
H	 2.084186	 2.022450	 1.852771

	symmetry c1
}
set optking {
	frozen_dihedral = ("
		3 6 9 11
	")
}

ee = optimize('scf')
oeprop('DIPOLE', 'QUADRUPOLE', 'MULLIKEN_CHARGES')
f=open( 'psi4out.xyz', 'w' )
f.write( "22  " )
f.write( str(ee) + "\n" )
f.write( MOL.save_string_xyz() )
f.close()
--------------------------------------------------------------------------

    Molecular point group: c1
  Charge       = 0
  Multiplicity = 1
  Basis Set: 6-31G*
  Basis Set:
  @DF-RHF Final Energy:  -290.36089740982067
    Total Energy =                       -290.3608974098198701
    Molecular point group: c1
  Basis Set: 6-31G*
  Basis Set:
  Basis Set: 6-31G*
  Basis Set:
  @DF-RHF Final Energy:  -290.35661040578566
    Total Energy =                       -290.3566104057857729
  Basis Set: 6-31G*
  Basis Set:
  Basis Set: 6-31G*
  Basis Set:
  @DF-RHF Final Energy:  -290.36617391468417
    Total Energy =                       -290.3661739146842820
  Basis Set: 6-31G*
  Basis Set:
  Basis Set: 6-31G*
  Basis Set:
  @DF-RHF Final Energy:  -290.36777291772370
    Total Energy =                       -290.3677729177235278
  Basis Set: 6-31G*
  Basis Set:
  @DF-RHF Final Energy:  -290.36789941211669
    Total Energy =                       -290.3678994121166284
  @DF-RHF Final Energy:  -290.36799705757164
    Total Energy =                       -290.3679970575717562
  @DF-RHF Final Energy:  -290.36801878099243
    Total Energy =                       -290.3680187809928839
  Basis Set: 6-31G*
  Basis Set:
  @DF-RHF Final Energy:  -290.36804050008175
    Total Energy =                       -290.3680405000814631
  Basis Set: 6-31G*
  Basis Set:
  Basis Set: 6-31G*
  Basis Set:
  @DF-RHF Final Energy:  -290.36804626935742
    Total Energy =                       -290.3680462693571940
  Basis Set: 6-31G*
  Basis Set:
  Basis Set: 6-31G*
  Basis Set:
  @DF-RHF Final Energy:  -290.36804777407229
    Total Energy =                       -290.3680477740721813
  Basis Set: 6-31G*
  Basis Set:
  Charge       = 0
  Multiplicity = 1
  Basis Set: 6-31G*
  Basis Set:

    Orbital Energies (a.u.)
    -----------------------

    Doubly Occupied:

       1A    -15.536328     2A    -11.240578     3A    -11.238699
       4A    -11.238426     5A    -11.211101     6A    -11.205174
       7A    -11.204577     8A     -1.221393     9A     -1.024156
      10A     -1.022847    11A     -0.957079    12A     -0.854699
      13A     -0.844319    14A     -0.761925    15A     -0.647439
      16A     -0.637739    17A     -0.633231    18A     -0.594890
      19A     -0.592254    20A     -0.547095    21A     -0.528913
      22A     -0.520797    23A     -0.516732    24A     -0.501199
      25A     -0.490568    26A     -0.485859    27A     -0.463576
      28A     -0.460350    29A     -0.336055

  @DF-RHF Final Energy:  -290.36804750956384

   => Energetics <=

    Nuclear Repulsion Energy =            337.4730954100489839
    One-Electron Energy =               -1060.6462858297750245
    Two-Electron Energy =                 432.8051429101619760
    DFT Exchange-Correlation Energy =       0.0000000000000000
    Empirical Dispersion Energy =           0.0000000000000000
    PCM Polarization Energy =               0.0000000000000000
    EFP Energy =                            0.0000000000000000
    Total Energy =                       -290.3680475095641214
    Molecular point group: c1
  Basis Set: 6-31G*
  Basis Set:

  -Total Gradient:
     Atom            X                  Y                   Z
    ------   -----------------  -----------------  -----------------
       1        0.000045295176    -0.000001343646     0.000004280941
       2        0.000008088203    -0.000068573515    -0.000024706903
       3       -0.000547894688     0.001021124823    -0.003186101422
       4       -0.000022485795    -0.000013168295    -0.000009409064
       5       -0.000028231975    -0.000013526475    -0.000035669282
       6        0.000635594702    -0.002670357536     0.005728686178
       7       -0.000006871847     0.000067406108     0.000029620484
       8        0.000005548477     0.000033704822    -0.000015362500
       9        0.000042725171     0.004704680047    -0.004509247674
      10        0.000126326204    -0.000213762707    -0.000045024998
      11       -0.000067959207    -0.002834924795     0.002043542444
      12       -0.000126593181    -0.000007508607     0.000062206363
      13        0.000110620559    -0.000110389182    -0.000027520479
      14       -0.000054346380    -0.000067599246     0.000015625035
      15       -0.000021584227     0.000019584031     0.000031427453
      16       -0.000033361674     0.000053939778    -0.000018593707
      17        0.000025765762    -0.000009921242    -0.000029547346
      18       -0.000025484303     0.000104270902    -0.000009024488
      19       -0.000073839452    -0.000006923969    -0.000004855662
      20        0.000003183929    -0.000000775074     0.000014229824
      21       -0.000026436800     0.000003683983    -0.000012153472
      22        0.000031941344     0.000010379793    -0.000002401725

  **** Optimization is complete! (in 11 steps) ****
    Final optimized geometry and variables:
    Molecular point group: c1

    Geometry (in Angstrom), charge = 0, multiplicity = 1:

    H            1.393976612860    -2.497529509877    -1.828543398526
    C            1.369746144667    -1.481811310718    -1.443881411231
    C            0.185606998967    -1.315228520176    -0.493022007281
    H            1.272512844607    -0.799251095428    -2.280970790353
    H            2.325244853872    -1.295247062260    -0.967623318859
    N            0.020964232424     0.053962283350    -0.029167378596
    H           -0.699292131949    -1.605203626032    -1.037092037154
    H            0.279921915268    -2.018944235199     0.341077992688
    C           -1.320720459093     0.444243759282     0.389864170700
    C            1.017526389066     0.437981350252     0.956576202003
    C           -2.470450032877    -0.083812796410    -0.463798157868
    H           -1.365542623338     1.526115416856     0.377110667536
    H           -1.505920438481     0.141229751857     1.426794352201
    C            1.201966317314     1.947832092537     1.089852222543
    H            1.967798077968     0.014589631830     0.661466902141
    H            0.780681047438     0.011446513709     1.937427547455
    H           -2.297579135258     0.101955086361    -1.519162471885
    H           -2.644663064215    -1.143759198352    -0.324411789649
    H           -3.382715039802     0.431999772025    -0.180270217422
    H            1.392348729081     2.390423459280     0.117995322409
    H            0.336984594212     2.437375656307     1.522441978968
    H            2.049334084431     2.159840998928     1.735244870750

  Mulliken Charges: (a.u.)
   Center  Symbol    Alpha    Beta     Spin     Total
       1     H     0.42308  0.42308  0.00000  0.15384
       2     C     3.23774  3.23774  0.00000 -0.47548
       3     C     3.05591  3.05591  0.00000 -0.11183
       4     H     0.41523  0.41523  0.00000  0.16954
       5     H     0.42126  0.42126  0.00000  0.15749
       6     N     3.79239  3.79239  0.00000 -0.58477
       7     H     0.41362  0.41362  0.00000  0.17275
       8     H     0.43520  0.43520  0.00000  0.12959
       9     C     3.04350  3.04350  0.00000 -0.08699
      10     C     3.05453  3.05453  0.00000 -0.10906
      11     C     3.25527  3.25527  0.00000 -0.51054
      12     H     0.41598  0.41598  0.00000  0.16804
      13     H     0.43679  0.43679  0.00000  0.12642
      14     C     3.24252  3.24252  0.00000 -0.48505
      15     H     0.41758  0.41758  0.00000  0.16485
      16     H     0.43425  0.43425  0.00000  0.13149
      17     H     0.41426  0.41426  0.00000  0.17148
      18     H     0.41797  0.41797  0.00000  0.16406
      19     H     0.41687  0.41687  0.00000  0.16627
      20     H     0.41442  0.41442  0.00000  0.17117
      21     H     0.42009  0.42009  0.00000  0.15983
      22     H     0.42154  0.42154  0.00000  0.15692

   Total alpha = 29.00000, Total beta = 29.00000, Total charge =  0.00000
