  ==> Input File <==

--------------------------------------------------------------------------
set {
	reference rhf
	basis 6-31G*
}

set_num_threads( 4 )
memory 2 gb

molecule MOL {
0 1

H	 -2.322399	 -0.292606	 3.272521
C	 -2.335815	 -0.523717	 2.225110
C	 -1.210634	 -0.564374	 1.549600
H	 -3.281125	 -0.717494	 1.754205
O	 -1.180634	 -0.819263	 0.215062
H	 -0.253058	 -0.380495	 2.003949
C	 0.051604	 -1.018856	 -0.387932
C	 1.043764	 0.054862	 -0.001873
H	 -0.017620	 -1.041351	 -1.469781
H	 0.437898	 -1.966374	 -0.042284
F	 2.212596	 -0.199467	 -0.571921
F	 0.652529	 1.252447	 -0.405055
F	 1.230877	 0.110694	 1.300533

	symmetry c1
}
set optking {
	frozen_dihedral = ("
		3 5 7 9
	")
}

ee = optimize('scf')
oeprop('DIPOLE', 'QUADRUPOLE', 'MULLIKEN_CHARGES')
f=open( 'psi4out.xyz', 'w' )
f.write( "13  " )
f.write( str(ee) + "\n" )
f.write( MOL.save_string_xyz() )
f.close()
--------------------------------------------------------------------------

    Molecular point group: c1
  Charge       = 0
  Multiplicity = 1
  Basis Set: 6-31G*
  Basis Set:
  @DF-RHF Final Energy:  -527.51560147147916
    Total Energy =                       -527.5156014714791581
    Molecular point group: c1
  Basis Set: 6-31G*
  Basis Set:
  Basis Set: 6-31G*
  Basis Set:
  @DF-RHF Final Energy:  -527.52799039574018
    Total Energy =                       -527.5279903957398346
  Basis Set: 6-31G*
  Basis Set:
  Basis Set: 6-31G*
  Basis Set:
  @DF-RHF Final Energy:  -527.53093619779008
    Total Energy =                       -527.5309361977899698
  Basis Set: 6-31G*
  Basis Set:
  Basis Set: 6-31G*
  Basis Set:
  @DF-RHF Final Energy:  -527.53182299353352
    Total Energy =                       -527.5318229935335239
  Basis Set: 6-31G*
  Basis Set:
  @DF-RHF Final Energy:  -527.53223468050760
    Total Energy =                       -527.5322346805073721
  @DF-RHF Final Energy:  -527.53236310006594
    Total Energy =                       -527.5323631000660498
  @DF-RHF Final Energy:  -527.53240958838978
    Total Energy =                       -527.5324095883901236
  Basis Set: 6-31G*
  Basis Set:
  @DF-RHF Final Energy:  -527.53243061363685
    Total Energy =                       -527.5324306136373025
  Basis Set: 6-31G*
  Basis Set:
  Basis Set: 6-31G*
  Basis Set:
  @DF-RHF Final Energy:  -527.53244157424479
    Total Energy =                       -527.5324415742452402
  Basis Set: 6-31G*
  Basis Set:
  Basis Set: 6-31G*
  Basis Set:
  @DF-RHF Final Energy:  -527.53244324882121
    Total Energy =                       -527.5324432488212096
  Basis Set: 6-31G*
  Basis Set:
  Charge       = 0
  Multiplicity = 1
  Basis Set: 6-31G*
  Basis Set:

    Orbital Energies (a.u.)
    -----------------------

    Doubly Occupied:

       1A    -26.345409     2A    -26.345353     3A    -26.342473
       4A    -20.604428     5A    -11.505295     6A    -11.317936
       7A    -11.295708     8A    -11.217631     9A     -1.743507
      10A     -1.640828    11A     -1.640254    12A     -1.432952
      13A     -1.081724    14A     -1.017986    15A     -0.926502
      16A     -0.836821    17A     -0.831715    18A     -0.828461
      19A     -0.778859    20A     -0.719327    21A     -0.712236
      22A     -0.693362    23A     -0.677557    24A     -0.662307
      25A     -0.656056    26A     -0.644588    27A     -0.637278
      28A     -0.593014    29A     -0.562372    30A     -0.520715
      31A     -0.496477    32A     -0.355627

  @DF-RHF Final Energy:  -527.53244277462341

   => Energetics <=

    Nuclear Repulsion Energy =            417.4704552415205967
    One-Electron Energy =               -1558.6762777302967606
    Two-Electron Energy =                 613.6733797141521336
    DFT Exchange-Correlation Energy =       0.0000000000000000
    Empirical Dispersion Energy =           0.0000000000000000
    PCM Polarization Energy =               0.0000000000000000
    EFP Energy =                            0.0000000000000000
    Total Energy =                       -527.5324427746240872
    Molecular point group: c1
  Basis Set: 6-31G*
  Basis Set:

  -Total Gradient:
     Atom            X                  Y                   Z
    ------   -----------------  -----------------  -----------------
       1       -0.000000472773     0.000007857940     0.000005175911
       2       -0.000017797426     0.000007658636    -0.000001701866
       3       -0.000362624342     0.004610503163    -0.000917739868
       4       -0.000002125398     0.000000526567     0.000002546659
       5        0.000574078299    -0.005421017780     0.001363718365
       6       -0.000024061431     0.000010451696     0.000005859829
       7       -0.000089727369    -0.004715949139    -0.000289729595
       8       -0.000189874011    -0.000048295637    -0.000015058401
       9        0.000026120443     0.005487247038    -0.000173599757
      10        0.000100041159     0.000051685376    -0.000026571513
      11       -0.000042891900     0.000010788558     0.000004558194
      12        0.000035457861    -0.000021646929     0.000077862908
      13       -0.000006123106     0.000020190512    -0.000035320863

  **** Optimization is complete! (in 11 steps) ****
    Final optimized geometry and variables:
    Molecular point group: c1

    Geometry (in Angstrom), charge = 0, multiplicity = 1:

    H           -2.526553837621    -0.050890816716     2.782592743622
    C           -2.434401337556    -0.173697716382     1.720706998258
    C           -1.365752321121    -0.744811244590     1.215961942878
    H           -3.234042112319     0.172071285544     1.092840154562
    O           -1.247200568742    -0.984322143594    -0.119355595521
    H           -0.551113107055    -1.097855776110     1.822864841125
    C            0.013541128390    -0.978237816211    -0.701393548057
    C            0.811647291361     0.289572087486    -0.462070220804
    H           -0.145217173294    -1.009061835533    -1.768766356089
    H            0.618088374141    -1.822282991855    -0.387211372212
    F            1.887759333746     0.263731068685    -1.234765078176
    F            0.120025270037     1.369785104435    -0.760119322388
    F            1.231065298587     0.412343285560     0.787445121809

  Mulliken Charges: (a.u.)
   Center  Symbol    Alpha    Beta     Spin     Total
       1     H     0.40680  0.40680  0.00000  0.18639
       2     C     3.22677  3.22677  0.00000 -0.45353
       3     C     2.90746  2.90746  0.00000  0.18509
       4     H     0.40183  0.40183  0.00000  0.19633
       5     O     4.30434  4.30434  0.00000 -0.60867
       6     H     0.40392  0.40392  0.00000  0.19215
       7     C     3.04986  3.04986  0.00000 -0.09972
       8     C     2.46625  2.46625  0.00000  1.06749
       9     H     0.39054  0.39054  0.00000  0.21891
      10     H     0.40535  0.40535  0.00000  0.18930
      11     F     4.68257  4.68257  0.00000 -0.36514
      12     F     4.67424  4.67424  0.00000 -0.34848
      13     F     4.68006  4.68006  0.00000 -0.36013

   Total alpha = 32.00000, Total beta = 32.00000, Total charge = -0.00000
