  ==> Input File <==

--------------------------------------------------------------------------
set {
	reference rhf
	basis 6-31G*
}

set_num_threads( 4 )
memory 2 gb

molecule MOL {
0 1

H	 -3.892951	 0.981613	 -0.358725
C	 -3.196921	 0.361773	 0.172313
C	 -2.076860	 -0.007332	 -0.404944
H	 -3.439953	 0.057760	 1.173024
O	 -1.180634	 -0.819263	 0.215062
H	 -1.811520	 0.292194	 -1.403480
C	 0.051604	 -1.018856	 -0.387932
C	 1.043764	 0.054862	 -0.001873
H	 -0.017620	 -1.041351	 -1.469781
H	 0.437898	 -1.966374	 -0.042284
F	 0.880120	 1.109302	 -0.787483
F	 0.872942	 0.454606	 1.247469
F	 2.289334	 -0.354456	 -0.125983

	symmetry c1
}
set optking {
	frozen_dihedral = ("
		11 8 7 9
	")
}

ee = optimize('scf')
oeprop('DIPOLE', 'QUADRUPOLE', 'MULLIKEN_CHARGES')
f=open( 'psi4out.xyz', 'w' )
f.write( "13  " )
f.write( str(ee) + "\n" )
f.write( MOL.save_string_xyz() )
f.close()
--------------------------------------------------------------------------

    Molecular point group: c1
  Charge       = 0
  Multiplicity = 1
  Basis Set: 6-31G*
  Basis Set:
  @DF-RHF Final Energy:  -527.53312465984709
    Total Energy =                       -527.5331246598470898
    Molecular point group: c1
  Basis Set: 6-31G*
  Basis Set:
  Basis Set: 6-31G*
  Basis Set:
  @DF-RHF Final Energy:  -527.53389661825690
    Total Energy =                       -527.5338966182566764
  Basis Set: 6-31G*
  Basis Set:
  Basis Set: 6-31G*
  Basis Set:
  @DF-RHF Final Energy:  -527.53408564495226
    Total Energy =                       -527.5340856449525972
  Basis Set: 6-31G*
  Basis Set:
  Basis Set: 6-31G*
  Basis Set:
  @DF-RHF Final Energy:  -527.53410636048443
    Total Energy =                       -527.5341063604846568
  Basis Set: 6-31G*
  Basis Set:
  @DF-RHF Final Energy:  -527.53411428866798
    Total Energy =                       -527.5341142886676380
  Basis Set: 6-31G*
  Basis Set:
  @DF-RHF Final Energy:  -527.53412781835004
    Total Energy =                       -527.5341278183506120
  Basis Set: 6-31G*
  Basis Set:
  Basis Set: 6-31G*
  Basis Set:
  @DF-RHF Final Energy:  -527.53413261407889
    Total Energy =                       -527.5341326140787714
  Basis Set: 6-31G*
  Basis Set:
  Basis Set: 6-31G*
  Basis Set:
  @DF-RHF Final Energy:  -527.53413456552869
    Total Energy =                       -527.5341345655283476
  Basis Set: 6-31G*
  Basis Set:
  Charge       = 0
  Multiplicity = 1
  Basis Set: 6-31G*
  Basis Set:

    Orbital Energies (a.u.)
    -----------------------

    Doubly Occupied:

       1A    -26.342463     2A    -26.342136     3A    -26.341982
       4A    -20.607022     5A    -11.503121     6A    -11.318556
       7A    -11.298791     8A    -11.217278     9A     -1.741245
      10A     -1.639523    11A     -1.637087    12A     -1.437056
      13A     -1.082125    14A     -1.016470    15A     -0.924943
      16A     -0.835992    17A     -0.829250    18A     -0.821085
      19A     -0.792600    20A     -0.718685    21A     -0.711682
      22A     -0.694073    23A     -0.675651    24A     -0.660541
      25A     -0.654660    26A     -0.642363    27A     -0.635124
      28A     -0.584539    29A     -0.563729    30A     -0.522850
      31A     -0.510679    32A     -0.353340

  @DF-RHF Final Energy:  -527.53413478649463

   => Energetics <=

    Nuclear Repulsion Energy =            414.3631786012797988
    One-Electron Energy =               -1552.4813435133842177
    Two-Electron Energy =                 610.5840301256102975
    DFT Exchange-Correlation Energy =       0.0000000000000000
    Empirical Dispersion Energy =           0.0000000000000000
    PCM Polarization Energy =               0.0000000000000000
    EFP Energy =                            0.0000000000000000
    Total Energy =                       -527.5341347864941781
    Molecular point group: c1
  Basis Set: 6-31G*
  Basis Set:

  -Total Gradient:
     Atom            X                  Y                   Z
    ------   -----------------  -----------------  -----------------
       1       -0.000001969552     0.000000203900     0.000000225875
       2       -0.000002822716     0.000003238415    -0.000003760239
       3        0.000009405553     0.000015473666    -0.000001848585
       4       -0.000000473047    -0.000001782177    -0.000001142976
       5       -0.000019084841    -0.000007177809     0.000006856738
       6       -0.000003396126    -0.000000302884     0.000001018558
       7        0.005015176505    -0.003780779488    -0.000960089325
       8       -0.004040246282     0.002148271407     0.003154051655
       9       -0.003437034299     0.002770277042     0.000159069532
      10       -0.000004745285     0.000002775276     0.000004307154
      11        0.002532534721    -0.001208435106    -0.002351585915
      12       -0.000013144539     0.000031239752    -0.000007082182
      13       -0.000034200078     0.000026998008    -0.000000020293

  **** Optimization is complete! (in 9 steps) ****
    Final optimized geometry and variables:
    Molecular point group: c1

    Geometry (in Angstrom), charge = 0, multiplicity = 1:

    H           -3.791620735971     1.036461075533    -0.346059630242
    C           -3.108065373607     0.393645709263     0.173919806774
    C           -2.040491484691    -0.061465181183    -0.440138337726
    H           -3.322640712804     0.133354494152     1.193357266180
    O           -1.172969756345    -0.919402487804     0.158891456851
    H           -1.803047955718     0.192606568415    -1.458893380442
    C            0.092132045413    -1.052980778327    -0.397187455303
    C            1.018767026477     0.076062716556     0.016893627876
    H            0.040370736129    -1.057742236113    -1.480233337761
    H            0.506975320021    -1.982597526263    -0.040448812052
    F            0.837719550204     1.155938190092    -0.729668917903
    F            0.866814038621     0.418564893255     1.275740439042
    F            2.277322266584    -0.304203585191    -0.158372830633

  Mulliken Charges: (a.u.)
   Center  Symbol    Alpha    Beta     Spin     Total
       1     H     0.40681  0.40681  0.00000  0.18637
       2     C     3.23197  3.23197  0.00000 -0.46394
       3     C     2.90106  2.90106  0.00000  0.19789
       4     H     0.40127  0.40127  0.00000  0.19747
       5     O     4.30012  4.30012  0.00000 -0.60024
       6     H     0.40673  0.40673  0.00000  0.18654
       7     C     3.06651  3.06651  0.00000 -0.13303
       8     C     2.45509  2.45509  0.00000  1.08981
       9     H     0.40452  0.40452  0.00000  0.19097
      10     H     0.38852  0.38852  0.00000  0.22296
      11     F     4.68160  4.68160  0.00000 -0.36320
      12     F     4.67176  4.67176  0.00000 -0.34353
      13     F     4.68404  4.68404  0.00000 -0.36809

   Total alpha = 32.00000, Total beta = 32.00000, Total charge =  0.00000
