  ==> Input File <==

--------------------------------------------------------------------------
set {
	reference rhf
	basis cc-pvtz
}

set_num_threads( 4 )
memory 2 gb

molecule MOL {
0 1

H	 -2.073991	 1.542580	 -1.162810
C	 -1.275767	 2.123743	 -0.720873
C	 0.037661	 1.357663	 -0.749886
H	 -1.566569	 2.357341	 0.294549
H	 -1.181833	 3.051628	 -1.272334
C	 0.000000	 0.039916	 0.000014
H	 0.842056	 1.953926	 -0.327608
H	 0.339088	 1.146261	 -1.772306
C	 1.286532	 -0.763243	 0.000268
O	 -0.978999	 -0.340512	 0.554283
C	 2.547023	 0.087626	 -0.000114
H	 1.264245	 -1.421103	 -0.864380
H	 1.264290	 -1.420353	 0.865489
H	 2.584452	 0.725630	 -0.872909
H	 3.427035	 -0.544422	 0.000125
H	 2.584484	 0.726356	 0.872143

	symmetry c1
}
set optking {
	frozen_dihedral = ("
		3 6 9 12
	")
}

ee = optimize('scf')
oeprop('DIPOLE', 'QUADRUPOLE', 'MULLIKEN_CHARGES')
f=open( 'psi4out.xyz', 'w' )
f.write( "16  " )
f.write( str(ee) + "\n" )
f.write( MOL.save_string_xyz() )
f.close()
--------------------------------------------------------------------------

    Molecular point group: c1
  Charge       = 0
  Multiplicity = 1
  Basis Set: CC-PVTZ
  Basis Set:
  @DF-RHF Final Energy:  -270.12672240193996
    Total Energy =                       -270.1267224019399578
    Molecular point group: c1
  Basis Set: CC-PVTZ
  Basis Set:
  Basis Set: CC-PVTZ
  Basis Set:
  @DF-RHF Final Energy:  -270.12759712720822
    Total Energy =                       -270.1275971272083325
  Basis Set: CC-PVTZ
  Basis Set:
  Basis Set: CC-PVTZ
  Basis Set:
  @DF-RHF Final Energy:  -270.12834394805327
    Total Energy =                       -270.1283439480533843
  Basis Set: CC-PVTZ
  Basis Set:
  Basis Set: CC-PVTZ
  Basis Set:
  @DF-RHF Final Energy:  -270.12841144570365
    Total Energy =                       -270.1284114457035912
  Basis Set: CC-PVTZ
  Basis Set:
  Basis Set: CC-PVTZ
  Basis Set:
  @DF-RHF Final Energy:  -270.12828081664691
    Total Energy =                       -270.1282808166470772
  Basis Set: CC-PVTZ
  Basis Set:
  Basis Set: CC-PVTZ
  Basis Set:
  @DF-RHF Final Energy:  -270.12843943217024
    Total Energy =                       -270.1284394321700120
  Basis Set: CC-PVTZ
  Basis Set:
  Charge       = 0
  Multiplicity = 1
  Basis Set: CC-PVTZ
  Basis Set:

    Orbital Energies (a.u.)
    -----------------------

    Doubly Occupied:

       1A    -20.536380     2A    -11.317847     3A    -11.232255
       4A    -11.231548     5A    -11.226351     6A    -11.211332
       7A     -1.397225     8A     -1.073712     9A     -1.036071
      10A     -0.908853    11A     -0.866847    12A     -0.723701
      13A     -0.659897    14A     -0.644086    15A     -0.633544
      16A     -0.609608    17A     -0.556002    18A     -0.543861
      19A     -0.536613    20A     -0.511410    21A     -0.507571
      22A     -0.499383    23A     -0.478544    24A     -0.398435

  @DF-RHF Final Energy:  -270.12843973763506

   => Energetics <=

    Nuclear Repulsion Energy =            240.9190885600429226
    One-Electron Energy =                -843.4129054431662098
    Two-Electron Energy =                 332.3653771454883099
    DFT Exchange-Correlation Energy =       0.0000000000000000
    Empirical Dispersion Energy =           0.0000000000000000
    PCM Polarization Energy =               0.0000000000000000
    EFP Energy =                            0.0000000000000000
    Total Energy =                       -270.1284397376349489
    Molecular point group: c1
  Basis Set: CC-PVTZ
  Basis Set:

  -Total Gradient:
     Atom            X                  Y                   Z
    ------   -----------------  -----------------  -----------------
       1       -0.000000203421     0.000006772784     0.000006004608
       2       -0.000009217230    -0.000018500742    -0.000040831727
       3        0.000354431495     0.000526756378     0.000955113851
       4        0.000003496324     0.000000390761     0.000008439466
       5        0.000002770388    -0.000001240958     0.000004043090
       6       -0.000625117350    -0.000911021415    -0.001153191218
       7       -0.000000181023     0.000004099006    -0.000022698544
       8       -0.000000011627    -0.000022526635    -0.000005453069
       9        0.000895725209     0.001376457881    -0.000493399356
      10       -0.000009994869    -0.000000540040    -0.000004342601
      11       -0.000007703003    -0.000009777519    -0.000008419919
      12       -0.000591390539    -0.000936730509     0.000757040579
      13        0.000000818507    -0.000008511493     0.000003936013
      14       -0.000005607939     0.000003076857     0.000000694103
      15        0.000003071387    -0.000006926252     0.000000205118
      16       -0.000010886312    -0.000001778103    -0.000007140394

  **** Optimization is complete! (in 7 steps) ****
    Final optimized geometry and variables:
    Molecular point group: c1

    Geometry (in Angstrom), charge = 0, multiplicity = 1:

    H           -2.346095811274     1.027179111661    -1.110228392322
    C           -1.619336681074     1.655477808674    -0.612447495620
    C           -0.255860432855     0.983390143497    -0.566057273574
    H           -1.988258198348     1.852394059326     0.384771963641
    H           -1.556069185235     2.595593872823    -1.147416586950
    C           -0.252839059861    -0.340363215418     0.171553579574
    H            0.473023414946     1.629486363767    -0.085852973310
    H            0.126221718533     0.810449499036    -1.568795626734
    C            1.014861277274    -1.179788219962     0.149769191877
    O           -1.217974669824    -0.737764229031     0.739562901011
    C            2.344019916535    -0.430494806700     0.115094837724
    H            0.930642170841    -1.828188380351    -0.719415909362
    H            0.964375597323    -1.828409168431     1.013915552634
    H            2.456872237076     0.165085140236    -0.781868809215
    H            3.164183307490    -1.136826360624     0.143253020120
    H            2.449785831644     0.227551561133     0.970142517593

  Mulliken Charges: (a.u.)
   Center  Symbol    Alpha    Beta     Spin     Total
       1     H     0.44872  0.44872  0.00000  0.10255
       2     C     3.14216  3.14216  0.00000 -0.28432
       3     C     3.10725  3.10725  0.00000 -0.21449
       4     H     0.44647  0.44647  0.00000  0.10706
       5     H     0.45093  0.45093  0.00000  0.09813
       6     C     2.86825  2.86825  0.00000  0.26350
       7     H     0.44304  0.44304  0.00000  0.11392
       8     H     0.44374  0.44374  0.00000  0.11252
       9     C     3.09256  3.09256  0.00000 -0.18511
      10     O     4.17468  4.17468  0.00000 -0.34936
      11     C     3.15862  3.15862  0.00000 -0.31725
      12     H     0.44604  0.44604  0.00000  0.10793
      13     H     0.43622  0.43622  0.00000  0.12757
      14     H     0.45125  0.45125  0.00000  0.09749
      15     H     0.44130  0.44130  0.00000  0.11740
      16     H     0.44876  0.44876  0.00000  0.10247

   Total alpha = 24.00000, Total beta = 24.00000, Total charge = -0.00000
