  ==> Input File <==

--------------------------------------------------------------------------
set {
	reference rhf
	basis 6-31G*
}

set_num_threads( 1 )
memory 2 gb

molecule MOL {
0 1

O	 1.846825	 1.296220	 0.000415
C	 1.705091	 0.115954	 0.001797
C	 0.381791	 -0.609817	 0.001258
O	 2.721346	 -0.737485	 -0.000216
C	 -0.823008	 0.326187	 0.001381
H	 0.371250	 -1.265087	 -0.865474
H	 0.370908	 -1.265746	 0.867490
C	 -0.419142	 1.792056	 0.166255
H	 -1.499705	 0.037880	 0.799597
H	 -1.375919	 0.197539	 -0.923847
C	 -1.615688	 2.745013	 0.169436
H	 0.137999	 1.913852	 1.094024
H	 0.261240	 2.074402	 -0.635769
C	 -1.211443	 4.209626	 0.332980
H	 -2.295088	 2.465883	 0.971710
H	 -2.172747	 2.625154	 -0.757093
H	 -0.681863	 4.368442	 1.268147
H	 -2.080786	 4.859774	 0.331133
H	 -0.558125	 4.528859	 -0.474223
C	 4.024888	 -0.184556	 -0.001949
H	 4.179030	 0.422472	 -0.882452
H	 4.701782	 -1.024608	 -0.003642
H	 4.181981	 0.421185	 0.878906

	symmetry c1
}
set optking {
	frozen_dihedral = ("
		15 11 8 12,
		9 5 8 12,
		1 2 3 6,
		1 2 4 20
	")
}

ee = energy('scf')
oeprop('DIPOLE', 'QUADRUPOLE', 'MULLIKEN_CHARGES')
f=open( 'psi4out.xyz', 'w' )
f.write( "23  " )
f.write( str(ee) + "\n" )
f.write( MOL.save_string_xyz() )
f.close()
--------------------------------------------------------------------------

    Molecular point group: c1

    Geometry (in Angstrom), charge = 0, multiplicity = 1:

       Center              X                  Y                   Z               Mass
    ------------   -----------------  -----------------  -----------------  -----------------
           O          1.069380629150     0.295525042093    -0.074440407706    15.994914619560
           C          0.927646629150    -0.884740957907    -0.073058407706    12.000000000000
           C         -0.395653370850    -1.610511957907    -0.073597407706    12.000000000000
           O          1.943901629150    -1.738179957907    -0.075071407706    15.994914619560
           C         -1.600452370850    -0.674507957907    -0.073474407706    12.000000000000
           H         -0.406194370850    -2.265781957907    -0.940329407706     1.007825032070
           H         -0.406536370850    -2.266440957907     0.792634592294     1.007825032070
           C         -1.196586370850     0.791361042093     0.091399592294    12.000000000000
           H         -2.277149370850    -0.962814957907     0.724741592294     1.007825032070
           H         -2.153363370850    -0.803155957907    -0.998702407706     1.007825032070
           C         -2.393132370850     1.744318042093     0.094580592294    12.000000000000
           H         -0.639445370850     0.913157042093     1.019168592294     1.007825032070
           H         -0.516204370850     1.073707042093    -0.710624407706     1.007825032070
           C         -1.988887370850     3.208931042093     0.258124592294    12.000000000000
           H         -3.072532370850     1.465188042093     0.896854592294     1.007825032070
           H         -2.950191370850     1.624459042093    -0.831948407706     1.007825032070
           H         -1.459307370850     3.367747042093     1.193291592294     1.007825032070
           H         -2.858230370850     3.859079042093     0.256277592294     1.007825032070
           H         -1.335569370850     3.528164042093    -0.549078407706     1.007825032070
           C          3.247443629150    -1.185250957907    -0.076804407706    12.000000000000
           H          3.401585629150    -0.578222957907    -0.957307407706     1.007825032070
           H          3.924337629150    -2.025302957907    -0.078497407706     1.007825032070
           H          3.404536629150    -0.579509957907     0.804050592294     1.007825032070

  Charge       = 0
  Multiplicity = 1
  Basis Set: 6-31G*
  Basis Set:

    Orbital Energies (a.u.)
    -----------------------

    Doubly Occupied:

       1A    -20.605696     2A    -20.541258     3A    -11.375920
       4A    -11.282604     5A    -11.236386     6A    -11.216761
       7A    -11.198174     8A    -11.196195     9A    -11.188634
      10A     -1.473060    11A     -1.369437    12A     -1.085874
      13A     -1.035061    14A     -0.984714    15A     -0.923548
      16A     -0.838895    17A     -0.790805    18A     -0.770413
      19A     -0.696952    20A     -0.687184    21A     -0.667269
      22A     -0.642450    23A     -0.605190    24A     -0.600352
      25A     -0.556242    26A     -0.550838    27A     -0.548020
      28A     -0.530503    29A     -0.525049    30A     -0.513338
      31A     -0.477781    32A     -0.472751    33A     -0.466616
      34A     -0.442130    35A     -0.434673    36A     -0.399051

  @DF-RHF Final Energy:  -422.93679220899821

   => Energetics <=

    Nuclear Repulsion Energy =            475.3809171438749672
    One-Electron Energy =               -1518.7755736538467772
    Two-Electron Energy =                 620.4578643009745065
    DFT Exchange-Correlation Energy =       0.0000000000000000
    Empirical Dispersion Energy =           0.0000000000000000
    PCM Polarization Energy =               0.0000000000000000
    EFP Energy =                            0.0000000000000000
    Total Energy =                       -422.9367922089973035

  Mulliken Charges: (a.u.)
   Center  Symbol    Alpha    Beta     Spin     Total
       1     O     4.28393  4.28393  0.00000 -0.56785
       2     C     2.60658  2.60658  0.00000  0.78685
       3     C     3.21215  3.21215  0.00000 -0.42430
       4     O     4.30732  4.30732  0.00000 -0.61465
       5     C     3.15802  3.15802  0.00000 -0.31603
       6     H     0.39632  0.39632  0.00000  0.20736
       7     H     0.39666  0.39666  0.00000  0.20669
       8     C     3.15064  3.15064  0.00000 -0.30128
       9     H     0.41811  0.41811  0.00000  0.16378
      10     H     0.41816  0.41816  0.00000  0.16368
      11     C     3.14721  3.14721  0.00000 -0.29442
      12     H     0.41976  0.41976  0.00000  0.16048
      13     H     0.40113  0.40113  0.00000  0.19775
      14     C     3.23707  3.23707  0.00000 -0.47413
      15     H     0.43079  0.43079  0.00000  0.13842
      16     H     0.42947  0.42947  0.00000  0.14107
      17     H     0.42273  0.42273  0.00000  0.15454
      18     H     0.42307  0.42307  0.00000  0.15387
      19     H     0.42196  0.42196  0.00000  0.15608
      20     C     3.09242  3.09242  0.00000 -0.18484
      21     H     0.40929  0.40929  0.00000  0.18142
      22     H     0.40806  0.40806  0.00000  0.18389
      23     H     0.40919  0.40919  0.00000  0.18163

   Total alpha = 36.00000, Total beta = 36.00000, Total charge =  0.00000
