  ==> Input File <==

--------------------------------------------------------------------------
set {
	reference rhf
	basis cc-pvtz
}

set_num_threads( 4 )
memory 2 gb

molecule MOL {
0 1

O	 1.579165	 -0.320380	 -0.438101
C	 0.576499	 0.134701	 -0.003900
C	 -0.765656	 -0.550508	 -0.002152
O	 0.502441	 1.337700	 0.541336
C	 -1.945526	 0.411052	 0.000603
H	 -0.794329	 -1.203792	 -0.868145
H	 -0.791555	 -1.205429	 0.862701
C	 -3.282915	 -0.321280	 0.002596
H	 -1.880300	 1.059126	 -0.864925
H	 -1.877207	 1.057892	 0.866807
H	 -3.388495	 -0.952755	 -0.873419
H	 -4.107811	 0.380864	 0.004116
H	 -3.385717	 -0.953283	 0.878571
C	 1.692924	 2.097413	 0.601316
H	 2.442810	 1.585124	 1.185511
H	 1.426836	 3.029756	 1.072084
H	 2.080548	 2.277445	 -0.390338

	symmetry c1
}
set optking {
	frozen_dihedral = ("
		1 2 3 6
	")
}

ee = optimize('scf')
oeprop('DIPOLE', 'QUADRUPOLE', 'MULLIKEN_CHARGES')
f=open( 'psi4out.xyz', 'w' )
f.write( "17  " )
f.write( str(ee) + "\n" )
f.write( MOL.save_string_xyz() )
f.close()
--------------------------------------------------------------------------

    Molecular point group: c1
  Charge       = 0
  Multiplicity = 1
  Basis Set: CC-PVTZ
  Basis Set:
  @DF-RHF Final Energy:  -345.03220691332950
    Total Energy =                       -345.0322069133296168
    Molecular point group: c1
  Basis Set: CC-PVTZ
  Basis Set:
  Basis Set: CC-PVTZ
  Basis Set:
  @DF-RHF Final Energy:  -345.03157379175980
    Total Energy =                       -345.0315737917595698
  Basis Set: CC-PVTZ
  Basis Set:
  Basis Set: CC-PVTZ
  Basis Set:
  @DF-RHF Final Energy:  -345.03257146243880
    Total Energy =                       -345.0325714624386819
  Basis Set: CC-PVTZ
  Basis Set:
  Basis Set: CC-PVTZ
  Basis Set:
  @DF-RHF Final Energy:  -345.03322914048113
    Total Energy =                       -345.0332291404811258
  Basis Set: CC-PVTZ
  Basis Set:
  Basis Set: CC-PVTZ
  Basis Set:
  @DF-RHF Final Energy:  -345.03324218572214
    Total Energy =                       -345.0332421857217469
  Basis Set: CC-PVTZ
  Basis Set:
  Basis Set: CC-PVTZ
  Basis Set:
  @DF-RHF Final Energy:  -345.03324391287418
    Total Energy =                       -345.0332439128743545
  Basis Set: CC-PVTZ
  Basis Set:
  Charge       = 0
  Multiplicity = 1
  Basis Set: CC-PVTZ
  Basis Set:

    Orbital Energies (a.u.)
    -----------------------

    Doubly Occupied:

       1A    -20.598952     2A    -20.530979     3A    -11.364885
       4A    -11.279524     5A    -11.234365     6A    -11.225534
       7A    -11.215420     8A     -1.473405     9A     -1.364654
      10A     -1.084470    11A     -0.998803    12A     -0.943739
      13A     -0.832240    14A     -0.776982    15A     -0.698982
      16A     -0.686143    17A     -0.675209    18A     -0.639312
      19A     -0.597455    20A     -0.574378    21A     -0.557611
      22A     -0.536026    23A     -0.525290    24A     -0.516229
      25A     -0.490428    26A     -0.483162    27A     -0.458053
      28A     -0.434191

  @DF-RHF Final Energy:  -345.03324403198241

   => Energetics <=

    Nuclear Repulsion Energy =            314.8121734974424157
    One-Electron Energy =               -1094.0979930474045432
    Two-Electron Energy =                 434.2525755179794373
    DFT Exchange-Correlation Energy =       0.0000000000000000
    Empirical Dispersion Energy =           0.0000000000000000
    PCM Polarization Energy =               0.0000000000000000
    EFP Energy =                            0.0000000000000000
    Total Energy =                       -345.0332440319826333
    Molecular point group: c1
  Basis Set: CC-PVTZ
  Basis Set:

  -Total Gradient:
     Atom            X                  Y                   Z
    ------   -----------------  -----------------  -----------------
       1        0.000161885409    -0.000333945094     0.000810886884
       2       -0.000302200941     0.000561654200    -0.001275594895
       3        0.000464887335    -0.000881612051     0.000928213946
       4        0.000004756117     0.000040716463     0.000020701752
       5        0.000000260319     0.000001508870    -0.000015654190
       6       -0.000320450907     0.000624939374    -0.000478967330
       7        0.000003423855    -0.000005390032     0.000009323564
       8        0.000001207795    -0.000002775690     0.000012461843
       9        0.000000743944     0.000007718017    -0.000006099153
      10       -0.000002424718    -0.000004040820    -0.000003730388
      11        0.000001013107     0.000005715990    -0.000002694987
      12        0.000005671632     0.000000288172     0.000002475977
      13       -0.000001729671    -0.000005840885     0.000000981052
      14       -0.000019422288    -0.000010946470    -0.000004437050
      15        0.000001056232    -0.000000577824     0.000001009115
      16       -0.000000462913     0.000001300977     0.000001244202
      17        0.000001785692     0.000001286804    -0.000000120342

  **** Optimization is complete! (in 7 steps) ****
    Final optimized geometry and variables:
    Molecular point group: c1

    Geometry (in Angstrom), charge = 0, multiplicity = 1:

    O            1.759641477002    -0.745878197905    -0.541795443681
    C            0.777430509784    -0.242697630678    -0.111583251875
    C           -0.569062564024    -0.925512151286    -0.089761474316
    O            0.763925368334     0.959423661898     0.435388248983
    C           -1.792820990713    -0.013428267644    -0.097732054947
    H           -0.581911203035    -1.596144919993    -0.938490632977
    H           -0.574328315965    -1.549503219108     0.799780314387
    C           -3.092663969847    -0.810316176652    -0.125839639271
    H           -1.749817823031     0.640921465461    -0.962291784199
    H           -1.775007899065     0.628534777987     0.773228066296
    H           -3.151437212981    -1.438449859838    -1.008216838490
    H           -3.951362536192    -0.149787488390    -0.132254982005
    H           -3.177048784652    -1.453950645644     0.743538262501
    C            1.992315857346     1.656589304542     0.497029040187
    H            2.713412816518     1.105686144748     1.082201678019
    H            1.774217196045     2.601873175781     0.966869243854
    H            2.389914051131     1.814831758703    -0.494236539348

  Mulliken Charges: (a.u.)
   Center  Symbol    Alpha    Beta     Spin     Total
       1     O     4.20203  4.20203  0.00000 -0.40405
       2     C     2.81352  2.81352  0.00000  0.37297
       3     C     3.08379  3.08379  0.00000 -0.16758
       4     O     4.14375  4.14375  0.00000 -0.28750
       5     C     3.08333  3.08333  0.00000 -0.16667
       6     H     0.43661  0.43661  0.00000  0.12677
       7     H     0.44481  0.44481  0.00000  0.11038
       8     C     3.15218  3.15218  0.00000 -0.30436
       9     H     0.45049  0.45049  0.00000  0.09901
      10     H     0.44533  0.44533  0.00000  0.10933
      11     H     0.45396  0.45396  0.00000  0.09208
      12     H     0.44608  0.44608  0.00000  0.10785
      13     H     0.45479  0.45479  0.00000  0.09043
      14     C     3.03591  3.03591  0.00000 -0.07183
      15     H     0.45345  0.45345  0.00000  0.09310
      16     H     0.44649  0.44649  0.00000  0.10702
      17     H     0.45348  0.45348  0.00000  0.09305

   Total alpha = 28.00000, Total beta = 28.00000, Total charge =  0.00000
