                              Psi4 1.0.54 Driver

  ==> Input File <==

--------------------------------------------------------------------------
set {
	reference rhf
	basis cc-pvtz
}

set_num_threads( 4 )
memory 2 gb

molecule MOL {
0 1

H	 -2.681610	 2.419562	 0.039736
O	 -1.995938	 1.825289	 -0.202932
C	 -2.302264	 0.528872	 0.237390
C	 -1.175688	 -0.398187	 -0.171891
H	 -2.421425	 0.512322	 1.318732
H	 -3.238729	 0.189471	 -0.200413
C	 0.196029	 0.106276	 0.266738
H	 -1.201873	 -0.515469	 -1.250677
H	 -1.365975	 -1.378728	 0.252664
C	 1.330220	 -0.826136	 -0.155230
H	 0.359542	 1.097229	 -0.145561
H	 0.212134	 0.218135	 1.348778
C	 2.719700	 -0.407669	 0.328325
H	 1.339388	 -0.911200	 -1.239363
H	 1.119001	 -1.821953	 0.224128
C	 3.241564	 0.893452	 -0.276737
H	 3.418299	 -1.204729	 0.093035
H	 2.711776	 -0.323368	 1.411960
H	 3.254204	 0.841071	 -1.360784
H	 2.634460	 1.745075	 0.005842
H	 4.254264	 1.092401	 0.054971

	symmetry c1
}
set optking {
	frozen_dihedral = ("
		2 3 4 8
	")
}

ee,wfn = optimize('scf', return_wfn=True)
oeprop( wfn, 'DIPOLE', 'QUADRUPOLE', 'MULLIKEN_CHARGES')
f=open( 'psi4out.xyz', 'w' )
f.write( "21  " )
f.write( str(ee) + "\n" )
f.write( MOL.save_string_xyz() )
f.close()
--------------------------------------------------------------------------

    Molecular point group: c1
  Charge       = 0
  Multiplicity = 1
  Basis Set: CC-PVTZ
  Basis Set:
  @DF-RHF Final Energy:  -310.33212045288224
    Total Energy =                       -310.3321204528824637
    Molecular point group: c1
  Basis Set: CC-PVTZ
  Basis Set:
  Basis Set: CC-PVTZ
  Basis Set:
  @DF-RHF Final Energy:  -310.33239096574920
    Total Energy =                       -310.3323909657493687
  Basis Set: CC-PVTZ
  Basis Set:
  Basis Set: CC-PVTZ
  Basis Set:
  @DF-RHF Final Energy:  -310.33247100765260
    Total Energy =                       -310.3324710076528845
  Basis Set: CC-PVTZ
  Basis Set:
  Charge       = 0
  Multiplicity = 1
  Basis Set: CC-PVTZ
  Basis Set:

    Orbital Energies (a.u.)
    -----------------------

    Doubly Occupied:

       1A    -20.546270     2A    -11.266080     3A    -11.210601
       4A    -11.208800     5A    -11.206576     6A    -11.203533
       7A    -11.200938     8A     -1.364259     9A     -1.081908
      10A     -1.030713    11A     -0.954013    12A     -0.875904
      13A     -0.801546    14A     -0.773285    15A     -0.706655
      16A     -0.646113    17A     -0.625326    18A     -0.601874
      19A     -0.588308    20A     -0.563696    21A     -0.540431
      22A     -0.519310    23A     -0.501024    24A     -0.496007
      25A     -0.477111    26A     -0.456491    27A     -0.451450
      28A     -0.441350    29A     -0.430980

  @DF-RHF Final Energy:  -310.33247193880624

   => Energetics <=

    Nuclear Repulsion Energy =            318.1130470153775036
    One-Electron Energy =               -1051.3499287902423021
    Two-Electron Energy =                 422.9044098360583348
    DFT Exchange-Correlation Energy =       0.0000000000000000
    Empirical Dispersion Energy =           0.0000000000000000
    PCM Polarization Energy =               0.0000000000000000
    EFP Energy =                            0.0000000000000000
    Total Energy =                       -310.3324719388064068
    Molecular point group: c1
  Basis Set: CC-PVTZ
  Basis Set:

  -Total Gradient:
     Atom            X                  Y                   Z
    ------   -----------------  -----------------  -----------------
       1       -0.000013953350     0.000023184286     0.000004164860
       2        0.001052605607     0.000423967480     0.001933200575
       3       -0.001779441895    -0.001138424347    -0.002448193856
       4        0.002436840385     0.003036811267     0.000164450341
       5        0.000008797772     0.000007722587     0.000024319071
       6        0.000024180589    -0.000004266342    -0.000024491957
       7        0.000051060963     0.000047149841    -0.000081052068
       8       -0.001699211875    -0.002313458776     0.000368121763
       9       -0.000027720602    -0.000055038612     0.000017415304
      10       -0.000059014057    -0.000051054640     0.000077006721
      11        0.000069747482     0.000073973135    -0.000010357282
      12       -0.000019241829    -0.000033783191    -0.000013624895
      13        0.000021912992    -0.000044903978    -0.000065503835
      14        0.000000495760    -0.000008505321     0.000017031709
      15       -0.000037758724    -0.000002332443     0.000016710410
      16       -0.000023282029     0.000015285146     0.000014058612
      17        0.000040540225    -0.000019819201    -0.000027031808
      18        0.000012148737    -0.000022687946     0.000022609840
      19        0.000018856677    -0.000014234513     0.000000725479
      20       -0.000078299187     0.000057384298    -0.000006965357
      21        0.000000736355     0.000023031276     0.000017406373

  **** Optimization is complete! (in 4 steps) ****
    Final optimized geometry and variables:
    Molecular point group: c1

    Geometry (in Angstrom), charge = 0, multiplicity = 1:

    H           -3.005034380531     2.129358369790     0.038176870956
    O           -2.295490707877     1.563909861521    -0.204071159202
    C           -2.543931591123     0.258173951297     0.248037071547
    C           -1.403936106985    -0.651356786357    -0.172008575210
    H           -2.633767785532     0.251419563832     1.332825383643
    H           -3.477824657480    -0.117557197812    -0.161628845247
    C           -0.023468888597    -0.168286100691     0.261072489025
    H           -1.439265329369    -0.789448084215    -1.248721332223
    H           -1.598415850126    -1.630815275987     0.259506546476
    C            1.087139133335    -1.136609338397    -0.141125263481
    H            0.155772810902     0.809699807341    -0.163910318527
    H           -0.013871495055    -0.041911519152     1.342020108878
    C            2.486260767808    -0.735855404882     0.330031580233
    H            1.093473634216    -1.245125468246    -1.223480969997
    H            0.857845823215    -2.120564290411     0.259899528859
    C            3.028437536007     0.544372906829    -0.301095334722
    H            3.170115779093    -1.549685271896     0.108037788099
    H            2.483087299324    -0.630552962700     1.411930959403
    H            3.043688311534     0.467827784153    -1.383659775937
    H            2.431423130144     1.409552335275    -0.040041969188
    H            4.042953061657     0.736094208294     0.029815147464

  Mulliken Charges: (a.u.)
   Center  Symbol    Alpha    Beta     Spin     Total
       1     H     0.39608  0.39608  0.00000  0.20784
       2     O     4.19727  4.19727  0.00000 -0.39454
       3     C     2.97461  2.97461  0.00000  0.05078
       4     C     3.09198  3.09198  0.00000 -0.18396
       5     H     0.47317  0.47317  0.00000  0.05367
       6     H     0.46555  0.46555  0.00000  0.06890
       7     C     3.09097  3.09097  0.00000 -0.18195
       8     H     0.45277  0.45277  0.00000  0.09446
       9     H     0.45551  0.45551  0.00000  0.08897
      10     C     3.09459  3.09459  0.00000 -0.18919
      11     H     0.44013  0.44013  0.00000  0.11974
      12     H     0.45886  0.45886  0.00000  0.08228
      13     C     3.08956  3.08956  0.00000 -0.17911
      14     H     0.45443  0.45443  0.00000  0.09114
      15     H     0.45177  0.45177  0.00000  0.09647
      16     C     3.15201  3.15201  0.00000 -0.30403
      17     H     0.44963  0.44963  0.00000  0.10073
      18     H     0.45573  0.45573  0.00000  0.08855
      19     H     0.45526  0.45526  0.00000  0.08949
      20     H     0.45228  0.45228  0.00000  0.09543
      21     H     0.44785  0.44785  0.00000  0.10431

   Total alpha = 29.00000, Total beta = 29.00000, Total charge =  0.00000

*** Psi4 exiting successfully. Buy a developer a beer!
