  ==> Input File <==

--------------------------------------------------------------------------
set {
	reference rhf
	basis 6-31G*
}

set_num_threads( 4 )
memory 2 gb

molecule MOL {
0 1

O	 0.391030	 1.298905	 0.000133
C	 0.503002	 0.111612	 0.000005
C	 -0.702327	 -0.811998	 -0.000075
C	 1.863306	 -0.554493	 0.000030
C	 -0.360435	 -2.261991	 -0.320669
H	 -1.182870	 -0.733944	 0.973453
H	 -1.424740	 -0.418169	 -0.712665
H	 0.339430	 -2.664464	 0.401428
H	 -1.256631	 -2.873459	 -0.306626
H	 0.095414	 -2.345890	 -1.299639
H	 1.974395	 -1.189404	 -0.874166
H	 2.638695	 0.198920	 -0.000196
H	 1.974487	 -1.188655	 0.874727

	symmetry c1
}
set optking {
	frozen_dihedral = ("
		6 3 2 1
	")
}

ee = optimize('scf')
oeprop('DIPOLE', 'QUADRUPOLE', 'MULLIKEN_CHARGES')
f=open( 'psi4out.xyz', 'w' )
f.write( "13  " )
f.write( str(ee) + "\n" )
f.write( MOL.save_string_xyz() )
f.close()
--------------------------------------------------------------------------

    Molecular point group: c1
  Charge       = 0
  Multiplicity = 1
  Basis Set: 6-31G*
  Basis Set:
  @DF-RHF Final Energy:  -230.99103911061428
    Total Energy =                       -230.9910391106141674
    Molecular point group: c1
  Basis Set: 6-31G*
  Basis Set:
  Basis Set: 6-31G*
  Basis Set:
  @DF-RHF Final Energy:  -230.99238282207153
    Total Energy =                       -230.9923828220716473
  Basis Set: 6-31G*
  Basis Set:
  Basis Set: 6-31G*
  Basis Set:
  @DF-RHF Final Energy:  -230.99337743854369
    Total Energy =                       -230.9933774385434901
  Basis Set: 6-31G*
  Basis Set:
  Basis Set: 6-31G*
  Basis Set:
  @DF-RHF Final Energy:  -230.99348913379401
    Total Energy =                       -230.9934891337940712
  Basis Set: 6-31G*
  Basis Set:
  Basis Set: 6-31G*
  Basis Set:
  @DF-RHF Final Energy:  -230.99349171902412
    Total Energy =                       -230.9934917190241777
  Basis Set: 6-31G*
  Basis Set:
  Basis Set: 6-31G*
  Basis Set:
  @DF-RHF Final Energy:  -230.99346399472316
    Total Energy =                       -230.9934639947230153
  Basis Set: 6-31G*
  Basis Set:
  Basis Set: 6-31G*
  Basis Set:
  @DF-RHF Final Energy:  -230.99349758904455
    Total Energy =                       -230.9934975890445230
  Basis Set: 6-31G*
  Basis Set:
  Charge       = 0
  Multiplicity = 1
  Basis Set: 6-31G*
  Basis Set:

    Orbital Energies (a.u.)
    -----------------------

    Doubly Occupied:

       1A    -20.546595     2A    -11.326914     3A    -11.234322
       4A    -11.228723     5A    -11.228658     6A     -1.393683
       7A     -1.066748     8A     -0.993806     9A     -0.890921
      10A     -0.731649    11A     -0.652480    12A     -0.642963
      13A     -0.625104    14A     -0.583929    15A     -0.556629
      16A     -0.544673    17A     -0.530159    18A     -0.514070
      19A     -0.473298    20A     -0.399434

  @DF-RHF Final Energy:  -230.99349768922357

   => Energetics <=

    Nuclear Repulsion Energy =            176.6490648407007882
    One-Electron Energy =                -662.9556122986858782
    Two-Electron Energy =                 255.3130497687615730
    DFT Exchange-Correlation Energy =       0.0000000000000000
    Empirical Dispersion Energy =           0.0000000000000000
    PCM Polarization Energy =               0.0000000000000000
    EFP Energy =                            0.0000000000000000
    Total Energy =                       -230.9934976892234886
    Molecular point group: c1
  Basis Set: 6-31G*
  Basis Set:

  -Total Gradient:
     Atom            X                  Y                   Z
    ------   -----------------  -----------------  -----------------
       1        0.000015096563    -0.000006796417     0.001182726157
       2       -0.000151462032     0.000168954879    -0.001711293346
       3        0.000817834407    -0.001042314497     0.000913838574
       4        0.000000083894     0.000001863533    -0.000016396526
       5       -0.000001238385     0.000001171975     0.000011691240
       6       -0.000673614558     0.000864340146    -0.000397501175
       7       -0.000000746546     0.000001580027     0.000002894834
       8        0.000000271824    -0.000004427696     0.000003286755
       9       -0.000003883752     0.000001916123    -0.000000948629
      10        0.000002304237     0.000009815249     0.000000276524
      11       -0.000000591912    -0.000002588541     0.000001963572
      12       -0.000000560790     0.000003285810     0.000003473639
      13       -0.000003492952     0.000003199410     0.000005988380

  **** Optimization is complete! (in 8 steps) ****
    Final optimized geometry and variables:
    Molecular point group: c1

    Geometry (in Angstrom), charge = 0, multiplicity = 1:

    O            0.012884080771     1.738181438603     0.055944542529
    C            0.183232280667     0.557081484429     0.054182873144
    C           -1.023884311636    -0.374213538027     0.065027423945
    C            1.578546947948    -0.027677825273     0.091671682002
    C           -0.784371775990    -1.847798941245    -0.260450098870
    H           -1.470004195153    -0.273701282746     1.051944867052
    H           -1.743652334579     0.054951097675    -0.623686785175
    H           -0.110033094947    -2.319186522406     0.446380127742
    H           -1.722745409916    -2.390331262242    -0.226060662290
    H           -0.370304547557    -1.977151770961    -1.255369884108
    H            1.761855085106    -0.651655315626    -0.777207700790
    H            2.298327855634     0.778228350696     0.116208829369
    H            1.705468927826    -0.653750842586     0.970109830687

  Mulliken Charges: (a.u.)
   Center  Symbol    Alpha    Beta     Spin     Total
       1     O     4.26254  4.26254  0.00000 -0.52508
       2     C     2.73826  2.73826  0.00000  0.52349
       3     C     3.20325  3.20325  0.00000 -0.40650
       4     C     3.29181  3.29181  0.00000 -0.58363
       5     C     3.24973  3.24973  0.00000 -0.49946
       6     H     0.40101  0.40101  0.00000  0.19798
       7     H     0.39818  0.39818  0.00000  0.20364
       8     H     0.41716  0.41716  0.00000  0.16568
       9     H     0.41105  0.41105  0.00000  0.17790
      10     H     0.41645  0.41645  0.00000  0.16709
      11     H     0.40705  0.40705  0.00000  0.18591
      12     H     0.39532  0.39532  0.00000  0.20937
      13     H     0.40819  0.40819  0.00000  0.18362

   Total alpha = 20.00000, Total beta = 20.00000, Total charge =  0.00000
