                              Psi4 1.0.54 Driver

  ==> Input File <==

--------------------------------------------------------------------------
set {
	reference rhf
	basis cc-pvtz
}

set_num_threads( 4 )
memory 2 gb

molecule MOL {
0 1

H	 -0.000105	 1.988529	 0.748933
O	 -0.000098	 1.879786	 -0.188206
C	 -0.000014	 0.545691	 -0.532416
C	 -1.286000	 -0.125171	 -0.046657
C	 1.286016	 -0.125031	 -0.046584
H	 0.000021	 0.481103	 -1.610604
F	 -2.286433	 0.710984	 -0.176418
F	 -1.572986	 -1.204422	 -0.729715
F	 -1.203449	 -0.454527	 1.224596
F	 2.317750	 0.468717	 -0.594166
F	 1.336617	 -1.393765	 -0.365123
F	 1.414467	 -0.024806	 1.259108

	symmetry c1
}
set optking {
	frozen_dihedral = ("
		7 4 3 6
	")
}

ee,wfn = optimize('scf', return_wfn=True)
oeprop( wfn, 'DIPOLE', 'QUADRUPOLE', 'MULLIKEN_CHARGES')
f=open( 'psi4out.xyz', 'w' )
f.write( "12  " )
f.write( str(ee) + "\n" )
f.write( MOL.save_string_xyz() )
f.close()
--------------------------------------------------------------------------

    Molecular point group: c1
  Charge       = 0
  Multiplicity = 1
  Basis Set: CC-PVTZ
  Basis Set:
  @DF-RHF Final Energy:  -786.58697126459663
    Total Energy =                       -786.5869712645969685
    Molecular point group: c1
  Basis Set: CC-PVTZ
  Basis Set:
  Basis Set: CC-PVTZ
  Basis Set:
  @DF-RHF Final Energy:  -786.58756591478425
    Total Energy =                       -786.5875659147848182
  Basis Set: CC-PVTZ
  Basis Set:
  Basis Set: CC-PVTZ
  Basis Set:
  @DF-RHF Final Energy:  -786.58810533220242
    Total Energy =                       -786.5881053322026446
  Basis Set: CC-PVTZ
  Basis Set:
  Basis Set: CC-PVTZ
  Basis Set:
  @DF-RHF Final Energy:  -786.58817771332031
    Total Energy =                       -786.5881777133206469
  Basis Set: CC-PVTZ
  Basis Set:
  Basis Set: CC-PVTZ
  Basis Set:
  @DF-RHF Final Energy:  -786.58819620811312
    Total Energy =                       -786.5881962081127767
  Basis Set: CC-PVTZ
  Basis Set:
  Basis Set: CC-PVTZ
  Basis Set:
  @DF-RHF Final Energy:  -786.58819964162353
    Total Energy =                       -786.5881996416237598
  Basis Set: CC-PVTZ
  Basis Set:
  Charge       = 0
  Multiplicity = 1
  Basis Set: CC-PVTZ
  Basis Set:

    Orbital Energies (a.u.)
    -----------------------

    Doubly Occupied:

       1A    -26.358627     2A    -26.358463     3A    -26.356308
       4A    -26.355535     5A    -26.354462     6A    -26.353510
       7A    -20.610663     8A    -11.519965     9A    -11.518625
      10A    -11.351468    11A     -1.771876    12A     -1.765756
      13A     -1.667113    14A     -1.663567    15A     -1.662802
      16A     -1.660165    17A     -1.440705    18A     -1.103512
      19A     -1.000876    20A     -0.944622    21A     -0.870704
      22A     -0.868442    23A     -0.858891    24A     -0.852584
      25A     -0.839476    26A     -0.821072    27A     -0.746345
      28A     -0.735049    29A     -0.733010    30A     -0.726809
      31A     -0.695775    32A     -0.692120    33A     -0.690406
      34A     -0.681722    35A     -0.676641    36A     -0.667215
      37A     -0.665023    38A     -0.658166    39A     -0.624663
      40A     -0.552694    41A     -0.510072

  @DF-RHF Final Energy:  -786.58820082221814

   => Energetics <=

    Nuclear Repulsion Energy =            671.5820903047167576
    One-Electron Energy =               -2430.3695790947385831
    Two-Electron Energy =                 972.1992879678039117
    DFT Exchange-Correlation Energy =       0.0000000000000000
    Empirical Dispersion Energy =           0.0000000000000000
    PCM Polarization Energy =               0.0000000000000000
    EFP Energy =                            0.0000000000000000
    Total Energy =                       -786.5882008222179138
    Molecular point group: c1
  Basis Set: CC-PVTZ
  Basis Set:

  -Total Gradient:
     Atom            X                  Y                   Z
    ------   -----------------  -----------------  -----------------
       1        0.000003325941    -0.000044897975    -0.000023132152
       2       -0.000007208844    -0.000023990495    -0.000053111076
       3       -0.002097877390     0.003860900838     0.000665676254
       4       -0.000129987050    -0.001912630113    -0.003510307630
       5       -0.000026795591    -0.000015059228    -0.000070717548
       6        0.001876705880    -0.002864529991     0.000195831619
       7        0.000419456179     0.001016717559     0.002704954017
       8       -0.000019988314    -0.000021602772    -0.000018340353
       9       -0.000005050970     0.000003608158     0.000070592039
      10       -0.000013995578     0.000010031209     0.000022724515
      11        0.000003927575    -0.000030630740     0.000009915834
      12       -0.000002511840     0.000022083552     0.000005914490

  **** Optimization is complete! (in 7 steps) ****
    Final optimized geometry and variables:
    Molecular point group: c1

    Geometry (in Angstrom), charge = 0, multiplicity = 1:

    H           -0.021991234286     2.013810910468     0.773094070429
    O           -0.073645592986     1.909578559168    -0.162972057259
    C           -0.032362803796     0.582845972264    -0.520718816250
    C           -1.273354548054    -0.185987406575    -0.048083324239
    C            1.276818698586    -0.054198814462    -0.048118828620
    H           -0.020527836410     0.516797739932    -1.598627911684
    F           -2.340923942732     0.558619263685    -0.181801444878
    F           -1.443643469046    -1.280072436882    -0.748119501798
    F           -1.190564672149    -0.523520373097     1.222006900351
    F            2.281025087832     0.456963569528    -0.717465864442
    F            1.285419382144    -1.351330991675    -0.231951116862
    F            1.491199316456     0.180972502759     1.227998431240

  Mulliken Charges: (a.u.)
   Center  Symbol    Alpha    Beta     Spin     Total
       1     H     0.38251  0.38251  0.00000  0.23498
       2     O     4.18637  4.18637  0.00000 -0.37273
       3     C     3.00776  3.00776  0.00000 -0.01551
       4     C     2.68320  2.68320  0.00000  0.63360
       5     C     2.68206  2.68206  0.00000  0.63588
       6     H     0.42659  0.42659  0.00000  0.14682
       7     F     4.60040  4.60040  0.00000 -0.20081
       8     F     4.60478  4.60478  0.00000 -0.20956
       9     F     4.60938  4.60938  0.00000 -0.21875
      10     F     4.60265  4.60265  0.00000 -0.20530
      11     F     4.60361  4.60361  0.00000 -0.20721
      12     F     4.61070  4.61070  0.00000 -0.22139

   Total alpha = 41.00000, Total beta = 41.00000, Total charge =  0.00000

*** Psi4 exiting successfully. Buy a developer a beer!
