  ==> Input File <==

--------------------------------------------------------------------------
set {
	reference rhf
	basis cc-pvtz
}

set_num_threads( 4 )
memory 2 gb

molecule MOL {
0 1

H	 -3.162190	 0.493205	 -0.000107
C	 -2.363908	 -0.234727	 0.000005
O	 -1.158738	 0.454634	 -0.000087
H	 -2.464314	 -0.863616	 -0.882153
H	 -2.464327	 -0.863359	 0.882345
C	 -1.206991	 1.700316	 -0.621590
C	 0.162649	 2.345241	 -0.554116
H	 -1.945544	 2.334623	 -0.130845
H	 -1.518690	 1.588081	 -1.660286
C	 0.192959	 3.718360	 -1.215913
H	 0.455650	 2.425714	 0.486845
H	 0.879089	 1.685133	 -1.030480
H	 -0.500173	 4.402852	 -0.738289
H	 1.181839	 4.155628	 -1.153199
H	 -0.073609	 3.657286	 -2.265808

	symmetry c1
}
set optking {
	frozen_dihedral = ("
		6 3 2 4
	")
}

ee = optimize('scf')
oeprop('DIPOLE', 'QUADRUPOLE', 'MULLIKEN_CHARGES')
f=open( 'psi4out.xyz', 'w' )
f.write( "15  " )
f.write( str(ee) + "\n" )
f.write( MOL.save_string_xyz() )
f.close()
--------------------------------------------------------------------------

    Molecular point group: c1
  Charge       = 0
  Multiplicity = 1
  Basis Set: CC-PVTZ
  Basis Set:
  @DF-RHF Final Energy:  -232.22530580803783
    Total Energy =                       -232.2253058080378878
    Molecular point group: c1
  Basis Set: CC-PVTZ
  Basis Set:
  Basis Set: CC-PVTZ
  Basis Set:
  @DF-RHF Final Energy:  -232.22625774817158
    Total Energy =                       -232.2262577481717472
  Basis Set: CC-PVTZ
  Basis Set:
  Basis Set: CC-PVTZ
  Basis Set:
  @DF-RHF Final Energy:  -232.22648775164978
    Total Energy =                       -232.2264877516497563
  Basis Set: CC-PVTZ
  Basis Set:
  Charge       = 0
  Multiplicity = 1
  Basis Set: CC-PVTZ
  Basis Set:

    Orbital Energies (a.u.)
    -----------------------

    Doubly Occupied:

       1A    -20.545902     2A    -11.264630     3A    -11.261427
       4A    -11.212495     5A    -11.210592     6A     -1.379503
       7A     -1.058278     8A     -0.956220     9A     -0.877248
      10A     -0.809352    11A     -0.675263    12A     -0.654802
      13A     -0.632047    14A     -0.608439    15A     -0.564392
      16A     -0.543345    17A     -0.503316    18A     -0.489813
      19A     -0.478842    20A     -0.462531    21A     -0.413931

  @DF-RHF Final Energy:  -232.22648905794173

   => Energetics <=

    Nuclear Repulsion Energy =            189.8354343629287371
    One-Electron Energy =                -690.9191107708500112
    Two-Electron Energy =                 268.8571873499795402
    DFT Exchange-Correlation Energy =       0.0000000000000000
    Empirical Dispersion Energy =           0.0000000000000000
    PCM Polarization Energy =               0.0000000000000000
    EFP Energy =                            0.0000000000000000
    Total Energy =                       -232.2264890579417624
    Molecular point group: c1
  Basis Set: CC-PVTZ
  Basis Set:

  -Total Gradient:
     Atom            X                  Y                   Z
    ------   -----------------  -----------------  -----------------
       1       -0.000037929575     0.000013062892    -0.000006715232
       2       -0.001863296218     0.003306675532    -0.000934808465
       3        0.001157238362    -0.002129695972    -0.002470418014
       4        0.001353728785    -0.002101885629     0.001439746647
       5        0.000025891634    -0.000015441264     0.000000021253
       6       -0.000628745414     0.000976985494     0.001898499647
       7        0.000011072047    -0.000033764429     0.000028795634
       8       -0.000001903820    -0.000027214963     0.000023871435
       9       -0.000003537992     0.000009714911     0.000006089293
      10       -0.000019376056    -0.000001109890    -0.000000293296
      11        0.000015001889     0.000006233036     0.000006394273
      12       -0.000005344333    -0.000002104747     0.000002459353
      13       -0.000000375392     0.000006196415    -0.000000304112
      14       -0.000001878361    -0.000006322809     0.000005098724
      15       -0.000000545555    -0.000001328577     0.000001562860

  **** Optimization is complete! (in 4 steps) ****
    Final optimized geometry and variables:
    Molecular point group: c1

    Geometry (in Angstrom), charge = 0, multiplicity = 1:

    H           -2.330959371495    -1.150392603444     0.513937464154
    C           -1.471849889594    -1.813784329890     0.475628170076
    O           -0.271075564736    -1.111648462585     0.478688975084
    H           -1.552134956403    -2.450798122038    -0.401546138944
    H           -1.491476259341    -2.449769929415     1.350713288887
    C           -0.305813377303     0.129907928455    -0.153187199547
    C            1.068515253703     0.763865324472    -0.077852857769
    H           -1.042442138367     0.771872723144     0.329068287782
    H           -0.608531600120     0.017397796888    -1.194711492345
    C            1.113075411960     2.137126822235    -0.738774061136
    H            1.355919001289     0.841463154930     0.965001513419
    H            1.782931524984     0.098675905248    -0.550232348806
    H            0.422699621321     2.826795415027    -0.264482198431
    H            2.105005248652     2.566788570097    -0.670538261101
    H            0.851660518775     2.078646227009    -1.790164100029

  Mulliken Charges: (a.u.)
   Center  Symbol    Alpha    Beta     Spin     Total
       1     H     0.47387  0.47387  0.00000  0.05225
       2     C     3.03169  3.03169  0.00000 -0.06338
       3     O     4.17392  4.17392  0.00000 -0.34785
       4     H     0.46523  0.46523  0.00000  0.06953
       5     H     0.45079  0.45079  0.00000  0.09843
       6     C     2.95590  2.95590  0.00000  0.08819
       7     C     3.08112  3.08112  0.00000 -0.16223
       8     H     0.47460  0.47460  0.00000  0.05080
       9     H     0.47677  0.47677  0.00000  0.04646
      10     C     3.15582  3.15582  0.00000 -0.31164
      11     H     0.45123  0.45123  0.00000  0.09755
      12     H     0.45101  0.45101  0.00000  0.09798
      13     H     0.45593  0.45593  0.00000  0.08813
      14     H     0.44627  0.44627  0.00000  0.10745
      15     H     0.45583  0.45583  0.00000  0.08834

   Total alpha = 21.00000, Total beta = 21.00000, Total charge = -0.00000
