                              Psi4 1.0.54 Driver

  ==> Input File <==

--------------------------------------------------------------------------
set {
	reference rhf
	basis cc-pvtz
}

set_num_threads( 4 )
memory 2 gb

molecule MOL {
0 1

H	 1.651322	 -0.822465	 0.000000
O	 0.729993	 -1.034364	 0.000000
C	 0.037305	 0.100061	 0.000000
C	 0.150110	 0.827570	 -1.306171
O	 -0.583880	 0.462330	 0.937916
H	 1.190155	 1.049553	 -1.507417
H	 -0.424214	 1.738077	 -1.263114
H	 -0.211738	 0.193548	 -2.105265

	symmetry c1
}
set optking {
	frozen_dihedral = ("
		4 3 2 1
	")
}

ee,wfn = optimize('scf', return_wfn=True)
oeprop( wfn, 'DIPOLE', 'QUADRUPOLE', 'MULLIKEN_CHARGES')
f=open( 'psi4out.xyz', 'w' )
f.write( "8  " )
f.write( str(ee) + "\n" )
f.write( MOL.save_string_xyz() )
f.close()
--------------------------------------------------------------------------

    Molecular point group: c1
  Charge       = 0
  Multiplicity = 1
  Basis Set: CC-PVTZ
  Basis Set:
  @DF-RHF Final Energy:  -227.88353997157168
    Total Energy =                       -227.8835399715715937
    Molecular point group: c1
  Basis Set: CC-PVTZ
  Basis Set:
  Basis Set: CC-PVTZ
  Basis Set:
  @DF-RHF Final Energy:  -227.88375534744017
    Total Energy =                       -227.8837553474402000
  Basis Set: CC-PVTZ
  Basis Set:
  Basis Set: CC-PVTZ
  Basis Set:
  @DF-RHF Final Energy:  -227.88444988876870
    Total Energy =                       -227.8844498887685859
  Basis Set: CC-PVTZ
  Basis Set:
  Basis Set: CC-PVTZ
  Basis Set:
  @DF-RHF Final Energy:  -227.88481399942054
    Total Energy =                       -227.8848139994206008
  Basis Set: CC-PVTZ
  Basis Set:
  @DF-RHF Final Energy:  -227.88532324295736
    Total Energy =                       -227.8853232429574405
  @DF-RHF Final Energy:  -227.88546920675122
    Total Energy =                       -227.8854692067511394
  @DF-RHF Final Energy:  -227.88552492794199
    Total Energy =                       -227.8855249279419866
  @DF-RHF Final Energy:  -227.88553353554676
    Total Energy =                       -227.8855335355466991
  @DF-RHF Final Energy:  -227.88553913574160
    Total Energy =                       -227.8855391357416806
  Basis Set: CC-PVTZ
  Basis Set:
  @DF-RHF Final Energy:  -227.88554100828048
    Total Energy =                       -227.8855410082804838
  Basis Set: CC-PVTZ
  Basis Set:
  Basis Set: CC-PVTZ
  Basis Set:
  @DF-RHF Final Energy:  -227.88546159211995
    Total Energy =                       -227.8854615921199809
  Basis Set: CC-PVTZ
  Basis Set:
  Basis Set: CC-PVTZ
  Basis Set:
  @DF-RHF Final Energy:  -227.88552673533246
    Total Energy =                       -227.8855267353324336
  Basis Set: CC-PVTZ
  Basis Set:
  Charge       = 0
  Multiplicity = 1
  Basis Set: CC-PVTZ
  Basis Set:

    Orbital Energies (a.u.)
    -----------------------

    Doubly Occupied:

       1A    -20.592127     2A    -20.550192     3A    -11.378647
       4A    -11.244083     5A     -1.466721     6A     -1.374552
       7A     -1.024526     8A     -0.832764     9A     -0.714993
      10A     -0.670981    11A     -0.665438    12A     -0.596709
      13A     -0.577649    14A     -0.521826    15A     -0.500045
      16A     -0.453224

  @DF-RHF Final Energy:  -227.88554123775640

   => Energetics <=

    Nuclear Repulsion Energy =            122.1277231381828443
    One-Electron Energy =                -553.6975715838486849
    Two-Electron Energy =                 203.6843072079093986
    DFT Exchange-Correlation Energy =       0.0000000000000000
    Empirical Dispersion Energy =           0.0000000000000000
    PCM Polarization Energy =               0.0000000000000000
    EFP Energy =                            0.0000000000000000
    Total Energy =                       -227.8855412377564562
    Molecular point group: c1
  Basis Set: CC-PVTZ
  Basis Set:

  -Total Gradient:
     Atom            X                  Y                   Z
    ------   -----------------  -----------------  -----------------
       1       -0.000047973747     0.000122229634     0.004492704013
       2       -0.000932876524    -0.000783657352    -0.006105117614
       3        0.003187115434     0.002036429870     0.002544809387
       4       -0.002235568965    -0.001410480417    -0.000931789539
       5        0.000047191445     0.000042361500    -0.000007189153
       6       -0.000017931477    -0.000005292557     0.000005655230
       7        0.000000288098    -0.000007965539    -0.000008287267
       8       -0.000000244266     0.000006374861     0.000009214944

  **** Optimization is complete! (in 12 steps) ****
    Final optimized geometry and variables:
    Molecular point group: c1

    Geometry (in Angstrom), charge = 0, multiplicity = 1:

    H            1.584487484885    -0.949749663054     0.139828024518
    O            0.654712799267    -1.105130779898     0.135162698141
    C           -0.056496257594     0.047948708477     0.094766672013
    C            0.032539337488     0.780704161503    -1.215396960731
    O           -0.747059765595     0.364812000762     0.988272943986
    H            1.065525374883     0.981611403391    -1.475085826221
    H           -0.519712951148     1.704680415147    -1.161082826084
    H           -0.379435594950     0.146226344403    -1.990245404387

  Mulliken Charges: (a.u.)
   Center  Symbol    Alpha    Beta     Spin     Total
       1     H     0.38869  0.38869  0.00000  0.22262
       2     O     4.16651  4.16651  0.00000 -0.33303
       3     C     2.80861  2.80861  0.00000  0.38279
       4     C     3.13976  3.13976  0.00000 -0.27953
       5     O     4.16138  4.16138  0.00000 -0.32275
       6     H     0.45606  0.45606  0.00000  0.08787
       7     H     0.43728  0.43728  0.00000  0.12544
       8     H     0.44171  0.44171  0.00000  0.11659

   Total alpha = 16.00000, Total beta = 16.00000, Total charge = -0.00000

*** Psi4 exiting successfully. Buy a developer a beer!
