                              Psi4 1.0.54 Driver

  ==> Input File <==

--------------------------------------------------------------------------
set {
	reference rhf
	basis cc-pvtz
}

set_num_threads( 4 )
memory 2 gb

molecule MOL {
0 1

H	 -2.644180	 -0.653737	 1.272255
C	 -2.092774	 -0.380414	 0.391915
O	 -0.808934	 -0.154049	 0.752536
F	 -2.163230	 -1.351640	 -0.507133
F	 -2.627232	 0.691260	 -0.169301
C	 0.085006	 0.250800	 -0.215074
C	 1.487583	 -0.073338	 0.293837
Cl	 -0.059882	 1.989198	 -0.535256
H	 -0.058191	 -0.261146	 -1.150516
F	 2.387643	 0.275334	 -0.590099
F	 1.585282	 -1.368231	 0.480975
F	 1.755089	 0.524555	 1.422206

	symmetry c1
}
set optking {
	frozen_dihedral = ("
		9 6 3 2
	")
}

ee,wfn = optimize('scf', return_wfn=True)
oeprop( wfn, 'DIPOLE', 'QUADRUPOLE', 'MULLIKEN_CHARGES')
f=open( 'psi4out.xyz', 'w' )
f.write( "12  " )
f.write( str(ee) + "\n" )
f.write( MOL.save_string_xyz() )
f.close()
--------------------------------------------------------------------------

    Molecular point group: c1
  Charge       = 0
  Multiplicity = 1
  Basis Set: CC-PVTZ
  Basis Set:
  @DF-RHF Final Energy: -1146.61808277197565
    Total Energy =                      -1146.6180827719758781
    Molecular point group: c1
  Basis Set: CC-PVTZ
  Basis Set:
  Basis Set: CC-PVTZ
  Basis Set:
  @DF-RHF Final Energy: -1146.61893689139333
    Total Energy =                      -1146.6189368913924227
  Basis Set: CC-PVTZ
  Basis Set:
  Basis Set: CC-PVTZ
  Basis Set:
  @DF-RHF Final Energy: -1146.61919286995271
    Total Energy =                      -1146.6191928699524851
  Basis Set: CC-PVTZ
  Basis Set:
  Basis Set: CC-PVTZ
  Basis Set:
  @DF-RHF Final Energy: -1146.61917693402779
    Total Energy =                      -1146.6191769340277915
  Basis Set: CC-PVTZ
  Basis Set:
  Basis Set: CC-PVTZ
  Basis Set:
  @DF-RHF Final Energy: -1146.61924189912816
    Total Energy =                      -1146.6192418991277009
  Basis Set: CC-PVTZ
  Basis Set:
  Basis Set: CC-PVTZ
  Basis Set:
  @DF-RHF Final Energy: -1146.61926449598150
    Total Energy =                      -1146.6192644959817244
  Basis Set: CC-PVTZ
  Basis Set:
  Basis Set: CC-PVTZ
  Basis Set:
  @DF-RHF Final Energy: -1146.61927150426209
    Total Energy =                      -1146.6192715042623149
  Basis Set: CC-PVTZ
  Basis Set:
  Charge       = 0
  Multiplicity = 1
  Basis Set: CC-PVTZ
  Basis Set:

    Orbital Energies (a.u.)
    -----------------------

    Doubly Occupied:

       1A   -104.855994     2A    -26.354646     3A    -26.353689
       4A    -26.352993     5A    -26.344423     6A    -26.340217
       7A    -20.641644     8A    -11.520204     9A    -11.483697
      10A    -11.400620    11A    -10.581567    12A     -8.048365
      13A     -8.046371    14A     -8.046300    15A     -1.767795
      16A     -1.723980    17A     -1.662680    18A     -1.661057
      19A     -1.644476    20A     -1.486779    21A     -1.177677
      22A     -1.056079    23A     -0.989765    24A     -0.923538
      25A     -0.863816    26A     -0.858085    27A     -0.852438
      28A     -0.824575    29A     -0.818298    30A     -0.795179
      31A     -0.734979    32A     -0.732591    33A     -0.714563
      34A     -0.704764    35A     -0.685635    36A     -0.681034
      37A     -0.665451    38A     -0.663928    39A     -0.647655
      40A     -0.641875    41A     -0.597953    42A     -0.576925
      43A     -0.526466    44A     -0.477167    45A     -0.469411

  @DF-RHF Final Energy: -1146.61927243898549

   => Energetics <=

    Nuclear Repulsion Energy =            737.2395380241882776
    One-Electron Energy =               -3057.7229278774821069
    Two-Electron Energy =                1173.8641174143090211
    DFT Exchange-Correlation Energy =       0.0000000000000000
    Empirical Dispersion Energy =           0.0000000000000000
    PCM Polarization Energy =               0.0000000000000000
    EFP Energy =                            0.0000000000000000
    Total Energy =                      -1146.6192724389848081
    Molecular point group: c1
  Basis Set: CC-PVTZ
  Basis Set:

  -Total Gradient:
     Atom            X                  Y                   Z
    ------   -----------------  -----------------  -----------------
       1       -0.000015501423    -0.000022712555     0.000046793602
       2       -0.000528831157     0.002343341887     0.000460619792
       3        0.001248343110    -0.003792479040    -0.000381278113
       4        0.000018312357    -0.000130577437    -0.000121621644
       5        0.000028913719    -0.000010135921     0.000026378402
       6       -0.002507287006     0.003482133639    -0.000899300326
       7        0.000007515542    -0.000041713050     0.000049024025
       8       -0.000015385530     0.000027589753    -0.000011386543
       9        0.001674496117    -0.001867591628     0.000836134603
      10       -0.000025327988    -0.000047880354     0.000083129270
      11        0.000059058841     0.000043340798    -0.000052642794
      12        0.000055693423     0.000016683999    -0.000035850302

  **** Optimization is complete! (in 8 steps) ****
    Final optimized geometry and variables:
    Molecular point group: c1

    Geometry (in Angstrom), charge = 0, multiplicity = 1:

    H           -2.575345844191    -1.016994207738     1.142549614654
    C           -2.071301434377    -0.603078765466     0.288579358658
    O           -0.789442589947    -0.354471719724     0.647613084189
    F           -2.115116342276    -1.461241555972    -0.722149797592
    F           -2.689562186620     0.490174474420    -0.113698668529
    C            0.131878680574     0.043695829602    -0.294418727995
    C            1.501548390027    -0.327516767380     0.272661789391
    CL           0.075847500154     1.783658091066    -0.636176816836
    H            0.016748154773    -0.483855623760    -1.225457395434
    F            2.446567782266    -0.011689484765    -0.575908956243
    F            1.549617706019    -1.625012479823     0.463440958397
    F            1.745828548117     0.262975058151     1.409910251208

  Mulliken Charges: (a.u.)
   Center  Symbol    Alpha    Beta     Spin     Total
       1     H     0.45344  0.45344  0.00000  0.09311
       2     C     2.73921  2.73921  0.00000  0.52157
       3     O     4.15430  4.15430  0.00000 -0.30859
       4     F     4.61955  4.61955  0.00000 -0.23911
       5     F     4.61030  4.61030  0.00000 -0.22061
       6     C     2.94511  2.94511  0.00000  0.10978
       7     C     2.66897  2.66897  0.00000  0.66207
       8    CL     8.57238  8.57238  0.00000 -0.14477
       9     H     0.42890  0.42890  0.00000  0.14220
      10     F     4.60215  4.60215  0.00000 -0.20430
      11     F     4.60525  4.60525  0.00000 -0.21049
      12     F     4.60043  4.60043  0.00000 -0.20087

   Total alpha = 45.00000, Total beta = 45.00000, Total charge =  0.00000

*** Psi4 exiting successfully. Buy a developer a beer!
