                              Psi4 1.0.54 Driver

  ==> Input File <==

--------------------------------------------------------------------------
set {
	reference rhf
	basis cc-pvtz
}

set_num_threads( 4 )
memory 2 gb

molecule MOL {
0 1

H	 -2.171709	 0.882708	 0.500286
C	 -2.016894	 0.001719	 -0.114152
O	 -0.775228	 0.000056	 -0.739966
H	 -2.760846	 0.003757	 -0.898169
H	 -2.174774	 -0.879864	 0.498643
C	 -0.128361	 1.224231	 -1.026739
C	 1.175266	 0.803188	 -1.696189
C	 -0.957894	 2.073637	 -1.991635
C	 0.173021	 2.002916	 0.255218
H	 0.967275	 0.230001	 -2.590784
H	 1.755553	 0.182109	 -1.025643
H	 1.768801	 1.667734	 -1.968669
H	 -1.223616	 1.495358	 -2.868364
H	 -0.387809	 2.937193	 -2.312825
H	 -1.868692	 2.438494	 -1.533498
H	 0.703570	 1.374887	 0.960758
H	 0.792521	 2.863287	 0.031927
H	 -0.728314	 2.367338	 0.732040

	symmetry c1
}
set optking {
	frozen_dihedral = ("
		6 3 2 5
	")
}

ee,wfn = optimize('scf', return_wfn=True)
oeprop( wfn, 'DIPOLE', 'QUADRUPOLE', 'MULLIKEN_CHARGES')
f=open( 'psi4out.xyz', 'w' )
f.write( "18  " )
f.write( str(ee) + "\n" )
f.write( MOL.save_string_xyz() )
f.close()
--------------------------------------------------------------------------

    Molecular point group: c1
  Charge       = 0
  Multiplicity = 1
  Basis Set: CC-PVTZ
  Basis Set:
  @DF-RHF Final Energy:  -271.27368343184474
    Total Energy =                       -271.2736834318444608
    Molecular point group: c1
  Basis Set: CC-PVTZ
  Basis Set:
  Basis Set: CC-PVTZ
  Basis Set:
  @DF-RHF Final Energy:  -271.15588865098118
    Total Energy =                       -271.1558886509810691
  Basis Set: CC-PVTZ
  Basis Set:
  Basis Set: CC-PVTZ
  Basis Set:
  @DF-RHF Final Energy:  -271.24882603641873
    Total Energy =                       -271.2488260364184498
  Basis Set: CC-PVTZ
  Basis Set:
  Basis Set: CC-PVTZ
  Basis Set:
  @DF-RHF Final Energy:  -271.27508477232521
    Total Energy =                       -271.2750847723254992
  Basis Set: CC-PVTZ
  Basis Set:
  @DF-RHF Final Energy:  -271.27494832069971
    Total Energy =                       -271.2749483206995365
  @DF-RHF Final Energy:  -271.27555273115894
    Total Energy =                       -271.2755527311589390
  Basis Set: CC-PVTZ
  Basis Set:
  @DF-RHF Final Energy:  -271.27573903143855
    Total Energy =                       -271.2757390314384338
  Basis Set: CC-PVTZ
  Basis Set:
  Basis Set: CC-PVTZ
  Basis Set:
  @DF-RHF Final Energy:  -271.27576682822479
    Total Energy =                       -271.2757668282247323
  Basis Set: CC-PVTZ
  Basis Set:
  Basis Set: CC-PVTZ
  Basis Set:
  @DF-RHF Final Energy:  -271.27577796974907
    Total Energy =                       -271.2757779697487877
  Basis Set: CC-PVTZ
  Basis Set:
  Charge       = 0
  Multiplicity = 1
  Basis Set: CC-PVTZ
  Basis Set:

    Orbital Energies (a.u.)
    -----------------------

    Doubly Occupied:

       1A    -20.539433     2A    -11.280437     3A    -11.258586
       4A    -11.207870     5A    -11.206435     6A    -11.201835
       7A     -1.372443     8A     -1.074272     9A     -0.946895
      10A     -0.940673    11A     -0.913262    12A     -0.753692
      13A     -0.656397    14A     -0.646601    15A     -0.639979
      16A     -0.592182    17A     -0.573037    18A     -0.552766
      19A     -0.536867    20A     -0.524989    21A     -0.515333
      22A     -0.490436    23A     -0.488308    24A     -0.440219
      25A     -0.405805

  @DF-RHF Final Energy:  -271.27577794498137

   => Energetics <=

    Nuclear Repulsion Energy =            272.6357500689198901
    One-Electron Energy =                -908.3055402164018233
    Two-Electron Energy =                 364.3940122025003916
    DFT Exchange-Correlation Energy =       0.0000000000000000
    Empirical Dispersion Energy =           0.0000000000000000
    PCM Polarization Energy =               0.0000000000000000
    EFP Energy =                            0.0000000000000000
    Total Energy =                       -271.2757779449815985
    Molecular point group: c1
  Basis Set: CC-PVTZ
  Basis Set:

  -Total Gradient:
     Atom            X                  Y                   Z
    ------   -----------------  -----------------  -----------------
       1       -0.000150083099     0.000042404904     0.000202789493
       2       -0.000111365630    -0.000453604804    -0.001575700761
       3       -0.000145195560     0.001184818721    -0.001760283716
       4       -0.000112932320     0.000091152810    -0.000194407285
       5        0.000219189050    -0.000110952389     0.001923065933
       6        0.000293303932    -0.000809453909     0.001333838684
       7       -0.000090971935    -0.000045534538     0.000045877445
       8        0.000025372227    -0.000004596836     0.000039870165
       9        0.000034335737    -0.000011181372     0.000056392779
      10       -0.000028558656     0.000018385124    -0.000046729557
      11        0.000015441260    -0.000031319272     0.000002230489
      12       -0.000003664933     0.000002005842     0.000021553272
      13        0.000062192991     0.000015254105    -0.000123597955
      14        0.000042196226     0.000081944632     0.000056849882
      15       -0.000106464795    -0.000026574287    -0.000007060982
      16        0.000052276880     0.000013241292    -0.000013614590
      17        0.000019613665     0.000049696979     0.000038616524
      18       -0.000014685042    -0.000005687001     0.000000310179

  **** Optimization is complete! (in 10 steps) ****
    Final optimized geometry and variables:
    Molecular point group: c1

    Geometry (in Angstrom), charge = 0, multiplicity = 1:

    H           -2.015735890241    -0.734637585164     0.651784618588
    C           -1.647801935053    -1.135350890685    -0.285789966547
    O           -0.284520466613    -0.918160962314    -0.471815629125
    H           -2.233001662409    -0.705486491927    -1.093183794687
    H           -1.809310396792    -2.204863068753    -0.266354514042
    C            0.325774160757     0.238410707463     0.065836016276
    C            1.744064179306     0.204188765022    -0.492231363870
    C           -0.388455206945     1.507702195339    -0.401418145760
    C            0.370383908689     0.167345819501     1.593755882340
    H            1.721323272020     0.237910424613    -1.574097913315
    H            2.240226512655    -0.710649184677    -0.193918511375
    H            2.323366779973     1.045745386564    -0.131052427084
    H           -0.435772619716     1.536768506286    -1.483606267457
    H            0.145810634469     2.386627439692    -0.060621450021
    H           -1.398633083600     1.568434260890    -0.014722736964
    H            0.844752750220    -0.753654300545     1.909507443321
    H            0.939715793483     0.999225209743     1.991716608386
    H           -0.617139133822     0.210422875431     2.035512730974

  Mulliken Charges: (a.u.)
   Center  Symbol    Alpha    Beta     Spin     Total
       1     H     0.46943  0.46943  0.00000  0.06115
       2     C     3.04430  3.04430  0.00000 -0.08859
       3     O     4.19215  4.19215  0.00000 -0.38431
       4     H     0.46234  0.46234  0.00000  0.07533
       5     H     0.44535  0.44535  0.00000  0.10929
       6     C     2.87792  2.87792  0.00000  0.24416
       7     C     3.14233  3.14233  0.00000 -0.28466
       8     C     3.16383  3.16383  0.00000 -0.32766
       9     C     3.15958  3.15958  0.00000 -0.31916
      10     H     0.44947  0.44947  0.00000  0.10106
      11     H     0.44844  0.44844  0.00000  0.10311
      12     H     0.45926  0.45926  0.00000  0.08147
      13     H     0.44586  0.44586  0.00000  0.10828
      14     H     0.44686  0.44686  0.00000  0.10628
      15     H     0.44829  0.44829  0.00000  0.10341
      16     H     0.44648  0.44648  0.00000  0.10703
      17     H     0.44965  0.44965  0.00000  0.10069
      18     H     0.44845  0.44845  0.00000  0.10311

   Total alpha = 25.00000, Total beta = 25.00000, Total charge = -0.00000

*** Psi4 exiting successfully. Buy a developer a beer!
