  ==> Input File <==

--------------------------------------------------------------------------
set {
	reference rhf
	basis 6-31G*
}

set_num_threads( 1 )
memory 2 gb

molecule MOL {
0 1

O	 -2.821601	 1.309235	 -0.001213
C	 -2.668563	 0.129746	 -0.000350
C	 -3.801572	 -0.864014	 -0.000442
O	 -1.481751	 -0.454642	 0.000584
H	 -4.417280	 -0.689587	 -0.874708
H	 -3.443784	 -1.883046	 -0.000565
H	 -4.417179	 -0.689832	 0.873954
C	 -0.334255	 0.388708	 0.000906
C	 0.891947	 -0.504646	 0.000751
H	 -0.365390	 1.025305	 -0.873475
H	 -0.365484	 1.024911	 0.875569
C	 2.191998	 0.301789	 0.000897
H	 0.855148	 -1.151283	 -0.871571
H	 0.855132	 -1.151660	 0.872805
C	 3.361361	 -0.452722	 -0.634423
H	 2.038994	 1.238686	 -0.531924
H	 2.452938	 0.571067	 1.022896
C	 4.659504	 0.353310	 -0.635461
H	 3.102433	 -0.722271	 -1.655880
H	 3.517138	 -1.388171	 -0.101752
H	 4.545207	 1.280287	 -1.190136
H	 5.469133	 -0.207368	 -1.091943
H	 4.963208	 0.609086	 0.375654

	symmetry c1
}
set optking {
	frozen_dihedral = ("
		13 9 8 10,
		2 4 8 10,
		19 15 12 16,
		1 2 4 8
	")
}

ee = energy('scf')
oeprop('DIPOLE', 'QUADRUPOLE', 'MULLIKEN_CHARGES')
f=open( 'psi4out.xyz', 'w' )
f.write( "23  " )
f.write( str(ee) + "\n" )
f.write( MOL.save_string_xyz() )
f.close()
--------------------------------------------------------------------------

    Molecular point group: c1

    Geometry (in Angstrom), charge = 0, multiplicity = 1:

       Center              X                  Y                   Z               Mass
    ------------   -----------------  -----------------  -----------------  -----------------
           O         -2.803762637322     1.280452230779     0.140397318334    15.994914619560
           C         -2.650724637322     0.100963230779     0.141260318334    12.000000000000
           C         -3.783733637322    -0.892796769221     0.141168318334    12.000000000000
           O         -1.463912637322    -0.483424769221     0.142194318334    15.994914619560
           H         -4.399441637322    -0.718369769221    -0.733097681666     1.007825032070
           H         -3.425945637322    -1.911828769221     0.141045318334     1.007825032070
           H         -4.399340637322    -0.718614769221     1.015564318334     1.007825032070
           C         -0.316416637322     0.359925230779     0.142516318334    12.000000000000
           C          0.909785362678    -0.533428769221     0.142361318334    12.000000000000
           H         -0.347551637322     0.996522230779    -0.731864681666     1.007825032070
           H         -0.347645637322     0.996128230779     1.017179318334     1.007825032070
           C          2.209836362678     0.273006230779     0.142507318334    12.000000000000
           H          0.872986362678    -1.180065769221    -0.729960681666     1.007825032070
           H          0.872970362678    -1.180442769221     1.014415318334     1.007825032070
           C          3.379199362678    -0.481504769221    -0.492812681666    12.000000000000
           H          2.056832362678     1.209903230779    -0.390313681666     1.007825032070
           H          2.470776362678     0.542284230779     1.164506318334     1.007825032070
           C          4.677342362678     0.324527230779    -0.493850681666    12.000000000000
           H          3.120271362678    -0.751053769221    -1.514269681666     1.007825032070
           H          3.534976362678    -1.416953769221     0.039858318334     1.007825032070
           H          4.563045362678     1.251504230779    -1.048525681666     1.007825032070
           H          5.486971362678    -0.236150769221    -0.950332681666     1.007825032070
           H          4.981046362678     0.580303230779     0.517264318334     1.007825032070

  Charge       = 0
  Multiplicity = 1
  Basis Set: 6-31G*
  Basis Set:

    Orbital Energies (a.u.)
    -----------------------

    Doubly Occupied:

       1A    -20.602901     2A    -20.540560     3A    -11.374092
       4A    -11.281745     5A    -11.232366     6A    -11.223837
       7A    -11.223254     8A    -11.221786     9A    -11.212761
      10A     -1.467963    11A     -1.360747    12A     -1.094341
      13A     -1.042124    14A     -1.003365    15A     -0.930832
      16A     -0.841915    17A     -0.802665    18A     -0.774906
      19A     -0.691376    20A     -0.685027    21A     -0.669046
      22A     -0.644393    23A     -0.607530    24A     -0.587785
      25A     -0.581985    26A     -0.568079    27A     -0.558937
      28A     -0.536142    29A     -0.523774    30A     -0.504007
      31A     -0.492366    32A     -0.478481    33A     -0.469399
      34A     -0.464894    35A     -0.450992    36A     -0.435317

  @DF-RHF Final Energy:  -422.97740743408059

   => Energetics <=

    Nuclear Repulsion Energy =            450.1027649789462544
    One-Electron Energy =               -1467.7973712261266428
    Two-Electron Energy =                 594.7171988130990030
    DFT Exchange-Correlation Energy =       0.0000000000000000
    Empirical Dispersion Energy =           0.0000000000000000
    PCM Polarization Energy =               0.0000000000000000
    EFP Energy =                            0.0000000000000000
    Total Energy =                       -422.9774074340814423

  Mulliken Charges: (a.u.)
   Center  Symbol    Alpha    Beta     Spin     Total
       1     O     4.28391  4.28391  0.00000 -0.56781
       2     C     2.61540  2.61540  0.00000  0.76919
       3     C     3.28775  3.28775  0.00000 -0.57551
       4     O     4.31259  4.31259  0.00000 -0.62519
       5     H     0.39752  0.39752  0.00000  0.20497
       6     H     0.39985  0.39985  0.00000  0.20030
       7     H     0.39751  0.39751  0.00000  0.20499
       8     C     2.99788  2.99788  0.00000  0.00425
       9     C     3.16472  3.16472  0.00000 -0.32944
      10     H     0.41040  0.41040  0.00000  0.17920
      11     H     0.41048  0.41048  0.00000  0.17903
      12     C     3.16107  3.16107  0.00000 -0.32214
      13     H     0.41371  0.41371  0.00000  0.17259
      14     H     0.41289  0.41289  0.00000  0.17422
      15     C     3.15257  3.15257  0.00000 -0.30514
      16     H     0.42088  0.42088  0.00000  0.15824
      17     H     0.41860  0.41860  0.00000  0.16281
      18     C     3.24017  3.24017  0.00000 -0.48035
      19     H     0.42128  0.42128  0.00000  0.15744
      20     H     0.42112  0.42112  0.00000  0.15776
      21     H     0.42070  0.42070  0.00000  0.15859
      22     H     0.41805  0.41805  0.00000  0.16389
      23     H     0.42095  0.42095  0.00000  0.15810

   Total alpha = 36.00000, Total beta = 36.00000, Total charge = -0.00000
