  ==> Input File <==

--------------------------------------------------------------------------
set {
	reference rhf
	basis 6-31G*
}

set_num_threads( 1 )
memory 2 gb

molecule MOL {
0 1

O	 -2.042549	 -1.228399	 -0.269030
C	 -1.653912	 -0.146171	 0.050137
C	 -0.332303	 0.024011	 0.778412
C	 -2.438579	 1.106236	 -0.272369
C	 0.849188	 -0.060784	 -0.200751
H	 -0.307599	 0.973205	 1.306430
H	 -0.254913	 -0.772621	 1.510061
C	 2.203267	 0.075288	 0.497093
H	 0.756372	 0.716163	 -0.957601
H	 0.798412	 -1.011495	 -0.722968
C	 3.380279	 -0.017638	 -0.473070
H	 2.243863	 1.025256	 1.025618
H	 2.295464	 -0.700632	 1.253410
H	 3.334506	 0.767423	 -1.222494
H	 3.384738	 -0.971063	 -0.993074
H	 4.326662	 0.079012	 0.049466
H	 -3.277823	 0.863061	 -0.908988
H	 -1.806773	 1.843019	 -0.759671
H	 -2.802853	 1.554979	 0.648059

	symmetry c1
}
set optking {
	frozen_dihedral = ("
		11 8 5 9,
		9 5 3 2
	")
}

ee = energy('scf')
oeprop('DIPOLE', 'QUADRUPOLE', 'MULLIKEN_CHARGES')
f=open( 'psi4out.xyz', 'w' )
f.write( "19  " )
f.write( str(ee) + "\n" )
f.write( MOL.save_string_xyz() )
f.close()
--------------------------------------------------------------------------

    Molecular point group: c1

    Geometry (in Angstrom), charge = 0, multiplicity = 1:

       Center              X                  Y                   Z               Mass
    ------------   -----------------  -----------------  -----------------  -----------------
           O         -2.044376767724    -1.193666251578    -0.273829199269    15.994914619560
           C         -1.655739767724    -0.111438251578     0.045337800731    12.000000000000
           C         -0.334130767724     0.058743748422     0.773612800731    12.000000000000
           C         -2.440406767724     1.140968748422    -0.277168199269    12.000000000000
           C          0.847360232276    -0.026051251578    -0.205550199269    12.000000000000
           H         -0.309426767724     1.007937748422     1.301630800731     1.007825032070
           H         -0.256740767724    -0.737888251578     1.505261800731     1.007825032070
           C          2.201439232276     0.110020748422     0.492293800731    12.000000000000
           H          0.754544232276     0.750895748422    -0.962400199269     1.007825032070
           H          0.796584232276    -0.976762251578    -0.727767199269     1.007825032070
           C          3.378451232276     0.017094748422    -0.477869199269    12.000000000000
           H          2.242035232276     1.059988748422     1.020818800731     1.007825032070
           H          2.293636232276    -0.665899251578     1.248610800731     1.007825032070
           H          3.332678232276     0.802155748422    -1.227293199269     1.007825032070
           H          3.382910232276    -0.936330251578    -0.997873199269     1.007825032070
           H          4.324834232276     0.113744748422     0.044666800731     1.007825032070
           H         -3.279650767724     0.897793748422    -0.913787199269     1.007825032070
           H         -1.808600767724     1.877751748422    -0.764470199269     1.007825032070
           H         -2.804680767724     1.589711748422     0.643259800731     1.007825032070

  Charge       = 0
  Multiplicity = 1
  Basis Set: 6-31G*
  Basis Set:

    Orbital Energies (a.u.)
    -----------------------

    Doubly Occupied:

       1A    -20.547559     2A    -11.324735     3A    -11.230217
       4A    -11.229440     5A    -11.228352     6A    -11.224598
       7A    -11.214714     8A     -1.393354     9A     -1.091063
      10A     -1.029262    11A     -0.983912    12A     -0.889724
      13A     -0.806474    14A     -0.733229    15A     -0.663422
      16A     -0.645400    17A     -0.622522    18A     -0.612996
      19A     -0.582401    20A     -0.573095    21A     -0.552839
      22A     -0.537185    23A     -0.513305    24A     -0.498724
      25A     -0.481985    26A     -0.475579    27A     -0.467066
      28A     -0.396925

  @DF-RHF Final Energy:  -309.06515877499425

   => Energetics <=

    Nuclear Repulsion Energy =            301.2044289735037523
    One-Electron Energy =               -1015.4391711740398705
    Two-Electron Energy =                 405.1695834255417594
    DFT Exchange-Correlation Energy =       0.0000000000000000
    Empirical Dispersion Energy =           0.0000000000000000
    PCM Polarization Energy =               0.0000000000000000
    EFP Energy =                            0.0000000000000000
    Total Energy =                       -309.0651587749944156

  Mulliken Charges: (a.u.)
   Center  Symbol    Alpha    Beta     Spin     Total
       1     O     4.26224  4.26224  0.00000 -0.52448
       2     C     2.73708  2.73708  0.00000  0.52584
       3     C     3.20023  3.20023  0.00000 -0.40045
       4     C     3.28960  3.28960  0.00000 -0.57919
       5     C     3.16066  3.16066  0.00000 -0.32133
       6     H     0.41687  0.41687  0.00000  0.16625
       7     H     0.40115  0.40115  0.00000  0.19770
       8     C     3.15184  3.15184  0.00000 -0.30368
       9     H     0.42103  0.42103  0.00000  0.15795
      10     H     0.40606  0.40606  0.00000  0.18789
      11     C     3.24032  3.24032  0.00000 -0.48064
      12     H     0.42249  0.42249  0.00000  0.15503
      13     H     0.41931  0.41931  0.00000  0.16137
      14     H     0.42117  0.42117  0.00000  0.15765
      15     H     0.41879  0.41879  0.00000  0.16243
      16     H     0.41750  0.41750  0.00000  0.16500
      17     H     0.39707  0.39707  0.00000  0.20586
      18     H     0.40988  0.40988  0.00000  0.18025
      19     H     0.40672  0.40672  0.00000  0.18657

   Total alpha = 28.00000, Total beta = 28.00000, Total charge =  0.00000
