  ==> Input File <==

--------------------------------------------------------------------------
set {
	reference rhf
	basis 6-31G*
}

set_num_threads( 4 )
memory 2 gb

molecule MOL {
0 1

O	 2.713839	 1.587843	 -0.416800
C	 2.375062	 0.891844	 -1.324310
C	 1.091156	 0.082382	 -1.288312
C	 3.212322	 0.770823	 -2.581093
C	 0.291004	 0.242674	 0.000989
H	 0.492001	 0.369451	 -2.151442
H	 1.351233	 -0.962491	 -1.452637
C	 -0.994322	 -0.586602	 0.000262
H	 0.053302	 1.292043	 0.144002
H	 0.913363	 -0.041601	 0.843607
C	 -2.259874	 0.272531	 0.000494
H	 -1.004862	 -1.240012	 -0.870939
H	 -1.005220	 -1.241071	 0.870675
C	 -3.549786	 -0.549746	 -0.000374
H	 -2.250389	 0.926680	 -0.869574
H	 -2.250838	 0.925513	 0.871430
C	 -4.809590	 0.315458	 -0.000369
H	 -3.560515	 -1.202009	 -0.871156
H	 -3.561123	 -1.202955	 0.869711
H	 -4.844746	 0.956611	 -0.876632
H	 -5.706986	 -0.295590	 -0.001609
H	 -4.845960	 0.954827	 0.877144
H	 2.638615	 1.080013	 -3.449932
H	 4.094758	 1.389124	 -2.492522
H	 3.507969	 -0.261947	 -2.741137

	symmetry c1
}
set optking {
	frozen_dihedral = ("
		9 5 8 12
	")
}

ee = optimize('scf')
oeprop('DIPOLE', 'QUADRUPOLE', 'MULLIKEN_CHARGES')
f=open( 'psi4out.xyz', 'w' )
f.write( "25  " )
f.write( str(ee) + "\n" )
f.write( MOL.save_string_xyz() )
f.close()
--------------------------------------------------------------------------

    Molecular point group: c1
  Charge       = 0
  Multiplicity = 1
  Basis Set: 6-31G*
  Basis Set:
  @DF-RHF Final Energy:  -387.13083240393490
    Total Energy =                       -387.1308324039346189
    Molecular point group: c1
  Basis Set: 6-31G*
  Basis Set:
  Basis Set: 6-31G*
  Basis Set:
  @DF-RHF Final Energy:  -387.13106909767811
    Total Energy =                       -387.1310690976777096
  Basis Set: 6-31G*
  Basis Set:
  Basis Set: 6-31G*
  Basis Set:
  @DF-RHF Final Energy:  -387.13106930558206
    Total Energy =                       -387.1310693055816046
  Basis Set: 6-31G*
  Basis Set:
  Basis Set: 6-31G*
  Basis Set:
  @DF-RHF Final Energy:  -387.13112885611804
    Total Energy =                       -387.1311288561180390
  Basis Set: 6-31G*
  Basis Set:
  Basis Set: 6-31G*
  Basis Set:
  @DF-RHF Final Energy:  -387.13115236047565
    Total Energy =                       -387.1311523604753120
  Basis Set: 6-31G*
  Basis Set:
  Basis Set: 6-31G*
  Basis Set:
  @DF-RHF Final Energy:  -387.13115350556853
    Total Energy =                       -387.1311535055681361
  Basis Set: 6-31G*
  Basis Set:
  Charge       = 0
  Multiplicity = 1
  Basis Set: 6-31G*
  Basis Set:

    Orbital Energies (a.u.)
    -----------------------

    Doubly Occupied:

       1A    -20.550549     2A    -11.326067     3A    -11.232191
       4A    -11.228326     5A    -11.216764     6A    -11.216225
       7A    -11.215929     8A    -11.214831     9A    -11.209200
      10A     -1.395710    11A     -1.092404    12A     -1.056065
      13A     -1.013686    14A     -0.968919    15A     -0.891456
      16A     -0.815579    17A     -0.790807    18A     -0.731882
      19A     -0.658322    20A     -0.646340    21A     -0.638474
      22A     -0.621528    23A     -0.597488    24A     -0.577768
      25A     -0.569182    26A     -0.564999    27A     -0.540010
      28A     -0.522540    29A     -0.518014    30A     -0.491750
      31A     -0.484156    32A     -0.478096    33A     -0.464281
      34A     -0.460234    35A     -0.445561    36A     -0.399487

  @DF-RHF Final Energy:  -387.13115357834675

   => Energetics <=

    Nuclear Repulsion Energy =            440.7752026373310059
    One-Electron Energy =               -1398.1230692962876674
    Two-Electron Energy =                 570.2167130806099067
    DFT Exchange-Correlation Energy =       0.0000000000000000
    Empirical Dispersion Energy =           0.0000000000000000
    PCM Polarization Energy =               0.0000000000000000
    EFP Energy =                            0.0000000000000000
    Total Energy =                       -387.1311535783468116
    Molecular point group: c1
  Basis Set: 6-31G*
  Basis Set:

  -Total Gradient:
     Atom            X                  Y                   Z
    ------   -----------------  -----------------  -----------------
       1       -0.000005206927     0.000022857578    -0.000014597766
       2        0.000022721614    -0.000039095703     0.000019341802
       3       -0.000035086416     0.000002638270    -0.000006997439
       4        0.000007635664     0.000005016008     0.000001814213
       5       -0.000094344165     0.000018508479     0.001377632218
       6        0.000011147117    -0.000003924479     0.000005640560
       7       -0.000004764557    -0.000007894718     0.000002906993
       8        0.000772910909    -0.001067723267     0.000546665032
       9       -0.000121707239     0.000145323189    -0.001309012534
      10       -0.000020208116    -0.000027445505     0.000026230835
      11        0.000038951313     0.000023142466     0.000044740147
      12       -0.000571956856     0.000939822336    -0.000707214738
      13        0.000016584073     0.000002881946     0.000025404096
      14        0.000001117135    -0.000007083287    -0.000013705198
      15        0.000008166961     0.000001251233     0.000013471394
      16       -0.000006245738    -0.000012688577     0.000007207451
      17       -0.000008940460    -0.000004839484    -0.000013703860
      18       -0.000003748936    -0.000008308009     0.000001839863
      19       -0.000002506062     0.000009894257    -0.000000635305
      20       -0.000001730399     0.000001154161     0.000001209491
      21       -0.000006356253     0.000002868979    -0.000003323054
      22        0.000004040087    -0.000004218295    -0.000001219560
      23       -0.000005711907     0.000006082319     0.000013281065
      24        0.000003318345     0.000001399479    -0.000004984764
      25        0.000001920807     0.000000380623    -0.000011990944

  **** Optimization is complete! (in 7 steps) ****
    Final optimized geometry and variables:
    Molecular point group: c1

    Geometry (in Angstrom), charge = 0, multiplicity = 1:

    O            2.926154543833     1.266775215238     0.191964538169
    C            2.591773453927     0.555473531725    -0.705459799955
    C            1.322232997620    -0.274904656130    -0.650180276633
    C            3.420716709961     0.435959981352    -1.967953269516
    C            0.532817854205    -0.121384864422     0.648423540141
    H            0.707485753871    -0.001532729856    -1.507174706631
    H            1.596493367471    -1.316264578919    -0.812704267001
    C           -0.773624373868    -0.945770784093     0.655659313344
    H            0.309953059166     0.930736392222     0.787727972811
    H            1.169177241160    -0.403552624768     1.478915378592
    C           -2.036019196757    -0.079101417516     0.643489944838
    H           -0.802358577544    -1.605336210700    -0.209367160504
    H           -0.799159741793    -1.592938137790     1.528025092599
    C           -3.330390986933    -0.892893938809     0.616611793738
    H           -2.009359438537     0.582860001705    -0.221354005398
    H           -2.034735700024     0.567228421079     1.519234306921
    C           -4.585272752916    -0.020447951512     0.608258484807
    H           -3.333280210634    -1.537061071265    -0.260406606042
    H           -3.356989086221    -1.554451972743     1.479995905724
    H           -4.605352410416     0.629403132200    -0.262143112863
    H           -5.485985128033    -0.626226483863     0.589157447629
    H           -4.629723995836     0.610527526826     1.491396142993
    H            2.834268548907     0.725427280941    -2.835086632432
    H            4.292402395716     1.071135766165    -1.893432461070
    H            3.733901543841    -0.592891069385    -2.119679460017

  Mulliken Charges: (a.u.)
   Center  Symbol    Alpha    Beta     Spin     Total
       1     O     4.26113  4.26113  0.00000 -0.52226
       2     C     2.73622  2.73622  0.00000  0.52757
       3     C     3.21228  3.21228  0.00000 -0.42457
       4     C     3.28670  3.28670  0.00000 -0.57340
       5     C     3.15196  3.15196  0.00000 -0.30391
       6     H     0.41010  0.41010  0.00000  0.17980
       7     H     0.40956  0.40956  0.00000  0.18088
       8     C     3.15799  3.15799  0.00000 -0.31597
       9     H     0.40876  0.40876  0.00000  0.18249
      10     H     0.40982  0.40982  0.00000  0.18037
      11     C     3.15229  3.15229  0.00000 -0.30458
      12     H     0.42373  0.42373  0.00000  0.15253
      13     H     0.41861  0.41861  0.00000  0.16278
      14     C     3.15218  3.15218  0.00000 -0.30436
      15     H     0.42548  0.42548  0.00000  0.14904
      16     H     0.42101  0.42101  0.00000  0.15797
      17     C     3.23918  3.23918  0.00000 -0.47837
      18     H     0.42393  0.42393  0.00000  0.15214
      19     H     0.42264  0.42264  0.00000  0.15473
      20     H     0.42207  0.42207  0.00000  0.15587
      21     H     0.41934  0.41934  0.00000  0.16133
      22     H     0.42105  0.42105  0.00000  0.15791
      23     H     0.40884  0.40884  0.00000  0.18231
      24     H     0.39647  0.39647  0.00000  0.20705
      25     H     0.40868  0.40868  0.00000  0.18265

   Total alpha = 36.00000, Total beta = 36.00000, Total charge =  0.00000
