                              Psi4 1.0.54 Driver

  ==> Input File <==

--------------------------------------------------------------------------
set {
	reference rhf
	basis cc-pvtz
}

set_num_threads( 4 )
memory 2 gb

molecule MOL {
0 1

H	 4.243971	 0.013615	 2.164209
C	 3.480327	 -0.550563	 1.642042
C	 2.185864	 0.247803	 1.534209
H	 3.868900	 -0.800832	 0.660505
H	 3.328248	 -1.478646	 2.182922
C	 1.083995	 -0.508688	 0.807177
H	 2.366279	 1.182280	 1.014625
H	 1.840862	 0.510270	 2.531536
N	 -0.122148	 0.283547	 0.700788
H	 1.417794	 -0.749875	 -0.197599
H	 0.907302	 -1.463864	 1.310666
C	 -1.215959	 -0.382435	 0.027143
H	 -0.414371	 0.576225	 1.609779
C	 -2.451944	 0.502410	 -0.038737
H	 -0.893364	 -0.623006	 -0.981438
H	 -1.475867	 -1.333044	 0.502400
C	 -3.752217	 -0.292550	 0.005776
H	 -2.407325	 1.093801	 -0.946480
H	 -2.431979	 1.206234	 0.790023
H	 -3.817783	 -0.982946	 -0.828547
H	 -4.612613	 0.364348	 -0.042306
H	 -3.830160	 -0.871666	 0.919868

	symmetry c1
}
set optking {
	frozen_dihedral = ("
		15 12 14 18
	")
}

ee,wfn = optimize('scf', return_wfn=True)
oeprop( wfn, 'DIPOLE', 'QUADRUPOLE', 'MULLIKEN_CHARGES')
f=open( 'psi4out.xyz', 'w' )
f.write( "22  " )
f.write( str(ee) + "\n" )
f.write( MOL.save_string_xyz() )
f.close()
--------------------------------------------------------------------------

    Molecular point group: c1
  Charge       = 0
  Multiplicity = 1
  Basis Set: CC-PVTZ
  Basis Set:
  @DF-RHF Final Energy:  -290.48646733627203
    Total Energy =                       -290.4864673362719714
    Molecular point group: c1
  Basis Set: CC-PVTZ
  Basis Set:
  Basis Set: CC-PVTZ
  Basis Set:
  @DF-RHF Final Energy:  -290.48678357224776
    Total Energy =                       -290.4867835722476457
  Basis Set: CC-PVTZ
  Basis Set:
  Basis Set: CC-PVTZ
  Basis Set:
  @DF-RHF Final Energy:  -290.48687432381587
    Total Energy =                       -290.4868743238159823
  Basis Set: CC-PVTZ
  Basis Set:
  Basis Set: CC-PVTZ
  Basis Set:
  @DF-RHF Final Energy:  -290.48687620225581
    Total Energy =                       -290.4868762022559849
  Basis Set: CC-PVTZ
  Basis Set:
  Charge       = 0
  Multiplicity = 1
  Basis Set: CC-PVTZ
  Basis Set:

    Orbital Energies (a.u.)
    -----------------------

    Doubly Occupied:

       1A    -15.527916     2A    -11.236471     3A    -11.235872
       4A    -11.211947     5A    -11.211767     6A    -11.207506
       7A    -11.207259     8A     -1.206801     9A     -1.059440
      10A     -1.026436    11A     -0.928309    12A     -0.869017
      13A     -0.811440    14A     -0.794138    15A     -0.669584
      16A     -0.629417    17A     -0.617436    18A     -0.607408
      19A     -0.576045    20A     -0.563061    21A     -0.536448
      22A     -0.528501    23A     -0.510318    24A     -0.486494
      25A     -0.482678    26A     -0.473753    27A     -0.465857
      28A     -0.451359    29A     -0.360994

  @DF-RHF Final Energy:  -290.48687653674767

   => Energetics <=

    Nuclear Repulsion Energy =            313.7016928182799802
    One-Electron Energy =               -1013.3897964922523443
    Two-Electron Energy =                 409.2012271372246914
    DFT Exchange-Correlation Energy =       0.0000000000000000
    Empirical Dispersion Energy =           0.0000000000000000
    PCM Polarization Energy =               0.0000000000000000
    EFP Energy =                            0.0000000000000000
    Total Energy =                       -290.4868765367476726
    Molecular point group: c1
  Basis Set: CC-PVTZ
  Basis Set:

  -Total Gradient:
     Atom            X                  Y                   Z
    ------   -----------------  -----------------  -----------------
       1       -0.000001250986     0.000000297157    -0.000001129433
       2       -0.000001197140     0.000000773760    -0.000001135556
       3       -0.000000599285    -0.000004206548     0.000001228162
       4        0.000000687525    -0.000001028307    -0.000000295441
       5       -0.000000725731     0.000001519007    -0.000000434407
       6       -0.000008241322     0.000016801732     0.000003680017
       7        0.000000891615     0.000001460367     0.000001477594
       8        0.000000095949     0.000001238756     0.000000510290
       9       -0.000007273659    -0.000034599943    -0.000006883325
      10        0.000001497116    -0.000003444191    -0.000000303136
      11        0.000004798627    -0.000005772584     0.000001947684
      12       -0.003958053404    -0.005425434677    -0.000540431802
      13        0.000000291180    -0.000003979739    -0.000011380033
      14        0.003499501454     0.005041728236     0.002888743969
      15        0.002800932137     0.003785839223     0.000002674151
      16       -0.000008951695     0.000024002596    -0.000005376718
      17       -0.000013752006     0.000011744933     0.000015495139
      18       -0.002298623346    -0.003380781473    -0.002341188349
      19        0.000001198618    -0.000016784529    -0.000000875704
      20        0.000006987904    -0.000005225556    -0.000001115550
      21       -0.000009560004    -0.000001695739    -0.000002778551
      22       -0.000008653551    -0.000002452483    -0.000002429003

  **** Optimization is complete! (in 5 steps) ****
    Final optimized geometry and variables:
    Molecular point group: c1

    Geometry (in Angstrom), charge = 0, multiplicity = 1:

    H            4.382100973158     0.139022385957     1.444131190476
    C            3.614411211946    -0.427927310846     0.930933164831
    C            2.311551308892     0.359940375910     0.851309781031
    H            3.988080456733    -0.667641570742    -0.058985947118
    H            3.479474279704    -1.361183988724     1.467443466632
    C            1.204014546362    -0.400260646480     0.136704107241
    H            2.475223221917     1.299947822227     0.336168859426
    H            1.981302095862     0.611446366503     1.856431771898
    N           -0.008944812754     0.383789874375     0.053388558480
    H            1.524795258723    -0.633657565209    -0.874210535626
    H            1.042095906324    -1.359683819934     0.637430343740
    C           -1.113579134332    -0.292865944577    -0.597529720667
    H           -0.284570627418     0.675493614939     0.967782729917
    C           -2.340685802439     0.616589697197    -0.695238691551
    H           -0.773223027491    -0.546915799843    -1.595641316116
    H           -1.376680306715    -1.225848557735    -0.093784761140
    C           -3.652374504465    -0.164513230310    -0.724035757002
    H           -2.276541849498     1.204639009685    -1.603492236295
    H           -2.348619749676     1.309542246835     0.139060729787
    H           -3.669098264876    -0.871602984135    -1.547337313482
    H           -4.500593308831     0.499393433495    -0.844623707436
    H           -3.797339810674    -0.725810217636     0.192995310573

  Mulliken Charges: (a.u.)
   Center  Symbol    Alpha    Beta     Spin     Total
       1     H     0.44773  0.44773  0.00000  0.10455
       2     C     3.15360  3.15360  0.00000 -0.30719
       3     C     3.08038  3.08038  0.00000 -0.16076
       4     H     0.45475  0.45475  0.00000  0.09050
       5     H     0.45613  0.45613  0.00000  0.08773
       6     C     3.02068  3.02068  0.00000 -0.04136
       7     H     0.44908  0.44908  0.00000  0.10184
       8     H     0.45971  0.45971  0.00000  0.08057
       9     N     3.64021  3.64021  0.00000 -0.28043
      10     H     0.45951  0.45951  0.00000  0.08098
      11     H     0.47575  0.47575  0.00000  0.04850
      12     C     3.02845  3.02845  0.00000 -0.05691
      13     H     0.44479  0.44479  0.00000  0.11043
      14     C     3.08036  3.08036  0.00000 -0.16071
      15     H     0.45779  0.45779  0.00000  0.08443
      16     H     0.47119  0.47119  0.00000  0.05762
      17     C     3.15311  3.15311  0.00000 -0.30622
      18     H     0.45092  0.45092  0.00000  0.09817
      19     H     0.45582  0.45582  0.00000  0.08837
      20     H     0.45501  0.45501  0.00000  0.08999
      21     H     0.44849  0.44849  0.00000  0.10302
      22     H     0.45655  0.45655  0.00000  0.08690

   Total alpha = 29.00000, Total beta = 29.00000, Total charge = -0.00000

*** Psi4 exiting successfully. Buy a developer a beer!
