  ==> Input File <==

--------------------------------------------------------------------------
set {
	reference rhf
	basis 6-31G*
}

set_num_threads( 4 )
memory 2 gb

molecule MOL {
0 1

H	 -2.798360	 -0.862255	 -0.071053
N	 -1.863561	 -0.715187	 0.256814
C	 -1.344686	 0.554728	 -0.219830
H	 -1.300452	 -1.461917	 -0.101532
C	 -0.985101	 1.439996	 0.954961
H	 -0.465962	 0.457792	 -0.858930
H	 -2.117152	 1.048968	 -0.801041
O	 0.064255	 0.835046	 1.654944
H	 -0.681722	 2.426239	 0.604357
H	 -1.851352	 1.558657	 1.602080
C	 0.441214	 1.504212	 2.815844
H	 1.253101	 0.949004	 3.265599
H	 0.784036	 2.514466	 2.599410
H	 -0.381428	 1.563565	 3.525453

	symmetry c1
}
set optking {
	frozen_dihedral = ("
		6 3 2 4
	")
}

ee = optimize('scf')
oeprop('DIPOLE', 'QUADRUPOLE', 'MULLIKEN_CHARGES')
f=open( 'psi4out.xyz', 'w' )
f.write( "14  " )
f.write( str(ee) + "\n" )
f.write( MOL.save_string_xyz() )
f.close()
--------------------------------------------------------------------------

    Molecular point group: c1
  Charge       = 0
  Multiplicity = 1
  Basis Set: 6-31G*
  Basis Set:
  @DF-RHF Final Energy:  -248.11774517706215
    Total Energy =                       -248.1177451770621474
    Molecular point group: c1
  Basis Set: 6-31G*
  Basis Set:
  Basis Set: 6-31G*
  Basis Set:
  @DF-RHF Final Energy:  -248.11885815814779
    Total Energy =                       -248.1188581581476456
  Basis Set: 6-31G*
  Basis Set:
  Basis Set: 6-31G*
  Basis Set:
  @DF-RHF Final Energy:  -248.11903812122762
    Total Energy =                       -248.1190381212276179
  Basis Set: 6-31G*
  Basis Set:
  Basis Set: 6-31G*
  Basis Set:
  @DF-RHF Final Energy:  -248.11906366903403
    Total Energy =                       -248.1190636690340625
  Basis Set: 6-31G*
  Basis Set:
  Charge       = 0
  Multiplicity = 1
  Basis Set: 6-31G*
  Basis Set:

    Orbital Energies (a.u.)
    -----------------------

    Doubly Occupied:

       1A    -20.547252     2A    -15.530509     3A    -11.258862
       4A    -11.258232     5A    -11.242603     6A     -1.372897
       7A     -1.172338     8A     -0.996462     9A     -0.900987
      10A     -0.813145    11A     -0.679884    12A     -0.668453
      13A     -0.632940    14A     -0.626531    15A     -0.598768
      16A     -0.529231    17A     -0.516290    18A     -0.507692
      19A     -0.466079    20A     -0.408280    21A     -0.379113

  @DF-RHF Final Energy:  -248.11906485491113

   => Energetics <=

    Nuclear Repulsion Energy =            193.3452619521804650
    One-Electron Energy =                -720.7155599581354863
    Two-Electron Energy =                 279.2512331510438344
    DFT Exchange-Correlation Energy =       0.0000000000000000
    Empirical Dispersion Energy =           0.0000000000000000
    PCM Polarization Energy =               0.0000000000000000
    EFP Energy =                            0.0000000000000000
    Total Energy =                       -248.1190648549111302
    Molecular point group: c1
  Basis Set: 6-31G*
  Basis Set:

  -Total Gradient:
     Atom            X                  Y                   Z
    ------   -----------------  -----------------  -----------------
       1       -0.000014913360     0.000022284772    -0.000021112173
       2        0.001478274820     0.000144842910     0.002512213860
       3       -0.001369306346    -0.000078678929    -0.002359511291
       4       -0.000975041858    -0.000093923467    -0.001631098696
       5       -0.000142783552    -0.000059533215     0.000108592963
       6        0.000958705554     0.000076021453     0.001443356266
       7        0.000010461071    -0.000025847641     0.000040075691
       8        0.000021376173     0.000005729820    -0.000082630696
       9        0.000056963203    -0.000053722081     0.000009200951
      10       -0.000028979802     0.000033452936    -0.000011020812
      11        0.000011365420     0.000047829708    -0.000006112539
      12       -0.000005626556    -0.000005934587    -0.000010150664
      13        0.000006710946    -0.000001742473     0.000018881630
      14       -0.000007205717    -0.000010779208    -0.000010684493

  **** Optimization is complete! (in 5 steps) ****
    Final optimized geometry and variables:
    Molecular point group: c1

    Geometry (in Angstrom), charge = 0, multiplicity = 1:

    H           -2.106793578635    -1.567056326234    -1.231259547616
    N           -1.186775787987    -1.440254055477    -0.861532846856
    C           -0.606686419576    -0.175347398350    -1.301984826597
    H           -0.639954927759    -2.220075616171    -1.162610059535
    C           -0.248546460772     0.711994895319    -0.124027932392
    H            0.303986735933    -0.341143726564    -1.868966897749
    H           -1.296003714806     0.364975877071    -1.945673343792
    O            0.846774750598     0.155026874013     0.535907324114
    H           -0.000764769639     1.716101822661    -0.473840561230
    H           -1.101227603368     0.789903447919     0.547719840811
    C            1.191720124005     0.799720028814     1.718356063588
    H            2.050603881170     0.288635344121     2.131962574765
    H            1.454387623697     1.842578560715     1.544854503090
    H            0.379819095912     0.765186759913     2.442132856417

  Mulliken Charges: (a.u.)
   Center  Symbol    Alpha    Beta     Spin     Total
       1     H     0.33275  0.33275  0.00000  0.33450
       2     N     3.92155  3.92155  0.00000 -0.84310
       3     C     3.07931  3.07931  0.00000 -0.15861
       4     H     0.32820  0.32820  0.00000  0.34361
       5     C     2.97452  2.97452  0.00000  0.05096
       6     H     0.41562  0.41562  0.00000  0.16875
       7     H     0.42521  0.42521  0.00000  0.14959
       8     O     4.30340  4.30340  0.00000 -0.60680
       9     H     0.43727  0.43727  0.00000  0.12545
      10     H     0.42945  0.42945  0.00000  0.14110
      11     C     3.07765  3.07765  0.00000 -0.15529
      12     H     0.41356  0.41356  0.00000  0.17288
      13     H     0.43289  0.43289  0.00000  0.13423
      14     H     0.42863  0.42863  0.00000  0.14275

   Total alpha = 21.00000, Total beta = 21.00000, Total charge = -0.00000
