  ==> Input File <==

--------------------------------------------------------------------------
set {
	reference rhf
	basis 6-31G*
}

set_num_threads( 4 )
memory 2 gb

molecule MOL {
0 1

H	 -3.261111	 -0.295142	 1.469456
C	 -3.306842	 -0.277400	 0.373456
C	 -2.660244	 0.921717	 -0.272021
O	 -3.838538	 -1.161155	 -0.216482
C	 -2.228522	 0.649612	 -1.719719
H	 -3.349563	 1.755933	 -0.211761
H	 -1.782180	 1.170502	 0.322760
C	 -3.403283	 0.422701	 -2.674574
H	 -1.639026	 1.492902	 -2.067053
H	 -1.564809	 -0.213358	 -1.742637
C	 -2.958716	 0.164182	 -4.115526
H	 -4.057548	 1.291612	 -2.646659
H	 -4.003347	 -0.416759	 -2.328498
C	 -4.136525	 -0.046352	 -5.070717
H	 -2.351457	 1.000671	 -4.452059
H	 -2.313689	 -0.713102	 -4.141915
C	 -3.738572	 -0.390591	 -6.510580
H	 -4.760978	 0.845689	 -5.074607
H	 -4.759142	 -0.850121	 -4.683398
C	 -3.012878	 0.731373	 -7.255015
H	 -4.638752	 -0.648935	 -7.062742
H	 -3.117599	 -1.284074	 -6.508846
H	 -3.604135	 1.643332	 -7.258644
H	 -2.052172	 0.961657	 -6.806699
H	 -2.830562	 0.452546	 -8.288461

	symmetry c1
}
set optking {
	frozen_dihedral = ("
		6 3 2 4
	")
}

ee = optimize('scf')
oeprop('DIPOLE', 'QUADRUPOLE', 'MULLIKEN_CHARGES')
f=open( 'psi4out.xyz', 'w' )
f.write( "25  " )
f.write( str(ee) + "\n" )
f.write( MOL.save_string_xyz() )
f.close()
--------------------------------------------------------------------------

    Molecular point group: c1
  Charge       = 0
  Multiplicity = 1
  Basis Set: 6-31G*
  Basis Set:
  @DF-RHF Final Energy:  -387.11920166596377
    Total Energy =                       -387.1192016659637147
    Molecular point group: c1
  Basis Set: 6-31G*
  Basis Set:
  Basis Set: 6-31G*
  Basis Set:
  @DF-RHF Final Energy:  -387.12121516490208
    Total Energy =                       -387.1212151649016278
  Basis Set: 6-31G*
  Basis Set:
  Basis Set: 6-31G*
  Basis Set:
  @DF-RHF Final Energy:  -387.11999056162438
    Total Energy =                       -387.1199905616243768
  Basis Set: 6-31G*
  Basis Set:
  Basis Set: 6-31G*
  Basis Set:
  @DF-RHF Final Energy:  -387.12172474923057
    Total Energy =                       -387.1217247492309070
  Basis Set: 6-31G*
  Basis Set:
  Basis Set: 6-31G*
  Basis Set:
  @DF-RHF Final Energy:  -387.12177490829561
    Total Energy =                       -387.1217749082953787
  Basis Set: 6-31G*
  Basis Set:
  Charge       = 0
  Multiplicity = 1
  Basis Set: 6-31G*
  Basis Set:

    Orbital Energies (a.u.)
    -----------------------

    Doubly Occupied:

       1A    -20.564718     2A    -11.329492     3A    -11.237613
       4A    -11.223706     5A    -11.212493     6A    -11.210766
       7A    -11.210284     8A    -11.209904     9A    -11.206210
      10A     -1.404961    11A     -1.093994    12A     -1.063043
      13A     -1.008876    14A     -0.940910    15A     -0.874910
      16A     -0.813479    17A     -0.776537    18A     -0.767114
      19A     -0.685659    20A     -0.651151    21A     -0.628709
      22A     -0.615158    23A     -0.605879    24A     -0.587906
      25A     -0.558679    26A     -0.549864    27A     -0.535368
      28A     -0.513461    29A     -0.503499    30A     -0.497463
      31A     -0.477823    32A     -0.472490    33A     -0.457236
      34A     -0.451909    35A     -0.436161    36A     -0.408550

  @DF-RHF Final Energy:  -387.12177476018968

   => Energetics <=

    Nuclear Repulsion Energy =            443.5274766769888970
    One-Electron Energy =               -1403.7265524242498032
    Two-Electron Energy =                 573.0773009870705437
    DFT Exchange-Correlation Energy =       0.0000000000000000
    Empirical Dispersion Energy =           0.0000000000000000
    PCM Polarization Energy =               0.0000000000000000
    EFP Energy =                            0.0000000000000000
    Total Energy =                       -387.1217747601903056
    Molecular point group: c1
  Basis Set: 6-31G*
  Basis Set:

  -Total Gradient:
     Atom            X                  Y                   Z
    ------   -----------------  -----------------  -----------------
       1        0.000032575654     0.000117969295    -0.000048835173
       2        0.003764926098    -0.001751756017    -0.000492376846
       3       -0.000327995175     0.001836963550     0.002714758670
       4       -0.002659082652     0.001116903836    -0.000157003677
       5        0.000150571904     0.000163609552     0.000086418452
       6       -0.001019671880    -0.001111797576    -0.002198868408
       7        0.000083400650    -0.000045438055    -0.000014080639
       8        0.000111090360     0.000026891618     0.000014569359
       9        0.000091060822    -0.000100433793    -0.000018290600
      10       -0.000037340312    -0.000048887582     0.000004558973
      11       -0.000066165913     0.000020200545    -0.000047001198
      12        0.000014832876    -0.000136056660     0.000006635504
      13       -0.000106794878    -0.000219738461     0.000051244191
      14       -0.000021049187     0.000067756336    -0.000008972275
      15        0.000054981200     0.000021211405     0.000014797264
      16       -0.000104521266     0.000024938100     0.000068736861
      17        0.000015074653     0.000022062820    -0.000000666797
      18       -0.000016710739    -0.000003267176    -0.000008569173
      19        0.000038780673    -0.000000497715     0.000020993178
      20        0.000002512738    -0.000003020676     0.000001226757
      21       -0.000000848094     0.000005787474     0.000006467746
      22       -0.000006991904    -0.000000841644    -0.000001424934
      23       -0.000000616965    -0.000004738189     0.000001115358
      24        0.000001727878     0.000003739631     0.000008146823
      25        0.000006253461    -0.000001560620    -0.000003579414

  **** Optimization is complete! (in 6 steps) ****
    Final optimized geometry and variables:
    Molecular point group: c1

    Geometry (in Angstrom), charge = 0, multiplicity = 1:

    H            0.074783860652    -0.267220396428     4.621856261793
    C            0.055818102669    -0.387729731040     3.532582931092
    C            0.531444558303     0.814006787582     2.752204796388
    O           -0.354495388526    -1.396364259177     3.055807847998
    C            0.953810409060     0.520155055282     1.308105304952
    H           -0.290756613829     1.530314122640     2.757714213343
    H            1.341911134604     1.274634520788     3.311430553159
    C           -0.217443612724     0.325388880603     0.341706701168
    H            1.566694076548     1.347790478201     0.959912666234
    H            1.588165393704    -0.361601369076     1.294750950585
    C            0.239781512915     0.068240164654    -1.095474206395
    H           -0.845512114099     1.215390548451     0.362529974578
    H           -0.832338126082    -0.500207072591     0.681815333077
    C           -0.930662348839    -0.091177579214    -2.069442210735
    H            0.883026285628     0.884286291116    -1.416456494539
    H            0.850579518083    -0.832732047158    -1.120125079616
    C           -0.526342460730    -0.448027271194    -3.504414963744
    H           -1.517650345879     0.826157897688    -2.080897185884
    H           -1.591306879108    -0.869237827398    -1.693284226004
    C            0.262002395429     0.642052532793    -4.232840795041
    H           -1.428008498805    -0.664094664350    -4.072346073674
    H            0.053667188876    -1.368590766640    -3.495632503729
    H           -0.288969087366     1.578808099220    -4.246669105302
    H            1.222689996360     0.830216864868    -3.765080283459
    H            0.452545714686     0.356931072657    -5.263030416298

  Mulliken Charges: (a.u.)
   Center  Symbol    Alpha    Beta     Spin     Total
       1     H     0.42769  0.42769  0.00000  0.14462
       2     C     2.83715  2.83715  0.00000  0.32570
       3     C     3.21333  3.21333  0.00000 -0.42667
       4     O     4.23714  4.23714  0.00000 -0.47428
       5     C     3.15220  3.15220  0.00000 -0.30439
       6     H     0.40342  0.40342  0.00000  0.19315
       7     H     0.40914  0.40914  0.00000  0.18173
       8     C     3.15718  3.15718  0.00000 -0.31436
       9     H     0.41937  0.41937  0.00000  0.16126
      10     H     0.41317  0.41317  0.00000  0.17367
      11     C     3.15499  3.15499  0.00000 -0.30998
      12     H     0.42807  0.42807  0.00000  0.14387
      13     H     0.40229  0.40229  0.00000  0.19542
      14     C     3.15271  3.15271  0.00000 -0.30542
      15     H     0.42395  0.42395  0.00000  0.15211
      16     H     0.42219  0.42219  0.00000  0.15561
      17     C     3.15235  3.15235  0.00000 -0.30470
      18     H     0.42542  0.42542  0.00000  0.14916
      19     H     0.42008  0.42008  0.00000  0.15983
      20     C     3.24100  3.24100  0.00000 -0.48199
      21     H     0.42126  0.42126  0.00000  0.15747
      22     H     0.42291  0.42291  0.00000  0.15418
      23     H     0.42292  0.42292  0.00000  0.15415
      24     H     0.42045  0.42045  0.00000  0.15910
      25     H     0.41962  0.41962  0.00000  0.16076

   Total alpha = 36.00000, Total beta = 36.00000, Total charge = -0.00000
