                              Psi4 1.0.54 Driver

  ==> Input File <==

--------------------------------------------------------------------------
set {
	reference rhf
	basis cc-pvtz
}

set_num_threads( 4 )
memory 2 gb

molecule MOL {
0 1

H	 -1.793759	 -0.050215	 -2.229996
C	 -1.295030	 -0.057698	 -1.283873
C	 -1.937335	 0.400488	 -0.089443
C	 -0.039388	 -0.499941	 -1.179863
H	 -2.947106	 0.762482	 -0.139235
C	 -1.291083	 0.380364	 1.080399
H	 0.507574	 -0.858850	 -2.029073
N	 0.640204	 -0.530428	 -0.000115
H	 -1.739663	 0.714923	 1.992982
C	 0.077831	 -0.102624	 1.190074
C	 2.006991	 -1.033007	 -0.000020
O	 0.691204	 -0.136382	 2.222002
H	 2.182444	 -1.636914	 -0.880881
H	 2.678769	 -0.195442	 -0.002236
H	 2.183828	 -1.633244	 0.883082

	symmetry c1
}
set optking {
	frozen_dihedral = ("
		10 8 11 13
	")
}

ee,wfn = optimize('scf', return_wfn=True)
oeprop( wfn, 'DIPOLE', 'QUADRUPOLE', 'MULLIKEN_CHARGES')
f=open( 'psi4out.xyz', 'w' )
f.write( "15  " )
f.write( str(ee) + "\n" )
f.write( MOL.save_string_xyz() )
f.close()
--------------------------------------------------------------------------

    Molecular point group: c1
  Charge       = 0
  Multiplicity = 1
  Basis Set: CC-PVTZ
  Basis Set:
  @DF-RHF Final Energy:  -360.72257062857472
    Total Energy =                       -360.7225706285743740
    Molecular point group: c1
  Basis Set: CC-PVTZ
  Basis Set:
  Basis Set: CC-PVTZ
  Basis Set:
  @DF-RHF Final Energy:  -360.72321269791365
    Total Energy =                       -360.7232126979138229
  Basis Set: CC-PVTZ
  Basis Set:
  Basis Set: CC-PVTZ
  Basis Set:
  @DF-RHF Final Energy:  -360.72327686780096
    Total Energy =                       -360.7232768678009052
  Basis Set: CC-PVTZ
  Basis Set:
  Basis Set: CC-PVTZ
  Basis Set:
  @DF-RHF Final Energy:  -360.72325715476677
    Total Energy =                       -360.7232571547666566
  Basis Set: CC-PVTZ
  Basis Set:
  Charge       = 0
  Multiplicity = 1
  Basis Set: CC-PVTZ
  Basis Set:

    Orbital Energies (a.u.)
    -----------------------

    Doubly Occupied:

       1A    -20.501912     2A    -15.617566     3A    -11.338013
       4A    -11.294285     5A    -11.265475     6A    -11.258141
       7A    -11.229735     8A    -11.227900     9A     -1.391046
      10A     -1.285821    11A     -1.118814    12A     -1.029228
      13A     -0.972590    14A     -0.876384    15A     -0.838897
      16A     -0.719531    17A     -0.702170    18A     -0.663902
      19A     -0.653384    20A     -0.626059    21A     -0.611881
      22A     -0.574894    23A     -0.553691    24A     -0.550682
      25A     -0.530884    26A     -0.484369    27A     -0.420557
      28A     -0.410596    29A     -0.310260

  @DF-RHF Final Energy:  -360.72330112841746

   => Energetics <=

    Nuclear Repulsion Energy =            358.7731234155727407
    One-Electron Energy =               -1200.8755241115318313
    Two-Electron Energy =                 481.3790995675416298
    DFT Exchange-Correlation Energy =       0.0000000000000000
    Empirical Dispersion Energy =           0.0000000000000000
    PCM Polarization Energy =               0.0000000000000000
    EFP Energy =                            0.0000000000000000
    Total Energy =                       -360.7233011284174609
    Molecular point group: c1
  Basis Set: CC-PVTZ
  Basis Set:

  -Total Gradient:
     Atom            X                  Y                   Z
    ------   -----------------  -----------------  -----------------
       1       -0.000006121119    -0.000000431495    -0.000000772616
       2        0.000192002928    -0.000031816303    -0.000028806697
       3       -0.000047734079     0.000026466898     0.000177004258
       4       -0.000220713346    -0.000021733230    -0.000206628658
       5        0.000009017161     0.000004376145    -0.000009021392
       6       -0.000157915589     0.000049493707    -0.000059343218
       7        0.000013918586     0.000014570616     0.000024427775
       8        0.000321646548     0.000921655249     0.000186926231
       9        0.000013504232     0.000004430523     0.000013388869
      10       -0.000198226722    -0.000856561287    -0.000332659874
      11        0.000227106286     0.000489808749    -0.000465355201
      12        0.000102372866     0.000047109529     0.000286439311
      13       -0.000259627994    -0.000725264779     0.000443999774
      14        0.000007656030     0.000035111276     0.000011878750
      15        0.000003114213     0.000042784402    -0.000041477309

  **** Optimization is complete! (in 5 steps) ****
    Final optimized geometry and variables:
    Molecular point group: c1

    Geometry (in Angstrom), charge = 0, multiplicity = 1:

    H           -1.731336920392     0.176129844248    -2.494463362300
    C           -1.226853769229     0.163300081246    -1.551465986121
    C           -1.863283797764     0.611459548352    -0.350969117247
    C            0.029430997616    -0.283399516288    -1.459353930962
    H           -2.874212505038     0.971172991751    -0.393671150847
    C           -1.211630868034     0.584924587852     0.816613219300
    H            0.568097955922    -0.638034027887    -2.314670346442
    N            0.711266232403    -0.323253072826    -0.282766057481
    H           -1.655395402528     0.913635333481     1.733776750547
    C            0.160292355179     0.111914267150     0.908581318915
    C            2.081447224354    -0.811795272458    -0.247624346389
    O            0.801247476187     0.088334584293     1.924267034030
    H            2.259774579289    -1.425929951265    -1.117377917045
    H            2.784541043434     0.010444758570    -0.231478971843
    H            2.227551003444    -1.399735807747     0.642292368634

  Mulliken Charges: (a.u.)
   Center  Symbol    Alpha    Beta     Spin     Total
       1     H     0.41393  0.41393  0.00000  0.17213
       2     C     3.10584  3.10584  0.00000 -0.21168
       3     C     3.06017  3.06017  0.00000 -0.12035
       4     C     3.03646  3.03646  0.00000 -0.07292
       5     H     0.41842  0.41842  0.00000  0.16316
       6     C     3.11829  3.11829  0.00000 -0.23659
       7     H     0.42031  0.42031  0.00000  0.15938
       8     N     3.50948  3.50948  0.00000 -0.01897
       9     H     0.40919  0.40919  0.00000  0.18161
      10     C     2.84537  2.84537  0.00000  0.30925
      11     C     3.09480  3.09480  0.00000 -0.18960
      12     O     4.23600  4.23600  0.00000 -0.47201
      13     H     0.45527  0.45527  0.00000  0.08945
      14     H     0.44483  0.44483  0.00000  0.11033
      15     H     0.43161  0.43161  0.00000  0.13678

   Total alpha = 29.00000, Total beta = 29.00000, Total charge = -0.00000

*** Psi4 exiting successfully. Buy a developer a beer!
