                              Psi4 1.0.54 Driver

  ==> Input File <==

--------------------------------------------------------------------------
set {
	reference rhf
	basis cc-pvtz
}

set_num_threads( 4 )
memory 2 gb

molecule MOL {
0 1

H	 -2.997682	 0.313128	 2.018727
O	 -2.153609	 0.593318	 1.716949
C	 -2.021813	 0.336996	 0.342658
C	 -0.669613	 0.837286	 -0.127252
H	 -2.101897	 -0.729713	 0.149162
H	 -2.814417	 0.833263	 -0.214012
C	 0.490865	 -0.082543	 0.241244
H	 -0.708709	 0.967192	 -1.204587
H	 -0.507562	 1.822272	 0.303070
C	 1.839800	 0.429565	 -0.255472
H	 0.305636	 -1.070211	 -0.165276
H	 0.527397	 -0.195943	 1.322876
C	 3.001144	 -0.485193	 0.119072
H	 1.804373	 0.541073	 -1.335756
H	 2.020437	 1.423114	 0.146921
H	 2.866892	 -1.477297	 -0.298806
H	 3.943543	 -0.095749	 -0.249061
H	 3.085064	 -0.590459	 1.195790

	symmetry c1
}
set optking {
	frozen_dihedral = ("
		2 3 4 8
	")
}

ee,wfn = optimize('scf', return_wfn=True)
oeprop( wfn, 'DIPOLE', 'QUADRUPOLE', 'MULLIKEN_CHARGES')
f=open( 'psi4out.xyz', 'w' )
f.write( "18  " )
f.write( str(ee) + "\n" )
f.write( MOL.save_string_xyz() )
f.close()
--------------------------------------------------------------------------

    Molecular point group: c1
  Charge       = 0
  Multiplicity = 1
  Basis Set: CC-PVTZ
  Basis Set:
  @DF-RHF Final Energy:  -271.28597166710057
    Total Energy =                       -271.2859716671005117
    Molecular point group: c1
  Basis Set: CC-PVTZ
  Basis Set:
  Basis Set: CC-PVTZ
  Basis Set:
  @DF-RHF Final Energy:  -271.28617249543777
    Total Energy =                       -271.2861724954378815
  Basis Set: CC-PVTZ
  Basis Set:
  Basis Set: CC-PVTZ
  Basis Set:
  @DF-RHF Final Energy:  -271.28622269604318
    Total Energy =                       -271.2862226960430689
  Basis Set: CC-PVTZ
  Basis Set:
  Basis Set: CC-PVTZ
  Basis Set:
  @DF-RHF Final Energy:  -271.28622729328282
    Total Energy =                       -271.2862272932828773
  Basis Set: CC-PVTZ
  Basis Set:
  Charge       = 0
  Multiplicity = 1
  Basis Set: CC-PVTZ
  Basis Set:

    Orbital Energies (a.u.)
    -----------------------

    Doubly Occupied:

       1A    -20.546065     2A    -11.265764     3A    -11.209964
       4A    -11.209825     5A    -11.206704     6A    -11.203509
       7A     -1.363570     8A     -1.077298     9A     -1.010368
      10A     -0.914616    11A     -0.819120    12A     -0.786400
      13A     -0.708560    14A     -0.638266    15A     -0.631840
      16A     -0.581555    17A     -0.571921    18A     -0.560411
      19A     -0.525889    20A     -0.500361    21A     -0.488661
      22A     -0.470213    23A     -0.460475    24A     -0.452349
      25A     -0.429689

  @DF-RHF Final Energy:  -271.28622814765680

   => Energetics <=

    Nuclear Repulsion Energy =            248.6887327721428278
    One-Electron Energy =                -860.6831341770441668
    Two-Electron Energy =                 340.7081732572443116
    DFT Exchange-Correlation Energy =       0.0000000000000000
    Empirical Dispersion Energy =           0.0000000000000000
    PCM Polarization Energy =               0.0000000000000000
    EFP Energy =                            0.0000000000000000
    Total Energy =                       -271.2862281476569706
    Molecular point group: c1
  Basis Set: CC-PVTZ
  Basis Set:

  -Total Gradient:
     Atom            X                  Y                   Z
    ------   -----------------  -----------------  -----------------
       1       -0.000003858822     0.000007994180     0.000055618626
       2       -0.000976287944     0.002045603586    -0.000481126619
       3        0.001032257569    -0.002056410962     0.000664192448
       4        0.000817950613    -0.002938243110    -0.000603876838
       5       -0.000011143172     0.000021259060    -0.000005721506
       6       -0.000010823971     0.000007679969     0.000026321069
       7       -0.000011692449     0.000032599216    -0.000005360668
       8       -0.000842959132     0.002820690896     0.000332022852
       9        0.000011571897     0.000018050586     0.000014006421
      10        0.000011296524     0.000015822026     0.000022421380
      11       -0.000030416572     0.000019815715     0.000006654627
      12       -0.000005085176     0.000006830780    -0.000011629664
      13        0.000008151269    -0.000001040250    -0.000024314899
      14        0.000006926113    -0.000002597874     0.000017546716
      15        0.000015637784    -0.000001564624    -0.000000891207
      16       -0.000000932126     0.000002331729     0.000007045231
      17       -0.000005903271    -0.000009604699    -0.000005033036
      18       -0.000004689131     0.000010783777    -0.000007874939

  **** Optimization is complete! (in 5 steps) ****
    Final optimized geometry and variables:
    Molecular point group: c1

    Geometry (in Angstrom), charge = 0, multiplicity = 1:

    H           -2.937545012266    -0.006587380386     1.707069875499
    O           -2.145978410837     0.350791137741     1.349584165480
    C           -2.062017212533     0.065983777715    -0.023745764236
    C           -0.715064217616     0.541137268284    -0.538259223246
    H           -2.180695147699    -1.000298676473    -0.203422520835
    H           -2.858039310400     0.579668071098    -0.556661599018
    C            0.449415638601    -0.366047769808    -0.155907030907
    H           -0.773887077152     0.655727799723    -1.617195797444
    H           -0.549275116911     1.537786718632    -0.140178027215
    C            1.803846809340     0.169282228472    -0.610749590101
    H            0.291557045291    -1.352329268487    -0.587116231976
    H            0.455555208074    -0.497649495220     0.921260732721
    C            2.965009501813    -0.746377861230    -0.238138394110
    H            1.791202570840     0.314011764315    -1.687979622956
    H            1.965352143646     1.150817728311    -0.173916648852
    H            2.850586405691    -1.726925176456    -0.688498276661
    H            3.911561088774    -0.337684175092    -0.573050759263
    H            3.025024579048    -0.882887195222     0.836428013328

  Mulliken Charges: (a.u.)
   Center  Symbol    Alpha    Beta     Spin     Total
       1     H     0.39538  0.39538  0.00000  0.20924
       2     O     4.19968  4.19968  0.00000 -0.39935
       3     C     2.97186  2.97186  0.00000  0.05628
       4     C     3.09081  3.09081  0.00000 -0.18161
       5     H     0.47467  0.47467  0.00000  0.05066
       6     H     0.46594  0.46594  0.00000  0.06811
       7     C     3.08777  3.08777  0.00000 -0.17554
       8     H     0.45297  0.45297  0.00000  0.09407
       9     H     0.45146  0.45146  0.00000  0.09707
      10     C     3.08398  3.08398  0.00000 -0.16796
      11     H     0.45890  0.45890  0.00000  0.08221
      12     H     0.44701  0.44701  0.00000  0.10598
      13     C     3.14990  3.14990  0.00000 -0.29980
      14     H     0.45651  0.45651  0.00000  0.08697
      15     H     0.45347  0.45347  0.00000  0.09306
      16     H     0.45609  0.45609  0.00000  0.08783
      17     H     0.44909  0.44909  0.00000  0.10182
      18     H     0.45451  0.45451  0.00000  0.09098

   Total alpha = 25.00000, Total beta = 25.00000, Total charge = -0.00000

*** Psi4 exiting successfully. Buy a developer a beer!
