  ==> Input File <==

--------------------------------------------------------------------------
set {
	reference rhf
	basis cc-pvtz
}

set_num_threads( 4 )
memory 2 gb

molecule MOL {
0 1

H	 2.646708	 0.758099	 0.000000
O	 2.258158	 -0.097743	 0.000000
C	 0.911162	 -0.015915	 0.000000
C	 0.224001	 -0.765133	 -0.940896
C	 0.217660	 0.777841	 0.894106
H	 0.778417	 -1.375139	 -1.626472
C	 -1.152572	 -0.713071	 -0.978443
H	 0.750806	 1.359338	 1.624359
C	 -1.164448	 0.820342	 0.844787
H	 -1.679814	 -1.295819	 -1.709758
C	 -1.858646	 0.078530	 -0.087809
H	 -1.695239	 1.439428	 1.542870
H	 -2.929812	 0.113893	 -0.123150

	symmetry c1
}
set optking {
	frozen_dihedral = ("
		4 3 2 1
	")
}

ee = optimize('scf')
oeprop('DIPOLE', 'QUADRUPOLE', 'MULLIKEN_CHARGES')
f=open( 'psi4out.xyz', 'w' )
f.write( "13  " )
f.write( str(ee) + "\n" )
f.write( MOL.save_string_xyz() )
f.close()
--------------------------------------------------------------------------

    Molecular point group: c1
  Charge       = 0
  Multiplicity = 1
  Basis Set: CC-PVTZ
  Basis Set:
  @DF-RHF Final Energy:  -305.66762867477291
    Total Energy =                       -305.6676286747728000
    Molecular point group: c1
  Basis Set: CC-PVTZ
  Basis Set:
  Basis Set: CC-PVTZ
  Basis Set:
  @DF-RHF Final Energy:  -305.66783159963484
    Total Energy =                       -305.6678315996347237
  Basis Set: CC-PVTZ
  Basis Set:
  Basis Set: CC-PVTZ
  Basis Set:
  @DF-RHF Final Energy:  -305.66785833636550
    Total Energy =                       -305.6678583363657822
  Basis Set: CC-PVTZ
  Basis Set:
  Charge       = 0
  Multiplicity = 1
  Basis Set: CC-PVTZ
  Basis Set:

    Orbital Energies (a.u.)
    -----------------------

    Doubly Occupied:

       1A    -20.576341     2A    -11.292303     3A    -11.234437
       4A    -11.233190     5A    -11.226322     6A    -11.223313
       7A    -11.222831     8A     -1.404701     9A     -1.153134
      10A     -1.022569    11A     -1.008385    12A     -0.844419
      13A     -0.827550    14A     -0.739714    15A     -0.686107
      16A     -0.652601    17A     -0.626283    18A     -0.598406
      19A     -0.591959    20A     -0.538850    21A     -0.517404
      22A     -0.496878    23A     -0.477744    24A     -0.342441
      25A     -0.323229

  @DF-RHF Final Energy:  -305.66786123928250

   => Energetics <=

    Nuclear Repulsion Energy =            273.5240074265909698
    One-Electron Energy =                -956.6615131310169318
    Two-Electron Energy =                 377.4696444651432330
    DFT Exchange-Correlation Energy =       0.0000000000000000
    Empirical Dispersion Energy =           0.0000000000000000
    PCM Polarization Energy =               0.0000000000000000
    EFP Energy =                            0.0000000000000000
    Total Energy =                       -305.6678612392827290
    Molecular point group: c1
  Basis Set: CC-PVTZ
  Basis Set:

  -Total Gradient:
     Atom            X                  Y                   Z
    ------   -----------------  -----------------  -----------------
       1       -0.000065470755    -0.000011134406    -0.002511670346
       2        0.000195621545     0.000559041264     0.002528214510
       3       -0.000405745461    -0.001789696573     0.001198824557
       4       -0.000050254913     0.001382240515    -0.001199791719
       5        0.000233585330    -0.000181035794    -0.000033001219
       6        0.000043375208    -0.000019043417    -0.000039102666
       7        0.000274906619    -0.000205738974    -0.000061740703
       8       -0.000005483905     0.000009033007    -0.000004207175
       9       -0.000326833827    -0.000049444869    -0.000116025774
      10        0.000025095553     0.000031368300     0.000018009245
      11        0.000082043656     0.000284259374     0.000225535683
      12        0.000019637768     0.000006318857    -0.000006302200
      13       -0.000020476812    -0.000016167280     0.000001257807

  **** Optimization is complete! (in 4 steps) ****
    Final optimized geometry and variables:
    Molecular point group: c1

    Geometry (in Angstrom), charge = 0, multiplicity = 1:

    H            2.648282219253     0.744488872780     0.054615055728
    O            2.264788336894    -0.114140760360     0.053803260867
    C            0.906562141112    -0.032412642406     0.028417706538
    C            0.220174538121    -0.779350557627    -0.909850601332
    C            0.216808621115     0.761588064194     0.925419695712
    H            0.774172100123    -1.385891919839    -1.599090159147
    C           -1.159793850829    -0.737703666620    -0.939166634009
    H            0.758386977762     1.329409499224     1.658591226647
    C           -1.163984699854     0.807819670484     0.878383210286
    H           -1.689866877267    -1.322654072467    -1.666468780865
    C           -1.859200509504     0.057974673728    -0.050134149334
    H           -1.695227625572     1.427231807399     1.575731058820
    H           -2.930929880114     0.091185502280    -0.080341957682

  Mulliken Charges: (a.u.)
   Center  Symbol    Alpha    Beta     Spin     Total
       1     H     0.38566  0.38566  0.00000  0.22868
       2     O     4.18670  4.18670  0.00000 -0.37341
       3     C     2.86645  2.86645  0.00000  0.26710
       4     C     3.10837  3.10837  0.00000 -0.21674
       5     C     3.12222  3.12222  0.00000 -0.24444
       6     H     0.41684  0.41684  0.00000  0.16633
       7     C     3.06341  3.06341  0.00000 -0.12681
       8     H     0.42403  0.42403  0.00000  0.15195
       9     C     3.06768  3.06768  0.00000 -0.13537
      10     H     0.42192  0.42192  0.00000  0.15617
      11     C     3.09123  3.09123  0.00000 -0.18245
      12     H     0.42208  0.42208  0.00000  0.15585
      13     H     0.42342  0.42342  0.00000  0.15316

   Total alpha = 25.00000, Total beta = 25.00000, Total charge = -0.00000
