  ==> Input File <==

--------------------------------------------------------------------------
set {
	reference rhf
	basis 6-31G*
}

set_num_threads( 1 )
memory 2 gb

molecule MOL {
0 1

H	 -3.261111	 -0.295142	 1.469456
C	 -3.306842	 -0.277400	 0.373456
C	 -2.660244	 0.921717	 -0.272021
O	 -3.838538	 -1.161155	 -0.216482
C	 -1.154904	 0.726918	 -0.500623
H	 -3.180149	 1.133019	 -1.199253
H	 -2.814336	 1.767215	 0.397340
C	 -0.829445	 -0.352409	 -1.536205
H	 -0.730333	 1.673764	 -0.820791
H	 -0.674167	 0.484443	 0.445873
C	 0.673569	 -0.527646	 -1.762158
H	 -1.311203	 -0.098612	 -2.478194
H	 -1.258498	 -1.303200	 -1.225643
C	 0.994996	 -1.596525	 -2.810076
H	 1.098197	 0.427109	 -2.061934
H	 1.151214	 -0.793311	 -0.820000
C	 2.490726	 -1.865791	 -3.010974
H	 0.550545	 -1.312193	 -3.762605
H	 0.513340	 -2.527007	 -2.516948
C	 3.273598	 -0.693309	 -3.604285
H	 2.599270	 -2.724774	 -3.668480
H	 2.935694	 -2.153784	 -2.060719
H	 2.840749	 -0.373018	 -4.548385
H	 3.288241	 0.163751	 -2.939299
H	 4.304950	 -0.975409	 -3.793302

	symmetry c1
}
set optking {
	frozen_dihedral = ("
		6 3 5 8,
		3 5 8 12,
		12 8 11 14,
		8 11 14 18,
		20 17 14 18
	")
}

ee = energy('scf')
oeprop('DIPOLE', 'QUADRUPOLE', 'MULLIKEN_CHARGES')
f=open( 'psi4out.xyz', 'w' )
f.write( "25  " )
f.write( str(ee) + "\n" )
f.write( MOL.save_string_xyz() )
f.close()
--------------------------------------------------------------------------

    Molecular point group: c1

    Geometry (in Angstrom), charge = 0, multiplicity = 1:

       Center              X                  Y                   Z               Mass
    ------------   -----------------  -----------------  -----------------  -----------------
           H         -2.780937560703     0.247373222341     2.958305849418     1.007825032070
           C         -2.826668560703     0.265115222341     1.862305849418    12.000000000000
           C         -2.180070560703     1.464232222341     1.216828849418    12.000000000000
           O         -3.358364560703    -0.618639777659     1.272367849418    15.994914619560
           C         -0.674730560703     1.269433222341     0.988226849418    12.000000000000
           H         -2.699975560703     1.675534222341     0.289596849418     1.007825032070
           H         -2.334162560703     2.309730222341     1.886189849418     1.007825032070
           C         -0.349271560703     0.190106222341    -0.047355150582    12.000000000000
           H         -0.250159560703     2.216279222341     0.668058849418     1.007825032070
           H         -0.193993560703     1.026958222341     1.934722849418     1.007825032070
           C          1.153742439297     0.014869222341    -0.273308150582    12.000000000000
           H         -0.831029560703     0.443903222341    -0.989344150582     1.007825032070
           H         -0.778324560703    -0.760684777659     0.263206849418     1.007825032070
           C          1.475169439297    -1.054009777659    -1.321226150582    12.000000000000
           H          1.578370439297     0.969624222341    -0.573084150582     1.007825032070
           H          1.631387439297    -0.250795777659     0.668849849418     1.007825032070
           C          2.970899439297    -1.323275777659    -1.522124150582    12.000000000000
           H          1.030718439297    -0.769677777659    -2.273755150582     1.007825032070
           H          0.993513439297    -1.984491777659    -1.028098150582     1.007825032070
           C          3.753771439297    -0.150793777659    -2.115435150582    12.000000000000
           H          3.079443439297    -2.182258777659    -2.179630150582     1.007825032070
           H          3.415867439297    -1.611268777659    -0.571869150582     1.007825032070
           H          3.320922439297     0.169497222341    -3.059535150582     1.007825032070
           H          3.768414439297     0.706266222341    -1.450449150582     1.007825032070
           H          4.785123439297    -0.432893777659    -2.304452150582     1.007825032070

  Charge       = 0
  Multiplicity = 1
  Basis Set: 6-31G*
  Basis Set:

    Orbital Energies (a.u.)
    -----------------------

    Doubly Occupied:

       1A    -20.563167     2A    -11.326534     3A    -11.235198
       4A    -11.234488     5A    -11.217856     6A    -11.216135
       7A    -11.215569     8A    -11.213893     9A    -11.208722
      10A     -1.403247    11A     -1.100520    12A     -1.067319
      13A     -1.011294    14A     -0.941441    15A     -0.874863
      16A     -0.816704    17A     -0.784227    18A     -0.777217
      19A     -0.672693    20A     -0.661237    21A     -0.631020
      22A     -0.618899    23A     -0.595353    24A     -0.587700
      25A     -0.579921    26A     -0.549979    27A     -0.537057
      28A     -0.517952    29A     -0.508251    30A     -0.494235
      31A     -0.488741    32A     -0.475580    33A     -0.461568
      34A     -0.455721    35A     -0.438809    36A     -0.408514

  @DF-RHF Final Energy:  -387.12073347757519

   => Energetics <=

    Nuclear Repulsion Energy =            441.9869870577188067
    One-Electron Energy =               -1400.4322447566567007
    Two-Electron Energy =                 571.3245242213602069
    DFT Exchange-Correlation Energy =       0.0000000000000000
    Empirical Dispersion Energy =           0.0000000000000000
    PCM Polarization Energy =               0.0000000000000000
    EFP Energy =                            0.0000000000000000
    Total Energy =                       -387.1207334775776872

  Mulliken Charges: (a.u.)
   Center  Symbol    Alpha    Beta     Spin     Total
       1     H     0.43040  0.43040  0.00000  0.13920
       2     C     2.83854  2.83854  0.00000  0.32292
       3     C     3.20221  3.20221  0.00000 -0.40443
       4     O     4.23559  4.23559  0.00000 -0.47119
       5     C     3.16427  3.16427  0.00000 -0.32854
       6     H     0.40026  0.40026  0.00000  0.19949
       7     H     0.41395  0.41395  0.00000  0.17210
       8     C     3.15515  3.15515  0.00000 -0.31030
       9     H     0.41311  0.41311  0.00000  0.17378
      10     H     0.41911  0.41911  0.00000  0.16177
      11     C     3.15461  3.15461  0.00000 -0.30923
      12     H     0.41943  0.41943  0.00000  0.16115
      13     H     0.41077  0.41077  0.00000  0.17846
      14     C     3.15292  3.15292  0.00000 -0.30583
      15     H     0.42233  0.42233  0.00000  0.15535
      16     H     0.42449  0.42449  0.00000  0.15102
      17     C     3.15261  3.15261  0.00000 -0.30522
      18     H     0.42333  0.42333  0.00000  0.15335
      19     H     0.41995  0.41995  0.00000  0.16009
      20     C     3.24115  3.24115  0.00000 -0.48229
      21     H     0.42032  0.42032  0.00000  0.15937
      22     H     0.42346  0.42346  0.00000  0.15309
      23     H     0.42214  0.42214  0.00000  0.15571
      24     H     0.42077  0.42077  0.00000  0.15846
      25     H     0.41913  0.41913  0.00000  0.16174

   Total alpha = 36.00000, Total beta = 36.00000, Total charge =  0.00000
