  ==> Input File <==

--------------------------------------------------------------------------
set {
	reference rhf
	basis 6-31G*
}

set_num_threads( 4 )
memory 2 gb

molecule MOL {
0 1

O	 3.225979	 0.970355	 -0.599647
C	 2.701189	 0.057885	 -0.047330
C	 1.245376	 -0.013843	 0.345420
O	 3.347903	 -1.046386	 0.304773
C	 0.380886	 1.026576	 -0.363313
H	 0.910887	 -1.026128	 0.143953
H	 1.195686	 0.105920	 1.424718
C	 -1.079212	 1.036196	 0.101999
H	 0.424228	 0.858754	 -1.435263
H	 0.813365	 2.007129	 -0.196281
C	 -1.874126	 -0.227029	 -0.240763
H	 -1.572427	 1.891411	 -0.354147
H	 -1.115975	 1.205310	 1.177200
C	 -3.350889	 -0.123911	 0.145937
H	 -1.795037	 -0.420418	 -1.309484
H	 -1.439875	 -1.090059	 0.258812
C	 -4.153986	 -1.382568	 -0.187156
H	 -3.796660	 0.730336	 -0.360803
H	 -3.430419	 0.080134	 1.212586
C	 -5.628493	 -1.269966	 0.198655
H	 -4.074769	 -1.588490	 -1.252502
H	 -3.712525	 -2.236804	 0.321935
H	 -6.170880	 -2.177017	 -0.049702
H	 -6.107848	 -0.445250	 -0.321208
H	 -5.742677	 -1.097948	 1.265260
C	 4.728119	 -1.109107	 -0.004993
H	 4.882018	 -1.033965	 -1.071845
H	 5.068212	 -2.067527	 0.355250
H	 5.265056	 -0.311663	 0.488280

	symmetry c1
}
set optking {
	frozen_dihedral = ("
		6 3 2 1
	")
}

ee = optimize('scf')
oeprop('DIPOLE', 'QUADRUPOLE', 'MULLIKEN_CHARGES')
f=open( 'psi4out.xyz', 'w' )
f.write( "29  " )
f.write( str(ee) + "\n" )
f.write( MOL.save_string_xyz() )
f.close()
--------------------------------------------------------------------------

    Molecular point group: c1
  Charge       = 0
  Multiplicity = 1
  Basis Set: 6-31G*
  Basis Set:
  @DF-RHF Final Energy:  -501.04386297863471
    Total Energy =                       -501.0438629786349338
    Molecular point group: c1
  Basis Set: 6-31G*
  Basis Set:
  Basis Set: 6-31G*
  Basis Set:
  @DF-RHF Final Energy:  -501.04315424124377
    Total Energy =                       -501.0431542412437693
  Basis Set: 6-31G*
  Basis Set:
  Basis Set: 6-31G*
  Basis Set:
  @DF-RHF Final Energy:  -501.04393726166904
    Total Energy =                       -501.0439372616690434
  Basis Set: 6-31G*
  Basis Set:
  Basis Set: 6-31G*
  Basis Set:
  @DF-RHF Final Energy:  -501.04395711000689
    Total Energy =                       -501.0439571100069998
  Basis Set: 6-31G*
  Basis Set:
  Basis Set: 6-31G*
  Basis Set:
  @DF-RHF Final Energy:  -501.04394846341017
    Total Energy =                       -501.0439484634108567
  Basis Set: 6-31G*
  Basis Set:
  Basis Set: 6-31G*
  Basis Set:
  @DF-RHF Final Energy:  -501.04395804090018
    Total Energy =                       -501.0439580409004066
  Basis Set: 6-31G*
  Basis Set:
  Charge       = 0
  Multiplicity = 1
  Basis Set: 6-31G*
  Basis Set:

    Orbital Energies (a.u.)
    -----------------------

    Doubly Occupied:

       1A    -20.603823     2A    -20.544837     3A    -11.372067
       4A    -11.280696     5A    -11.234620     6A    -11.219469
       7A    -11.217778     8A    -11.216046     9A    -11.215910
      10A    -11.214508    11A    -11.209116    12A     -1.469245
      13A     -1.362394    14A     -1.098144    15A     -1.066825
      16A     -1.019481    17A     -0.977328    18A     -0.928680
      19A     -0.861669    20A     -0.799329    21A     -0.790516
      22A     -0.764492    23A     -0.700581    24A     -0.681923
      25A     -0.672246    26A     -0.650981    27A     -0.628393
      28A     -0.605000    29A     -0.595120    30A     -0.580995
      31A     -0.565425    32A     -0.551863    33A     -0.531264
      34A     -0.530331    35A     -0.515632    36A     -0.512898
      37A     -0.495818    38A     -0.477961    39A     -0.470212
      40A     -0.462577    41A     -0.459086    42A     -0.455633
      43A     -0.440267    44A     -0.435919

  @DF-RHF Final Energy:  -501.04395802028728

   => Energetics <=

    Nuclear Repulsion Energy =            610.1917712968830756
    One-Electron Energy =               -1891.4972606226338030
    Two-Electron Energy =                 780.2615313054642456
    DFT Exchange-Correlation Energy =       0.0000000000000000
    Empirical Dispersion Energy =           0.0000000000000000
    PCM Polarization Energy =               0.0000000000000000
    EFP Energy =                            0.0000000000000000
    Total Energy =                       -501.0439580202865955
    Molecular point group: c1
  Basis Set: 6-31G*
  Basis Set:

  -Total Gradient:
     Atom            X                  Y                   Z
    ------   -----------------  -----------------  -----------------
       1        0.000128752340     0.000224731972     0.000539101983
       2       -0.000159221920    -0.000368130012    -0.000661440435
       3       -0.000123491715     0.000292241108    -0.000405748708
       4        0.000003983422     0.000001917391    -0.000012580278
       5        0.000006845725     0.000004332078     0.000000485564
       6        0.000153795230    -0.000166999953     0.000529906373
       7       -0.000005797105     0.000004499621    -0.000012016043
       8       -0.000007429941     0.000002534012    -0.000008535164
       9        0.000007901553    -0.000004893956     0.000010071595
      10        0.000000057782     0.000012745185    -0.000006962402
      11        0.000004139505    -0.000003056494     0.000015118916
      12       -0.000010370200     0.000001996518     0.000006118688
      13        0.000002170052    -0.000006523110    -0.000002334037
      14       -0.000000037533     0.000001766204    -0.000002698049
      15        0.000007684209    -0.000004526467     0.000006293111
      16       -0.000007701146     0.000003121633     0.000004545060
      17       -0.000002527219     0.000003713705    -0.000006361702
      18       -0.000001891386     0.000005576819     0.000006735031
      19        0.000002809123    -0.000007934299    -0.000000378358
      20       -0.000001553449     0.000002228939    -0.000006142107
      21        0.000001305370    -0.000003985317    -0.000000808622
      22       -0.000000616527     0.000003366696     0.000002796111
      23       -0.000000433392     0.000000465782    -0.000001108004
      24       -0.000001313589     0.000000603580     0.000000858260
      25        0.000001427312    -0.000000759015    -0.000000322134
      26       -0.000000949311     0.000004181885     0.000014365949
      27       -0.000000454428     0.000000269773    -0.000004557577
      28        0.000002292540    -0.000000866995    -0.000002510158
      29        0.000000624684    -0.000002617286    -0.000001892865

  **** Optimization is complete! (in 7 steps) ****
    Final optimized geometry and variables:
    Molecular point group: c1

    Geometry (in Angstrom), charge = 0, multiplicity = 1:

    O            3.218327656481     1.167407724516    -0.580299003954
    C            2.700484003256     0.243637659369    -0.039950877730
    C            1.242304794831     0.154676527208     0.341875582940
    O            3.363451044887    -0.844556504497     0.330176353857
    C            0.378141967835     1.212364183937    -0.342114166979
    H            0.905954232678    -0.853969356712     0.133851802345
    H            1.198242049304     0.265985186155     1.423715328228
    C           -1.076996195857     1.226505096914     0.137921638024
    H            0.406865539275     1.058368319155    -1.417500211218
    H            0.821821440530     2.185433873294    -0.165811005150
    C           -1.884411529587    -0.027030511498    -0.210969572328
    H           -1.568770205188     2.090624271352    -0.302757565482
    H           -1.100741475032     1.383199009265     1.215371296292
    C           -3.356565306288     0.082333503638     0.191232499167
    H           -1.817187873858    -0.208991110934    -1.282534712630
    H           -1.451354973266    -0.898634009409     0.274481030166
    C           -4.172527596577    -1.165755327973    -0.150227285267
    H           -3.800556788772     0.946437436210    -0.300134344902
    H           -3.424320889738     0.273193468103     1.261123866009
    C           -5.642451048153    -1.046782938305     0.250870939265
    H           -4.104877496218    -1.358665344909    -1.218807660957
    H           -3.732986525381    -2.029778977564     0.343769006319
    H           -6.194177582842    -1.946403607554    -0.003871596781
    H           -6.120200953795    -0.211827000945    -0.253903030957
    H           -5.745322911457    -0.887548876703     1.320603363505
    C            4.754513240817    -0.870027567076     0.066677601067
    H            4.941555627118    -0.788752444387    -0.994356749617
    H            5.107648339427    -1.819801430373     0.437087166064
    H            5.253340934609    -0.059510013125     0.578362135420

  Mulliken Charges: (a.u.)
   Center  Symbol    Alpha    Beta     Spin     Total
       1     O     4.28617  4.28617  0.00000 -0.57233
       2     C     2.60401  2.60401  0.00000  0.79199
       3     C     3.21078  3.21078  0.00000 -0.42155
       4     O     4.30723  4.30723  0.00000 -0.61447
       5     C     3.15511  3.15511  0.00000 -0.31021
       6     H     0.39886  0.39886  0.00000  0.20228
       7     H     0.40095  0.40095  0.00000  0.19811
       8     C     3.15665  3.15665  0.00000 -0.31330
       9     H     0.41591  0.41591  0.00000  0.16817
      10     H     0.40491  0.40491  0.00000  0.19018
      11     C     3.15495  3.15495  0.00000 -0.30990
      12     H     0.41821  0.41821  0.00000  0.16358
      13     H     0.42366  0.42366  0.00000  0.15269
      14     C     3.15032  3.15032  0.00000 -0.30065
      15     H     0.42291  0.42291  0.00000  0.15418
      16     H     0.42334  0.42334  0.00000  0.15332
      17     C     3.15144  3.15144  0.00000 -0.30289
      18     H     0.42335  0.42335  0.00000  0.15330
      19     H     0.42394  0.42394  0.00000  0.15212
      20     C     3.23935  3.23935  0.00000 -0.47870
      21     H     0.42287  0.42287  0.00000  0.15427
      22     H     0.42339  0.42339  0.00000  0.15322
      23     H     0.41923  0.41923  0.00000  0.16153
      24     H     0.42155  0.42155  0.00000  0.15689
      25     H     0.42180  0.42180  0.00000  0.15639
      26     C     3.09262  3.09262  0.00000 -0.18524
      27     H     0.40875  0.40875  0.00000  0.18249
      28     H     0.40849  0.40849  0.00000  0.18302
      29     H     0.40925  0.40925  0.00000  0.18149

   Total alpha = 44.00000, Total beta = 44.00000, Total charge =  0.00000
