  ==> Input File <==

--------------------------------------------------------------------------
set {
	reference rhf
	basis 6-31G*
}

set_num_threads( 4 )
memory 2 gb

molecule MOL {
0 1

H	 -2.686060	 0.364365	 0.646619
O	 -2.035884	 -0.060112	 0.102722
C	 -0.955155	 0.788182	 -0.092531
C	 0.353668	 0.040312	 -0.004810
H	 -0.985057	 1.290372	 -1.054184
H	 -0.974469	 1.533190	 0.688632
F	 0.394464	 -0.937475	 -0.903053
F	 1.368604	 0.853376	 -0.249821
F	 0.546173	 -0.502608	 1.179981

	symmetry c1
}
set optking {
	frozen_dihedral = ("
		1 2 3 5
	")
}

ee = optimize('scf')
oeprop('DIPOLE', 'QUADRUPOLE', 'MULLIKEN_CHARGES')
f=open( 'psi4out.xyz', 'w' )
f.write( "9  " )
f.write( str(ee) + "\n" )
f.write( MOL.save_string_xyz() )
f.close()
--------------------------------------------------------------------------

    Molecular point group: c1
  Charge       = 0
  Multiplicity = 1
  Basis Set: 6-31G*
  Basis Set:
  @DF-RHF Final Energy:  -450.65783538821563
    Total Energy =                       -450.6578353882155170
    Molecular point group: c1
  Basis Set: 6-31G*
  Basis Set:
  Basis Set: 6-31G*
  Basis Set:
  @DF-RHF Final Energy:  -450.65917527411739
    Total Energy =                       -450.6591752741173877
  Basis Set: 6-31G*
  Basis Set:
  Basis Set: 6-31G*
  Basis Set:
  @DF-RHF Final Energy:  -450.65941907369177
    Total Energy =                       -450.6594190736918222
  Basis Set: 6-31G*
  Basis Set:
  Basis Set: 6-31G*
  Basis Set:
  @DF-RHF Final Energy:  -450.65942928032325
    Total Energy =                       -450.6594292803231383
  Basis Set: 6-31G*
  Basis Set:
  Charge       = 0
  Multiplicity = 1
  Basis Set: 6-31G*
  Basis Set:

    Orbital Energies (a.u.)
    -----------------------

    Doubly Occupied:

       1A    -26.336506     2A    -26.333145     3A    -26.332483
       4A    -20.588933     5A    -11.495540     6A    -11.309939
       7A     -1.733145     8A     -1.631035     9A     -1.629526
      10A     -1.400831    11A     -1.047627    12A     -0.916894
      13A     -0.824667    14A     -0.822817    15A     -0.784016
      16A     -0.736169    17A     -0.705693    18A     -0.695457
      19A     -0.664015    20A     -0.649457    21A     -0.635193
      22A     -0.634282    23A     -0.594627    24A     -0.530600
      25A     -0.478469

  @DF-RHF Final Energy:  -450.65943101171763

   => Energetics <=

    Nuclear Repulsion Energy =            276.9723555397731616
    One-Electron Energy =               -1176.2414429590544387
    Two-Electron Energy =                 448.6096564075635911
    DFT Exchange-Correlation Energy =       0.0000000000000000
    Empirical Dispersion Energy =           0.0000000000000000
    PCM Polarization Energy =               0.0000000000000000
    EFP Energy =                            0.0000000000000000
    Total Energy =                       -450.6594310117176860
    Molecular point group: c1
  Basis Set: 6-31G*
  Basis Set:

  -Total Gradient:
     Atom            X                  Y                   Z
    ------   -----------------  -----------------  -----------------
       1       -0.000044940675     0.000047154529    -0.000093908043
       2        0.000084374034     0.000043745142     0.000071410019
       3        0.000008054019    -0.000146306997     0.000005999201
       4        0.000053950569     0.000078494826     0.000133795830
       5       -0.000086861915     0.000034551680     0.000040013842
       6       -0.000018105824    -0.000012822803    -0.000000704880
       7        0.000026269651    -0.000003719216    -0.000014196276
       8        0.000014266630    -0.000061390252    -0.000048983829
       9       -0.000037006482     0.000020293094    -0.000093425866

  **** Optimization is complete! (in 5 steps) ****
    Final optimized geometry and variables:
    Molecular point group: c1

    Geometry (in Angstrom), charge = 0, multiplicity = 1:

    H           -2.675982164870     0.316167878887     0.618560007099
    O           -1.999916585100    -0.085660441097     0.094166476264
    C           -0.943067901298     0.798190077302    -0.099554676635
    C            0.349882672024     0.024621911281    -0.025606728803
    H           -0.993429561528     1.271009300045    -1.073703433975
    H           -0.898364973938     1.570352188301     0.659630748187
    F            0.402788180053    -0.938145890743    -0.924312609654
    F            1.369488440447     0.843283952278    -0.250026351010
    F            0.528455549480    -0.520234468291     1.163267750032

  Mulliken Charges: (a.u.)
   Center  Symbol    Alpha    Beta     Spin     Total
       1     H     0.27100  0.27100  0.00000  0.45801
       2     O     4.36350  4.36350  0.00000 -0.72699
       3     C     3.05438  3.05438  0.00000 -0.10876
       4     C     2.45381  2.45381  0.00000  1.09237
       5     H     0.40663  0.40663  0.00000  0.18674
       6     H     0.41023  0.41023  0.00000  0.17953
       7     F     4.67650  4.67650  0.00000 -0.35300
       8     F     4.68539  4.68539  0.00000 -0.37078
       9     F     4.67856  4.67856  0.00000 -0.35712

   Total alpha = 25.00000, Total beta = 25.00000, Total charge =  0.00000
