  ==> Input File <==

--------------------------------------------------------------------------
set {
	reference rhf
	basis 6-31G*
}

set_num_threads( 4 )
memory 2 gb

molecule MOL {
0 1

H	 -3.287079	 1.668613	 -0.334857
C	 -2.560568	 1.066552	 0.175402
C	 -2.076860	 -0.007332	 -0.404944
H	 -2.246425	 1.363858	 1.158170
O	 -1.180634	 -0.819263	 0.215062
H	 -2.372974	 -0.318232	 -1.391277
C	 0.051604	 -1.018856	 -0.387932
C	 1.043764	 0.054862	 -0.001873
H	 -0.017620	 -1.041351	 -1.469781
H	 0.437898	 -1.966374	 -0.042284
F	 2.212596	 -0.199467	 -0.571921
F	 0.652529	 1.252447	 -0.405055
F	 1.230877	 0.110694	 1.300533

	symmetry c1
}
set optking {
	frozen_dihedral = ("
		6 3 5 7
	")
}

ee = optimize('scf')
oeprop('DIPOLE', 'QUADRUPOLE', 'MULLIKEN_CHARGES')
f=open( 'psi4out.xyz', 'w' )
f.write( "13  " )
f.write( str(ee) + "\n" )
f.write( MOL.save_string_xyz() )
f.close()
--------------------------------------------------------------------------

    Molecular point group: c1
  Charge       = 0
  Multiplicity = 1
  Basis Set: 6-31G*
  Basis Set:
  @DF-RHF Final Energy:  -527.53325771269772
    Total Energy =                       -527.5332577126971501
    Molecular point group: c1
  Basis Set: 6-31G*
  Basis Set:
  Basis Set: 6-31G*
  Basis Set:
  @DF-RHF Final Energy:  -527.53363523142332
    Total Energy =                       -527.5336352314232045
  Basis Set: 6-31G*
  Basis Set:
  Basis Set: 6-31G*
  Basis Set:
  @DF-RHF Final Energy:  -527.53374113332495
    Total Energy =                       -527.5337411333248383
  Basis Set: 6-31G*
  Basis Set:
  Basis Set: 6-31G*
  Basis Set:
  @DF-RHF Final Energy:  -527.53378002865475
    Total Energy =                       -527.5337800286545189
  Basis Set: 6-31G*
  Basis Set:
  Basis Set: 6-31G*
  Basis Set:
  @DF-RHF Final Energy:  -527.53379753830279
    Total Energy =                       -527.5337975383029061
  Basis Set: 6-31G*
  Basis Set:
  Basis Set: 6-31G*
  Basis Set:
  @DF-RHF Final Energy:  -527.53379990165774
    Total Energy =                       -527.5337999016574031
  Basis Set: 6-31G*
  Basis Set:
  Charge       = 0
  Multiplicity = 1
  Basis Set: 6-31G*
  Basis Set:

    Orbital Energies (a.u.)
    -----------------------

    Doubly Occupied:

       1A    -26.340639     2A    -26.338697     3A    -26.337329
       4A    -20.602018     5A    -11.499584     6A    -11.315136
       7A    -11.295970     8A    -11.224061     9A     -1.737866
      10A     -1.635587    11A     -1.634441    12A     -1.430694
      13A     -1.079874    14A     -1.017573    15A     -0.922360
      16A     -0.833310    17A     -0.827050    18A     -0.813940
      19A     -0.790016    20A     -0.711846    21A     -0.710399
      22A     -0.687198    23A     -0.672864    24A     -0.663359
      25A     -0.651244    26A     -0.643203    27A     -0.639143
      28A     -0.582761    29A     -0.566512    30A     -0.527058
      31A     -0.480475    32A     -0.366824

  @DF-RHF Final Energy:  -527.53380039030799

   => Energetics <=

    Nuclear Repulsion Energy =            416.3240103797843403
    One-Electron Energy =               -1556.5575591357264784
    Two-Electron Energy =                 612.6997483656336954
    DFT Exchange-Correlation Energy =       0.0000000000000000
    Empirical Dispersion Energy =           0.0000000000000000
    PCM Polarization Energy =               0.0000000000000000
    EFP Energy =                            0.0000000000000000
    Total Energy =                       -527.5338003903084427
    Molecular point group: c1
  Basis Set: 6-31G*
  Basis Set:

  -Total Gradient:
     Atom            X                  Y                   Z
    ------   -----------------  -----------------  -----------------
       1       -0.000003661529    -0.000004081111     0.000003899275
       2        0.000022011322     0.000009028790    -0.000021280601
       3        0.003093339006     0.002620288595    -0.000958478821
       4       -0.000003463691    -0.000015669663     0.000007741085
       5       -0.001834002800    -0.002972034692    -0.001180774104
       6       -0.002030667958    -0.001387170398     0.001102021193
       7        0.000732882455     0.001743800301     0.001058265393
       8        0.000024871401    -0.000006245322     0.000041461802
       9       -0.000006641994    -0.000006728063    -0.000018207640
      10        0.000001247092     0.000018042580     0.000009743638
      11        0.000038165547    -0.000015754082    -0.000042233225
      12       -0.000005682915     0.000004963162    -0.000005849780
      13       -0.000028395935     0.000011559909     0.000003691784

  **** Optimization is complete! (in 7 steps) ****
    Final optimized geometry and variables:
    Molecular point group: c1

    Geometry (in Angstrom), charge = 0, multiplicity = 1:

    H           -3.458323326907     1.555764114747    -0.331768168761
    C           -2.697717620759     0.992363395080     0.174255538189
    C           -2.159738162718    -0.055914201172    -0.402339512115
    H           -2.400338440998     1.303524344156     1.158180392406
    O           -1.260674070896    -0.863170473443     0.233883621292
    H           -2.456431107119    -0.404184509241    -1.378199490231
    C           -0.038989551106    -1.074662997038    -0.393505867373
    C            0.984547453558    -0.030183292673    -0.007965313745
    H           -0.125738134475    -1.078500683799    -1.474710490408
    H            0.337703624428    -2.033215850094    -0.067494063620
    F            2.151116924480    -0.341093138634    -0.557095786900
    F            0.655225274405     1.177503856920    -0.428666820904
    F            1.155763585932     0.031496630497     1.297583059816

  Mulliken Charges: (a.u.)
   Center  Symbol    Alpha    Beta     Spin     Total
       1     H     0.40627  0.40627  0.00000  0.18745
       2     C     3.21484  3.21484  0.00000 -0.42968
       3     C     2.91394  2.91394  0.00000  0.17213
       4     H     0.39945  0.39945  0.00000  0.20110
       5     O     4.30419  4.30419  0.00000 -0.60838
       6     H     0.40847  0.40847  0.00000  0.18305
       7     C     3.05712  3.05712  0.00000 -0.11424
       8     C     2.45721  2.45721  0.00000  1.08559
       9     H     0.40781  0.40781  0.00000  0.18437
      10     H     0.39356  0.39356  0.00000  0.21289
      11     F     4.68392  4.68392  0.00000 -0.36783
      12     F     4.67721  4.67721  0.00000 -0.35442
      13     F     4.67601  4.67601  0.00000 -0.35202

   Total alpha = 32.00000, Total beta = 32.00000, Total charge = -0.00000
