  ==> Input File <==

--------------------------------------------------------------------------
set {
	reference rhf
	basis 6-31G*
}

set_num_threads( 4 )
memory 2 gb

molecule MOL {
0 1

H	 -1.836707	 0.607391	 -3.261791
C	 -2.415396	 0.088815	 -2.487311
C	 -1.762007	 -1.147560	 -1.924220
O	 -3.474740	 0.509170	 -2.151393
C	 -0.328423	 -0.887559	 -1.441011
H	 -2.387652	 -1.532323	 -1.127205
H	 -1.742180	 -1.889997	 -2.721120
C	 -0.252658	 0.041456	 -0.226725
H	 0.129773	 -1.840881	 -1.195006
H	 0.258553	 -0.471802	 -2.258546
C	 1.180775	 0.282413	 0.250794
H	 -0.838976	 -0.384849	 0.584658
H	 -0.716998	 0.996902	 -0.463474
C	 2.148627	 -0.814315	 -0.201312
H	 1.516199	 1.249228	 -0.115937
H	 1.192670	 0.346017	 1.338083
C	 3.580890	 -0.659131	 0.322722
H	 2.166869	 -0.852443	 -1.289387
H	 1.762857	 -1.776509	 0.128956
C	 4.324889	 0.564933	 -0.213704
H	 4.142010	 -1.551473	 0.056605
H	 3.564836	 -0.624694	 1.410140
H	 4.342616	 0.565491	 -1.300421
H	 3.866655	 1.493402	 0.110242
H	 5.353900	 0.572371	 0.132816

	symmetry c1
}
set optking {
	frozen_dihedral = ("
		12 8 11 14
	")
}

ee = optimize('scf')
oeprop('DIPOLE', 'QUADRUPOLE', 'MULLIKEN_CHARGES')
f=open( 'psi4out.xyz', 'w' )
f.write( "25  " )
f.write( str(ee) + "\n" )
f.write( MOL.save_string_xyz() )
f.close()
--------------------------------------------------------------------------

    Molecular point group: c1
  Charge       = 0
  Multiplicity = 1
  Basis Set: 6-31G*
  Basis Set:
  @DF-RHF Final Energy:  -387.11053602412642
    Total Energy =                       -387.1105360241256221
    Molecular point group: c1
  Basis Set: 6-31G*
  Basis Set:
  Basis Set: 6-31G*
  Basis Set:
  @DF-RHF Final Energy:  -387.11095630576881
    Total Energy =                       -387.1109563057685818
  Basis Set: 6-31G*
  Basis Set:
  Basis Set: 6-31G*
  Basis Set:
  @DF-RHF Final Energy:  -387.11402124418134
    Total Energy =                       -387.1140212441808899
  Basis Set: 6-31G*
  Basis Set:
  Basis Set: 6-31G*
  Basis Set:
  @DF-RHF Final Energy:  -387.11435727771487
    Total Energy =                       -387.1143572777145891
  Basis Set: 6-31G*
  Basis Set:
  @DF-RHF Final Energy:  -387.11130624250637
    Total Energy =                       -387.1113062425063163
  @DF-RHF Final Energy:  -387.11449436429257
    Total Energy =                       -387.1144943642926819
  @DF-RHF Final Energy:  -387.11449982722763
    Total Energy =                       -387.1144998272278599
  @DF-RHF Final Energy:  -387.11442817874791
    Total Energy =                       -387.1144281787476302
  Basis Set: 6-31G*
  Basis Set:
  @DF-RHF Final Energy:  -387.11450897737348
    Total Energy =                       -387.1145089773730206
  Basis Set: 6-31G*
  Basis Set:
  Basis Set: 6-31G*
  Basis Set:
  @DF-RHF Final Energy:  -387.11449843239609
    Total Energy =                       -387.1144984323958624
  Basis Set: 6-31G*
  Basis Set:
  Basis Set: 6-31G*
  Basis Set:
  @DF-RHF Final Energy:  -387.11450940352989
    Total Energy =                       -387.1145094035296097
  Basis Set: 6-31G*
  Basis Set:
  Charge       = 0
  Multiplicity = 1
  Basis Set: 6-31G*
  Basis Set:

    Orbital Energies (a.u.)
    -----------------------

    Doubly Occupied:

       1A    -20.561880     2A    -11.326118     3A    -11.235242
       4A    -11.234606     5A    -11.224571     6A    -11.220384
       7A    -11.219487     8A    -11.218820     9A    -11.211602
      10A     -1.401861    11A     -1.102961    12A     -1.069079
      13A     -1.010876    14A     -0.940355    15A     -0.885703
      16A     -0.824826    17A     -0.792721    18A     -0.766904
      19A     -0.663324    20A     -0.659199    21A     -0.632238
      22A     -0.626962    23A     -0.600845    24A     -0.590890
      25A     -0.587059    26A     -0.545296    27A     -0.541966
      28A     -0.524248    29A     -0.513576    30A     -0.503086
      31A     -0.486200    32A     -0.478562    33A     -0.457137
      34A     -0.451641    35A     -0.446021    36A     -0.409162

  @DF-RHF Final Energy:  -387.11451011574223

   => Energetics <=

    Nuclear Repulsion Energy =            443.7311289201624618
    One-Electron Energy =               -1403.7604630009502671
    Two-Electron Energy =                 572.9148239650455707
    DFT Exchange-Correlation Energy =       0.0000000000000000
    Empirical Dispersion Energy =           0.0000000000000000
    PCM Polarization Energy =               0.0000000000000000
    EFP Energy =                            0.0000000000000000
    Total Energy =                       -387.1145101157421777
    Molecular point group: c1
  Basis Set: 6-31G*
  Basis Set:

  -Total Gradient:
     Atom            X                  Y                   Z
    ------   -----------------  -----------------  -----------------
       1       -0.000048619369     0.000031910195    -0.000022432788
       2        0.000023633476    -0.000019249131     0.000090524492
       3        0.000020672618    -0.000051596420     0.000004938041
       4       -0.000001663745     0.000055263707    -0.000059373107
       5        0.000034007940     0.000009212814    -0.000006887858
       6        0.000012428088     0.000001474958     0.000000232617
       7        0.000026795905    -0.000027066273    -0.000002593527
       8        0.002309214524    -0.006130672902    -0.003671103352
       9       -0.000017564855    -0.000009088086    -0.000014184125
      10        0.000011642912    -0.000006075142    -0.000004905609
      11       -0.001645836468    -0.001722326866     0.006063235858
      12       -0.001530299560     0.005752518912     0.001566426285
      13       -0.000000667773     0.000007149971     0.000014265253
      14        0.000838075307     0.002113834811    -0.003908296590
      15       -0.000007948864     0.000020980512    -0.000000954997
      16       -0.000016531739    -0.000006271164     0.000000774514
      17        0.000013288860    -0.000004553031    -0.000037281036
      18       -0.000029651908    -0.000005994698    -0.000020191289
      19        0.000034043739    -0.000009869629     0.000007189725
      20       -0.000005316892    -0.000002111759     0.000003547569
      21        0.000006499168    -0.000002194976     0.000000811757
      22       -0.000014636819     0.000003741928    -0.000007651047
      23       -0.000006183404    -0.000000532563     0.000002465761
      24       -0.000007978976     0.000004403969     0.000002902967
      25        0.000002597837    -0.000002889136    -0.000001459514

  **** Optimization is complete! (in 12 steps) ****
    Final optimized geometry and variables:
    Molecular point group: c1

    Geometry (in Angstrom), charge = 0, multiplicity = 1:

    H           -2.233603218636     0.870530935027    -2.343678224590
    C           -2.811627923739     0.378088730912    -1.551632858007
    C           -2.217504680014    -0.907489277686    -1.034358108160
    O           -3.830106803601     0.857186877112    -1.170848588450
    C           -0.745191494537    -0.758569512058    -0.624800208851
    H           -2.827117220220    -1.258639421925    -0.209773559773
    H           -2.291776284211    -1.638641279333    -1.838493790282
    C           -0.564245169826     0.140755097256     0.600838265749
    H           -0.345896457400    -1.747496116130    -0.431004157446
    H           -0.179196748953    -0.360730803195    -1.465083874153
    C            0.887914027837     0.404838519887     1.066481428975
    H           -1.151984002858    -0.242099960729     1.431697566483
    H           -1.017596011887     1.106870957584     0.387539881040
    C            1.923091071959    -0.668599599198     0.709635404444
    H            1.216015064067     1.346370816441     0.635834808066
    H            0.885232324625     0.554969539044     2.142628426815
    C            3.316302370019    -0.405689350953     1.295127102728
    H            2.006649309185    -0.758208343073    -0.370380579279
    H            1.581694173416    -1.636396125425     1.071718488821
    C            4.019524291174     0.834606845676     0.740078076246
    H            3.938974415499    -1.274982357817     1.098485722895
    H            3.242152825519    -0.324997635036     2.377589260640
    H            4.089456553212     0.791614049192    -0.343685916733
    H            3.500159251700     1.750080021642     1.002453790654
    H            5.029081354911     0.910780805315     1.131872822660

  Mulliken Charges: (a.u.)
   Center  Symbol    Alpha    Beta     Spin     Total
       1     H     0.43268  0.43268  0.00000  0.13463
       2     C     2.83097  2.83097  0.00000  0.33805
       3     C     3.20817  3.20817  0.00000 -0.41634
       4     O     4.23790  4.23790  0.00000 -0.47580
       5     C     3.16900  3.16900  0.00000 -0.33799
       6     H     0.39961  0.39961  0.00000  0.20077
       7     H     0.40625  0.40625  0.00000  0.18750
       8     C     3.15904  3.15904  0.00000 -0.31808
       9     H     0.41006  0.41006  0.00000  0.17988
      10     H     0.41936  0.41936  0.00000  0.16127
      11     C     3.15586  3.15586  0.00000 -0.31171
      12     H     0.41664  0.41664  0.00000  0.16672
      13     H     0.41702  0.41702  0.00000  0.16595
      14     C     3.15690  3.15690  0.00000 -0.31381
      15     H     0.41942  0.41942  0.00000  0.16115
      16     H     0.41852  0.41852  0.00000  0.16295
      17     C     3.15225  3.15225  0.00000 -0.30450
      18     H     0.42291  0.42291  0.00000  0.15418
      19     H     0.42231  0.42231  0.00000  0.15538
      20     C     3.24179  3.24179  0.00000 -0.48359
      21     H     0.42050  0.42050  0.00000  0.15900
      22     H     0.42248  0.42248  0.00000  0.15505
      23     H     0.42269  0.42269  0.00000  0.15463
      24     H     0.41931  0.41931  0.00000  0.16138
      25     H     0.41833  0.41833  0.00000  0.16333

   Total alpha = 36.00000, Total beta = 36.00000, Total charge = -0.00000
