                              Psi4 1.0.54 Driver

  ==> Input File <==

--------------------------------------------------------------------------
set {
	reference rhf
	basis cc-pvtz
}

set_num_threads( 4 )
memory 2 gb

molecule MOL {
0 1

H	 -1.820450	 0.597803	 -3.277899
C	 -2.406345	 0.083433	 -2.503925
C	 -1.755059	 -1.144356	 -1.927513
O	 -3.468005	 0.499130	 -2.191864
C	 -0.325503	 -0.884997	 -1.442974
H	 -2.382674	 -1.526275	 -1.132799
H	 -1.733726	 -1.886468	 -2.722572
C	 -0.247837	 0.040196	 -0.230469
H	 0.132032	 -1.837679	 -1.199256
H	 0.260865	 -0.468595	 -2.258434
C	 1.181757	 0.280428	 0.247371
H	 -0.833003	 -0.386892	 0.579644
H	 -0.712275	 0.994453	 -0.465241
C	 2.151032	 -0.811012	 -0.202643
H	 1.515939	 1.247397	 -0.115449
H	 1.191514	 0.341223	 1.333422
C	 3.580021	 -0.656538	 0.320835
H	 2.170545	 -0.847575	 -1.289412
H	 1.766632	 -1.772905	 0.124928
C	 4.327657	 0.562694	 -0.213579
H	 4.138806	 -1.549270	 0.057813
H	 3.561991	 -0.620783	 1.406976
H	 4.355973	 0.557257	 -1.298551
H	 3.867136	 1.491650	 0.100501
H	 5.351524	 0.571613	 0.142204

	symmetry c1
}
set optking {
	frozen_dihedral = ("
		12 8 11 14
	")
}

ee,wfn = optimize('scf', return_wfn=True)
oeprop( wfn, 'DIPOLE', 'QUADRUPOLE', 'MULLIKEN_CHARGES')
f=open( 'psi4out.xyz', 'w' )
f.write( "25  " )
f.write( str(ee) + "\n" )
f.write( MOL.save_string_xyz() )
f.close()
--------------------------------------------------------------------------

    Molecular point group: c1
  Charge       = 0
  Multiplicity = 1
  Basis Set: CC-PVTZ
  Basis Set:
  @DF-RHF Final Energy:  -387.24875224234779
    Total Energy =                       -387.2487522423482460
    Molecular point group: c1
  Basis Set: CC-PVTZ
  Basis Set:
  Basis Set: CC-PVTZ
  Basis Set:
  @DF-RHF Final Energy:  -387.16217438264715
    Total Energy =                       -387.1621743826469810
  Basis Set: CC-PVTZ
  Basis Set:
  Basis Set: CC-PVTZ
  Basis Set:
  @DF-RHF Final Energy:  -387.23912817895217
    Total Energy =                       -387.2391281789520008
  Basis Set: CC-PVTZ
  Basis Set:
  Basis Set: CC-PVTZ
  Basis Set:
  @DF-RHF Final Energy:  -387.25184368030756
    Total Energy =                       -387.2518436803072746
  Basis Set: CC-PVTZ
  Basis Set:
  @DF-RHF Final Energy:  -387.25261899424333
    Total Energy =                       -387.2526189942434485
  @DF-RHF Final Energy:  -387.25210352117176
    Total Energy =                       -387.2521035211718754
  @DF-RHF Final Energy:  -387.25266282344950
    Total Energy =                       -387.2526628234493273
  Basis Set: CC-PVTZ
  Basis Set:
  @DF-RHF Final Energy:  -387.25266276722243
    Total Energy =                       -387.2526627672225459
  Basis Set: CC-PVTZ
  Basis Set:
  Basis Set: CC-PVTZ
  Basis Set:
  @DF-RHF Final Energy:  -387.25267763584293
    Total Energy =                       -387.2526776358427014
  Basis Set: CC-PVTZ
  Basis Set:
  Basis Set: CC-PVTZ
  Basis Set:
  @DF-RHF Final Energy:  -387.25268162084330
    Total Energy =                       -387.2526816208435321
  Basis Set: CC-PVTZ
  Basis Set:
  Charge       = 0
  Multiplicity = 1
  Basis Set: CC-PVTZ
  Basis Set:

    Orbital Energies (a.u.)
    -----------------------

    Doubly Occupied:

       1A    -20.551117     2A    -11.320841     3A    -11.233599
       4A    -11.232578     5A    -11.222407     6A    -11.218294
       7A    -11.217559     8A    -11.216758     9A    -11.209646
      10A     -1.406181    11A     -1.104278    12A     -1.070371
      13A     -1.012084    14A     -0.941453    15A     -0.886410
      16A     -0.825327    17A     -0.793186    18A     -0.767515
      19A     -0.666401    20A     -0.661351    21A     -0.633844
      22A     -0.628781    23A     -0.602077    24A     -0.592376
      25A     -0.588457    26A     -0.546266    27A     -0.542725
      28A     -0.527706    29A     -0.514670    30A     -0.503719
      31A     -0.487165    32A     -0.479802    33A     -0.457725
      34A     -0.452587    35A     -0.446367    36A     -0.411373

  @DF-RHF Final Energy:  -387.25268130949718

   => Energetics <=

    Nuclear Repulsion Energy =            444.3096138297331095
    One-Electron Energy =               -1405.1785958887826382
    Two-Electron Energy =                 573.6163007495526927
    DFT Exchange-Correlation Energy =       0.0000000000000000
    Empirical Dispersion Energy =           0.0000000000000000
    PCM Polarization Energy =               0.0000000000000000
    EFP Energy =                            0.0000000000000000
    Total Energy =                       -387.2526813094968929
    Molecular point group: c1
  Basis Set: CC-PVTZ
  Basis Set:

  -Total Gradient:
     Atom            X                  Y                   Z
    ------   -----------------  -----------------  -----------------
       1       -0.000027185133     0.000013041451    -0.000003491073
       2        0.000055530664    -0.000028693759     0.000053050090
       3        0.000008726172    -0.000009454976    -0.000028594178
       4       -0.000011254846     0.000021428081    -0.000019125385
       5       -0.000015308637     0.000004715986     0.000059215967
       6        0.000008740117    -0.000011432764    -0.000008313274
       7       -0.000011655241     0.000028293214    -0.000012486552
       8        0.003079537990    -0.006579428721    -0.002317537080
       9       -0.000006946718     0.000054946802     0.000006555416
      10        0.000004553031    -0.000014517563     0.000029610556
      11       -0.000422492617    -0.000138265780     0.006578200164
      12       -0.002534543891     0.005662394564     0.000199890058
      13       -0.000030785440    -0.000047854018    -0.000008077309
      14       -0.000135674347     0.001062662770    -0.004515931399
      15        0.000016121407    -0.000039062059     0.000016916994
      16        0.000034745776    -0.000005147970    -0.000018840860
      17       -0.000003372050    -0.000000098140    -0.000010558417
      18       -0.000013800587     0.000033991881     0.000026878797
      19       -0.000004182748     0.000012080804    -0.000024387098
      20        0.000012662810     0.000001160590     0.000008518606
      21        0.000002521380     0.000017853446     0.000003326505
      22       -0.000019360274     0.000001828840    -0.000016050572
      23       -0.000000703285     0.000005548307     0.000003037012
      24        0.000038478796    -0.000030900682     0.000007112261
      25       -0.000024352332    -0.000015090302    -0.000008919232

  **** Optimization is complete! (in 11 steps) ****
    Final optimized geometry and variables:
    Molecular point group: c1

    Geometry (in Angstrom), charge = 0, multiplicity = 1:

    H           -2.652295301395    -0.217892892468    -2.014886513208
    C           -3.010181370548    -0.559440322740    -1.033923841506
    C           -2.092089630512    -1.515427073857    -0.321678553734
    O           -4.052474183010    -0.184176325158    -0.621489995503
    C           -0.646135314528    -1.015160880338    -0.250311485729
    H           -2.495924876187    -1.711782674338     0.663080949047
    H           -2.119602157814    -2.445886126013    -0.884653144693
    C           -0.493090721961     0.219037134230     0.635817092632
    H           -0.026846838353    -1.823279207486     0.116440286392
    H           -0.295615680846    -0.795954348181    -1.255536916421
    C            0.917189616439     0.841942796748     0.735151838575
    H           -0.871493101848     0.009907748301     1.632024851594
    H           -1.162034187888     0.990894848107     0.264693103212
    C            2.097948886531    -0.099573387471     0.491435344854
    H            0.979512477338     1.652127806656     0.017028605471
    H            1.023888462628     1.302064232648     1.711911052379
    C            3.466800016729     0.548814422606     0.712431490040
    H            2.055017586579    -0.492381395610    -0.519443582245
    H            2.020428676409    -0.956315597100     1.155503928467
    C            3.821280014412     1.654204756502    -0.279550933281
    H            4.224376637134    -0.226401836026     0.651619353102
    H            3.517932084351     0.942493910817     1.723988198380
    H            3.763479287087     1.293622078581    -1.301753475197
    H            3.160556784323     2.507866341575    -0.191933166106
    H            4.832104220479     2.008091404040    -0.112808120565

  Mulliken Charges: (a.u.)
   Center  Symbol    Alpha    Beta     Spin     Total
       1     H     0.46391  0.46391  0.00000  0.07219
       2     C     2.90584  2.90584  0.00000  0.18833
       3     C     3.08779  3.08779  0.00000 -0.17557
       4     O     4.16619  4.16619  0.00000 -0.33237
       5     C     3.12286  3.12286  0.00000 -0.24571
       6     H     0.44274  0.44274  0.00000  0.11451
       7     H     0.43973  0.43973  0.00000  0.12054
       8     C     3.09667  3.09667  0.00000 -0.19334
       9     H     0.43824  0.43824  0.00000  0.12351
      10     H     0.44814  0.44814  0.00000  0.10371
      11     C     3.09912  3.09912  0.00000 -0.19824
      12     H     0.44682  0.44682  0.00000  0.10636
      13     H     0.44565  0.44565  0.00000  0.10869
      14     C     3.10058  3.10058  0.00000 -0.20116
      15     H     0.45045  0.45045  0.00000  0.09910
      16     H     0.44700  0.44700  0.00000  0.10600
      17     C     3.09070  3.09070  0.00000 -0.18139
      18     H     0.45057  0.45057  0.00000  0.09887
      19     H     0.44833  0.44833  0.00000  0.10334
      20     C     3.15301  3.15301  0.00000 -0.30602
      21     H     0.44783  0.44783  0.00000  0.10433
      22     H     0.45395  0.45395  0.00000  0.09209
      23     H     0.45544  0.45544  0.00000  0.08911
      24     H     0.45288  0.45288  0.00000  0.09424
      25     H     0.44556  0.44556  0.00000  0.10888

   Total alpha = 36.00000, Total beta = 36.00000, Total charge = -0.00000

*** Psi4 exiting successfully. Buy a developer a beer!
