  ==> Input File <==

--------------------------------------------------------------------------
set {
	reference rhf
	basis 6-31G*
}

set_num_threads( 4 )
memory 2 gb

molecule MOL {
0 1

H	 -3.062107	 0.239319	 0.403411
O	 -2.347518	 -0.290803	 0.079804
C	 -1.184022	 0.487508	 -0.006784
C	 0.062599	 -0.378592	 0.031606
H	 -1.176523	 1.099369	 -0.904519
H	 -1.187323	 1.153111	 0.844927
O	 1.171513	 0.459272	 -0.058250
H	 0.050699	 -1.089204	 -0.797170
H	 0.078739	 -0.954914	 0.954740
C	 2.397842	 -0.198080	 -0.002151
H	 2.508049	 -0.905315	 -0.822092
H	 3.173794	 0.550865	 -0.078850
H	 2.517602	 -0.735921	 0.936026

	symmetry c1
}
set optking {
	frozen_dihedral = ("
		1 2 3 5
	")
}

ee = optimize('scf')
oeprop('DIPOLE', 'QUADRUPOLE', 'MULLIKEN_CHARGES')
f=open( 'psi4out.xyz', 'w' )
f.write( "13  " )
f.write( str(ee) + "\n" )
f.write( MOL.save_string_xyz() )
f.close()
--------------------------------------------------------------------------

    Molecular point group: c1
  Charge       = 0
  Multiplicity = 1
  Basis Set: 6-31G*
  Basis Set:
  @DF-RHF Final Energy:  -267.94903296253540
    Total Energy =                       -267.9490329625357390
    Molecular point group: c1
  Basis Set: 6-31G*
  Basis Set:
  Basis Set: 6-31G*
  Basis Set:
  @DF-RHF Final Energy:  -267.95041460894981
    Total Energy =                       -267.9504146089497567
  Basis Set: 6-31G*
  Basis Set:
  Basis Set: 6-31G*
  Basis Set:
  @DF-RHF Final Energy:  -267.95071369523328
    Total Energy =                       -267.9507136952332758
  Basis Set: 6-31G*
  Basis Set:
  Basis Set: 6-31G*
  Basis Set:
  @DF-RHF Final Energy:  -267.95072089805353
    Total Energy =                       -267.9507208980534188
  Basis Set: 6-31G*
  Basis Set:
  Charge       = 0
  Multiplicity = 1
  Basis Set: 6-31G*
  Basis Set:

    Orbital Energies (a.u.)
    -----------------------

    Doubly Occupied:

       1A    -20.558629     2A    -20.558617     3A    -11.268793
       4A    -11.267073     5A    -11.266171     6A     -1.385089
       7A     -1.363643     8A     -1.017984     9A     -0.910964
      10A     -0.831033    11A     -0.709346    12A     -0.682854
      13A     -0.641444    14A     -0.634886    15A     -0.616994
      16A     -0.551274    17A     -0.539018    18A     -0.495096
      19A     -0.470506    20A     -0.440650    21A     -0.418116

  @DF-RHF Final Energy:  -267.95072201215555

   => Energetics <=

    Nuclear Repulsion Energy =            190.4543727682851397
    One-Electron Energy =                -743.5538297234255651
    Two-Electron Energy =                 285.1487349429846745
    DFT Exchange-Correlation Energy =       0.0000000000000000
    Empirical Dispersion Energy =           0.0000000000000000
    PCM Polarization Energy =               0.0000000000000000
    EFP Energy =                            0.0000000000000000
    Total Energy =                       -267.9507220121557793
    Molecular point group: c1
  Basis Set: 6-31G*
  Basis Set:

  -Total Gradient:
     Atom            X                  Y                   Z
    ------   -----------------  -----------------  -----------------
       1        0.000249077071    -0.000264655563     0.001174796215
       2       -0.000132371727     0.000140147737    -0.001591045481
       3       -0.000703290744     0.000893157185     0.000923121178
       4       -0.000003693164    -0.000006722371    -0.000009725032
       5        0.000576987019    -0.000796298860    -0.000479446134
       6        0.000011127598    -0.000009386701    -0.000008229758
       7        0.000029931627     0.000020422910    -0.000011117990
       8       -0.000002692240     0.000000544840    -0.000004071050
       9       -0.000025343593     0.000013161373     0.000002337294
      10        0.000004728352     0.000012234827     0.000005966797
      11       -0.000008026634     0.000002037223     0.000001148193
      12        0.000005594281    -0.000002139354    -0.000001263342
      13       -0.000002027840    -0.000002503247    -0.000002470890

  **** Optimization is complete! (in 5 steps) ****
    Final optimized geometry and variables:
    Molecular point group: c1

    Geometry (in Angstrom), charge = 0, multiplicity = 1:

    H           -3.061275323623     0.147941240906     0.309828507291
    O           -2.297909445817    -0.341536770125     0.041318697940
    C           -1.179398629837     0.505265779936    -0.007286634141
    C            0.053114740848    -0.373174103451     0.036654515492
    H           -1.166847141463     1.088055614140    -0.923842826923
    H           -1.160272049842     1.192828362563     0.833215948633
    O            1.170773117195     0.455646894283    -0.055126888189
    H            0.024220666084    -1.082207167330    -0.788513312713
    H            0.064472665394    -0.943152962365     0.963599938399
    C            2.388111389892    -0.219770950043    -0.036030931154
    H            2.471661888664    -0.911850314655    -0.871614271286
    H            3.173485923032     0.519497796868    -0.113090796909
    H            2.518660968033    -0.778140958831     0.888898605632

  Mulliken Charges: (a.u.)
   Center  Symbol    Alpha    Beta     Spin     Total
       1     H     0.27793  0.27793  0.00000  0.44415
       2     O     4.37452  4.37452  0.00000 -0.74904
       3     C     3.00329  3.00329  0.00000 -0.00659
       4     C     2.99177  2.99177  0.00000  0.01645
       5     H     0.42176  0.42176  0.00000  0.15648
       6     H     0.42433  0.42433  0.00000  0.15135
       7     O     4.30960  4.30960  0.00000 -0.61920
       8     H     0.42327  0.42327  0.00000  0.15347
       9     H     0.42528  0.42528  0.00000  0.14944
      10     C     3.07955  3.07955  0.00000 -0.15909
      11     H     0.42826  0.42826  0.00000  0.14348
      12     H     0.41174  0.41174  0.00000  0.17652
      13     H     0.42871  0.42871  0.00000  0.14259

   Total alpha = 21.00000, Total beta = 21.00000, Total charge = -0.00000
