  ==> Input File <==

--------------------------------------------------------------------------
set {
	reference rhf
	basis cc-pvtz
}

set_num_threads( 4 )
memory 2 gb

molecule MOL {
0 1

H	 3.930000	 0.348000	 -0.108000
N	 3.130000	 -0.254000	 -0.076000
C	 1.903000	 0.524000	 0.012000
H	 3.236000	 -0.834000	 0.735000
C	 0.683000	 -0.390000	 -0.038000
H	 1.879000	 1.200000	 -0.838000
H	 1.853000	 1.147000	 0.908000
C	 -0.642000	 0.371000	 0.018000
H	 0.736000	 -0.984000	 -0.945000
H	 0.731000	 -1.092000	 0.794000
C	 -1.866000	 -0.545000	 -0.031000
H	 -0.689000	 1.075000	 -0.811000
H	 -0.680000	 0.970000	 0.927000
C	 -3.188000	 0.221000	 0.021000
H	 -1.831000	 -1.143000	 -0.938000
H	 -1.823000	 -1.247000	 0.799000
H	 -3.277000	 0.907000	 -0.816000
H	 -4.037000	 -0.456000	 -0.015000
H	 -3.269000	 0.803000	 0.935000

	symmetry c1
}
ee = optimize('scf')
oeprop('DIPOLE', 'QUADRUPOLE', 'MULLIKEN_CHARGES')
f=open( 'psi4out.xyz', 'w' )
f.write( "19  " )
f.write( str(ee) + "\n" )
f.write( MOL.save_string_xyz() )
f.close()
--------------------------------------------------------------------------

    Molecular point group: c1
  Charge       = 0
  Multiplicity = 1
  Basis Set: CC-PVTZ
  Basis Set:
  @DF-RHF Final Energy:  -251.44805524575204
    Total Energy =                       -251.4480552457520162
    Molecular point group: c1
  Basis Set: CC-PVTZ
  Basis Set:
  Basis Set: CC-PVTZ
  Basis Set:
  @DF-RHF Final Energy:  -251.44814252369071
    Total Energy =                       -251.4481425236906489
  Basis Set: CC-PVTZ
  Basis Set:
  Basis Set: CC-PVTZ
  Basis Set:
  @DF-RHF Final Energy:  -251.44814585135984
    Total Energy =                       -251.4481458513598682
  Basis Set: CC-PVTZ
  Basis Set:
  Charge       = 0
  Multiplicity = 1
  Basis Set: CC-PVTZ
  Basis Set:

    Orbital Energies (a.u.)
    -----------------------

    Doubly Occupied:

       1A    -15.526388     2A    -11.237915     3A    -11.211894
       4A    -11.210471     5A    -11.207678     6A    -11.205459
       7A     -1.178145     8A     -1.074282     9A     -0.999621
      10A     -0.900976    11A     -0.813346    12A     -0.789640
      13A     -0.665969    14A     -0.643427    15A     -0.617814
      16A     -0.589781    17A     -0.565529    18A     -0.549305
      19A     -0.530792    20A     -0.498790    21A     -0.480866
      22A     -0.465150    23A     -0.461457    24A     -0.451095
      25A     -0.383768

  @DF-RHF Final Energy:  -251.44814627013233

   => Energetics <=

    Nuclear Repulsion Energy =            246.0578596160913776
    One-Electron Energy =                -826.4928957715934530
    Two-Electron Energy =                 328.9868898853695214
    DFT Exchange-Correlation Energy =       0.0000000000000000
    Empirical Dispersion Energy =           0.0000000000000000
    PCM Polarization Energy =               0.0000000000000000
    EFP Energy =                            0.0000000000000000
    Total Energy =                       -251.4481462701325540
    Molecular point group: c1
  Basis Set: CC-PVTZ
  Basis Set:

  -Total Gradient:
     Atom            X                  Y                   Z
    ------   -----------------  -----------------  -----------------
       1       -0.000025681122     0.000011269565    -0.000017570360
       2        0.000053762148    -0.000016224772     0.000034555508
       3       -0.000071144635     0.000039648524    -0.000013147548
       4       -0.000013413295    -0.000012312600    -0.000010139947
       5        0.000035570016     0.000016601885    -0.000000556386
       6        0.000027878960    -0.000013841563     0.000003028492
       7        0.000004422097    -0.000007116017    -0.000009934717
       8        0.000025977615    -0.000011853014     0.000024126822
       9        0.000008486931    -0.000009263225    -0.000008495108
      10       -0.000007392602    -0.000013259759    -0.000011589617
      11       -0.000012772918     0.000013364113     0.000019412209
      12       -0.000001518975     0.000007129951     0.000007460921
      13       -0.000003275307     0.000013090802    -0.000001974101
      14       -0.000024244210    -0.000014872933    -0.000004352667
      15        0.000007997835    -0.000019063738     0.000003003307
      16        0.000000371798    -0.000009802377    -0.000003897377
      17       -0.000010618463     0.000009672868     0.000000818561
      18        0.000009979291     0.000015537948    -0.000004275699
      19       -0.000004385170     0.000001294341    -0.000006472294

  **** Optimization is complete! (in 4 steps) ****
    Final optimized geometry and variables:
    Molecular point group: c1

    Geometry (in Angstrom), charge = 0, multiplicity = 1:

    H            3.889604248772     0.356866658789    -0.089510363731
    N            3.091268622284    -0.241215941863    -0.065538276435
    C            1.860978532321     0.530247834732     0.016255796931
    H            3.192566078719    -0.835835912584     0.730398510888
    C            0.644129798682    -0.381764903188    -0.031063699650
    H            1.835720888553     1.204666673069    -0.833114198031
    H            1.808788974712     1.151974724298     0.911067150352
    C           -0.678115177969     0.376690884389     0.025731332084
    H            0.693997944423    -0.977146563570    -0.936844808544
    H            0.693309175901    -1.082141511943     0.800522794197
    C           -1.900705879978    -0.535530803422    -0.022487616692
    H           -0.725295615177     1.079516284648    -0.802982099509
    H           -0.715473333934     0.974884642524     0.933277853639
    C           -3.220513216999     0.226854037875     0.028039032861
    H           -1.865035590189    -1.134396849224    -0.928235746246
    H           -1.857947562980    -1.236381051808     0.806820502294
    H           -3.309097438509     0.911849262888    -0.808725240655
    H           -4.066837817011    -0.449485231359    -0.008085746872
    H           -3.301685004898     0.809374371339     0.939859997614

  Mulliken Charges: (a.u.)
   Center  Symbol    Alpha    Beta     Spin     Total
       1     H     0.43023  0.43023  0.00000  0.13955
       2     N     3.68918  3.68918  0.00000 -0.37835
       3     C     3.02692  3.02692  0.00000 -0.05384
       4     H     0.43100  0.43100  0.00000  0.13801
       5     C     3.08150  3.08150  0.00000 -0.16299
       6     H     0.45707  0.45707  0.00000  0.08586
       7     H     0.46858  0.46858  0.00000  0.06284
       8     C     3.09321  3.09321  0.00000 -0.18642
       9     H     0.44896  0.44896  0.00000  0.10208
      10     H     0.46031  0.46031  0.00000  0.07939
      11     C     3.08331  3.08331  0.00000 -0.16662
      12     H     0.45502  0.45502  0.00000  0.08995
      13     H     0.45673  0.45673  0.00000  0.08655
      14     C     3.14986  3.14986  0.00000 -0.29972
      15     H     0.45379  0.45379  0.00000  0.09243
      16     H     0.45496  0.45496  0.00000  0.09007
      17     H     0.45520  0.45520  0.00000  0.08961
      18     H     0.44854  0.44854  0.00000  0.10292
      19     H     0.45565  0.45565  0.00000  0.08870

   Total alpha = 25.00000, Total beta = 25.00000, Total charge = -0.00000
