  ==> Input File <==

--------------------------------------------------------------------------
set {
	reference rhf
	basis 6-31G*
}

set_num_threads( 1 )
memory 2 gb

molecule MOL {
0 1

H	 -2.118061	 -1.596406	 0.267967
O	 -2.310168	 -0.871793	 -0.309793
C	 -2.026376	 0.340750	 0.341611
C	 -0.673256	 0.843270	 -0.132153
H	 -2.792215	 1.080697	 0.115987
H	 -2.013526	 0.200402	 1.421792
C	 0.486613	 -0.083066	 0.235839
H	 -0.715586	 0.970948	 -1.210718
H	 -0.508072	 1.829858	 0.297090
C	 1.840406	 0.433480	 -0.254303
H	 0.300215	 -1.068318	 -0.178947
H	 0.519509	 -0.203625	 1.318070
C	 3.000220	 -0.489290	 0.118523
H	 1.809207	 0.553576	 -1.335192
H	 2.021860	 1.424500	 0.157276
H	 2.864959	 -1.479103	 -0.307933
H	 3.946603	 -0.099227	 -0.243630
H	 3.080049	 -0.602997	 1.196117

	symmetry c1
}
set optking {
	frozen_dihedral = ("
		14 10 7 11,
		10 7 4 8,
		2 3 4 8
	")
}

ee = energy('scf')
oeprop('DIPOLE', 'QUADRUPOLE', 'MULLIKEN_CHARGES')
f=open( 'psi4out.xyz', 'w' )
f.write( "18  " )
f.write( str(ee) + "\n" )
f.write( MOL.save_string_xyz() )
f.close()
--------------------------------------------------------------------------

    Molecular point group: c1

    Geometry (in Angstrom), charge = 0, multiplicity = 1:

       Center              X                  Y                   Z               Mass
    ------------   -----------------  -----------------  -----------------  -----------------
           H         -2.129700692387    -1.592043176730     0.264916767499     1.007825032070
           O         -2.321807692387    -0.867430176730    -0.312843232501    15.994914619560
           C         -2.038015692387     0.345112823270     0.338560767499    12.000000000000
           C         -0.684895692387     0.847632823270    -0.135203232501    12.000000000000
           H         -2.803854692387     1.085059823270     0.112936767499     1.007825032070
           H         -2.025165692387     0.204764823270     1.418741767499     1.007825032070
           C          0.474973307613    -0.078703176730     0.232788767499    12.000000000000
           H         -0.727225692387     0.975310823270    -1.213768232501     1.007825032070
           H         -0.519711692387     1.834220823270     0.294039767499     1.007825032070
           C          1.828766307613     0.437842823270    -0.257353232501    12.000000000000
           H          0.288575307613    -1.063955176730    -0.181997232501     1.007825032070
           H          0.507869307613    -0.199262176730     1.315019767499     1.007825032070
           C          2.988580307613    -0.484927176730     0.115472767499    12.000000000000
           H          1.797567307613     0.557938823270    -1.338242232501     1.007825032070
           H          2.010220307613     1.428862823270     0.154225767499     1.007825032070
           H          2.853319307613    -1.474740176730    -0.310983232501     1.007825032070
           H          3.934963307613    -0.094864176730    -0.246680232501     1.007825032070
           H          3.068409307613    -0.598634176730     1.193066767499     1.007825032070

  Charge       = 0
  Multiplicity = 1
  Basis Set: 6-31G*
  Basis Set:

    Orbital Energies (a.u.)
    -----------------------

    Doubly Occupied:

       1A    -20.552610     2A    -11.268738     3A    -11.215642
       4A    -11.213969     5A    -11.210415     6A    -11.208829
       7A     -1.360442     8A     -1.078548     9A     -1.010432
      10A     -0.918339    11A     -0.823394    12A     -0.788200
      13A     -0.702949    14A     -0.641899    15A     -0.625276
      16A     -0.589116    17A     -0.574088    18A     -0.565369
      19A     -0.522701    20A     -0.505432    21A     -0.483892
      22A     -0.474274    23A     -0.465132    24A     -0.459091
      25A     -0.421972

  @DF-RHF Final Energy:  -271.17758685000229

   => Energetics <=

    Nuclear Repulsion Energy =            249.7444365991630946
    One-Electron Energy =                -862.4828803454818171
    Two-Electron Energy =                 341.5608568963167500
    DFT Exchange-Correlation Energy =       0.0000000000000000
    Empirical Dispersion Energy =           0.0000000000000000
    PCM Polarization Energy =               0.0000000000000000
    EFP Energy =                            0.0000000000000000
    Total Energy =                       -271.1775868500019442

  Mulliken Charges: (a.u.)
   Center  Symbol    Alpha    Beta     Spin     Total
       1     H     0.27887  0.27887  0.00000  0.44226
       2     O     4.36948  4.36948  0.00000 -0.73897
       3     C     3.00355  3.00355  0.00000 -0.00709
       4     C     3.15430  3.15430  0.00000 -0.30860
       5     H     0.41670  0.41670  0.00000  0.16661
       6     H     0.43167  0.43167  0.00000  0.13666
       7     C     3.15785  3.15785  0.00000 -0.31570
       8     H     0.41508  0.41508  0.00000  0.16983
       9     H     0.42755  0.42755  0.00000  0.14489
      10     C     3.15074  3.15074  0.00000 -0.30148
      11     H     0.41866  0.41866  0.00000  0.16268
      12     H     0.42859  0.42859  0.00000  0.14283
      13     C     3.23935  3.23935  0.00000 -0.47871
      14     H     0.42094  0.42094  0.00000  0.15811
      15     H     0.42331  0.42331  0.00000  0.15339
      16     H     0.42154  0.42154  0.00000  0.15691
      17     H     0.41912  0.41912  0.00000  0.16176
      18     H     0.42270  0.42270  0.00000  0.15460

   Total alpha = 25.00000, Total beta = 25.00000, Total charge = -0.00000
