  ==> Input File <==

--------------------------------------------------------------------------
set {
	reference rhf
	basis 6-31G*
}

set_num_threads( 4 )
memory 2 gb

molecule MOL {
0 1

H	 2.844210	 0.348434	 0.596724
C	 1.951159	 -0.223429	 0.317018
C	 0.692068	 0.589600	 0.160137
O	 2.020525	 -1.399254	 0.159687
C	 -0.558097	 -0.297372	 0.091132
H	 0.791645	 1.202255	 -0.728243
H	 0.616171	 1.253469	 1.020572
C	 -1.850991	 0.512573	 -0.019058
H	 -0.476753	 -0.965681	 -0.762987
H	 -0.604799	 -0.930658	 0.975228
C	 -3.096943	 -0.368295	 -0.099594
H	 -1.800724	 1.150330	 -0.898172
H	 -1.931651	 1.177355	 0.838044
H	 -3.060452	 -1.020287	 -0.967456
H	 -3.996858	 0.233488	 -0.175704
H	 -3.191959	 -0.995686	 0.782074

	symmetry c1
}
set optking {
	frozen_dihedral = ("
		4 2 3 6
	")
}

ee = optimize('scf')
oeprop('DIPOLE', 'QUADRUPOLE', 'MULLIKEN_CHARGES')
f=open( 'psi4out.xyz', 'w' )
f.write( "16  " )
f.write( str(ee) + "\n" )
f.write( MOL.save_string_xyz() )
f.close()
--------------------------------------------------------------------------

    Molecular point group: c1
  Charge       = 0
  Multiplicity = 1
  Basis Set: 6-31G*
  Basis Set:
  @DF-RHF Final Energy:  -270.02055208252511
    Total Energy =                       -270.0205520825252279
    Molecular point group: c1
  Basis Set: 6-31G*
  Basis Set:
  Basis Set: 6-31G*
  Basis Set:
  @DF-RHF Final Energy:  -270.02064529710140
    Total Energy =                       -270.0206452971016233
  Basis Set: 6-31G*
  Basis Set:
  Basis Set: 6-31G*
  Basis Set:
  @DF-RHF Final Energy:  -270.02108221320754
    Total Energy =                       -270.0210822132077055
  Basis Set: 6-31G*
  Basis Set:
  Basis Set: 6-31G*
  Basis Set:
  @DF-RHF Final Energy:  -270.02114463471355
    Total Energy =                       -270.0211446347136643
  Basis Set: 6-31G*
  Basis Set:
  Basis Set: 6-31G*
  Basis Set:
  @DF-RHF Final Energy:  -270.02116011705493
    Total Energy =                       -270.0211601170548761
  Basis Set: 6-31G*
  Basis Set:
  Charge       = 0
  Multiplicity = 1
  Basis Set: 6-31G*
  Basis Set:

    Orbital Energies (a.u.)
    -----------------------

    Doubly Occupied:

       1A    -20.563848     2A    -11.328524     3A    -11.237450
       4A    -11.222655     5A    -11.221988     6A    -11.212367
       7A     -1.404088     8A     -1.088840     9A     -1.015243
      10A     -0.908353    11A     -0.814019    12A     -0.771300
      13A     -0.675277    14A     -0.656159    15A     -0.628733
      16A     -0.598379    17A     -0.584964    18A     -0.534960
      19A     -0.528137    20A     -0.496454    21A     -0.483954
      22A     -0.477853    23A     -0.472115    24A     -0.411109

  @DF-RHF Final Energy:  -270.02116094938992

   => Energetics <=

    Nuclear Repulsion Energy =            231.7949041943633972
    One-Electron Energy =                -824.9585906747003037
    Two-Electron Energy =                 323.1425255309469549
    DFT Exchange-Correlation Energy =       0.0000000000000000
    Empirical Dispersion Energy =           0.0000000000000000
    PCM Polarization Energy =               0.0000000000000000
    EFP Energy =                            0.0000000000000000
    Total Energy =                       -270.0211609493899232
    Molecular point group: c1
  Basis Set: 6-31G*
  Basis Set:

  -Total Gradient:
     Atom            X                  Y                   Z
    ------   -----------------  -----------------  -----------------
       1       -0.000019583145     0.000020602857    -0.000008652711
       2       -0.000457121558    -0.000510869973     0.001693000290
       3        0.000646498075     0.001126500481     0.000302769041
       4        0.000229012270     0.000220859744    -0.001252524312
       5       -0.000015331055    -0.000001596667    -0.000111682813
       6       -0.000462600927    -0.000883187853    -0.000704183460
       7        0.000000520567     0.000007090109    -0.000013103386
       8        0.000028001554     0.000019909611     0.000065577579
       9        0.000012605263     0.000029355938     0.000011262469
      10       -0.000002636034     0.000001440235     0.000014069533
      11        0.000014540341    -0.000030438856    -0.000001592557
      12        0.000020546560    -0.000012458181    -0.000001503746
      13        0.000004844905     0.000016323157     0.000005545942
      14       -0.000004038649    -0.000007409979     0.000000565506
      15        0.000013871120     0.000007084799     0.000000433660
      16       -0.000009129285    -0.000003205418     0.000000018964

  **** Optimization is complete! (in 6 steps) ****
    Final optimized geometry and variables:
    Molecular point group: c1

    Geometry (in Angstrom), charge = 0, multiplicity = 1:

    H            2.996640962444     0.593923589682     0.453225421758
    C            2.110734188902    -0.003353649724     0.208986101958
    C            0.824694547530     0.776458698143     0.097398342357
    O            2.212751029191    -1.173322835661     0.027227697448
    C           -0.425234485731    -0.095376087831     0.009558202549
    H            0.916306949805     1.400976332020    -0.792110361372
    H            0.771486466275     1.465258904393     0.938554870945
    C           -1.708203260022     0.726728724221    -0.120316710201
    H           -0.329897026506    -0.767804618827    -0.836550744929
    H           -0.482196484397    -0.726799839842     0.891853149887
    C           -2.960733338322    -0.144428278541    -0.206253971026
    H           -1.646634852591     1.357271920400    -1.005058866655
    H           -1.795939938008     1.401230138835     0.729079292498
    H           -2.918521367437    -0.806843827227    -1.065892710302
    H           -3.855444741328     0.463064127364    -0.299365528479
    H           -3.069989249759    -0.761746142296     0.680688343908

  Mulliken Charges: (a.u.)
   Center  Symbol    Alpha    Beta     Spin     Total
       1     H     0.42764  0.42764  0.00000  0.14473
       2     C     2.83474  2.83474  0.00000  0.33052
       3     C     3.21432  3.21432  0.00000 -0.42864
       4     O     4.23747  4.23747  0.00000 -0.47493
       5     C     3.14899  3.14899  0.00000 -0.29798
       6     H     0.40576  0.40576  0.00000  0.18847
       7     H     0.40996  0.40996  0.00000  0.18007
       8     C     3.15356  3.15356  0.00000 -0.30713
       9     H     0.40904  0.40904  0.00000  0.18192
      10     H     0.41450  0.41450  0.00000  0.17099
      11     C     3.23955  3.23955  0.00000 -0.47909
      12     H     0.42305  0.42305  0.00000  0.15390
      13     H     0.42336  0.42336  0.00000  0.15327
      14     H     0.41950  0.41950  0.00000  0.16100
      15     H     0.41858  0.41858  0.00000  0.16285
      16     H     0.41998  0.41998  0.00000  0.16005

   Total alpha = 24.00000, Total beta = 24.00000, Total charge =  0.00000
