  ==> Input File <==

--------------------------------------------------------------------------
set {
	reference rhf
	basis cc-pvtz
}

set_num_threads( 4 )
memory 2 gb

molecule MOL {
0 1

H	 -2.644180	 -0.653737	 1.272255
C	 -2.092774	 -0.380414	 0.391915
O	 -0.808934	 -0.154049	 0.752536
F	 -2.163230	 -1.351640	 -0.507133
F	 -2.627232	 0.691260	 -0.169301
C	 0.085006	 0.250800	 -0.215074
C	 1.370439	 -0.548013	 -0.012993
Cl	 0.421658	 1.987697	 -0.091007
H	 -0.272219	 0.063284	 -1.212508
F	 1.446944	 -1.521184	 -0.884835
F	 1.358626	 -1.079822	 1.186322
F	 2.437195	 0.195441	 -0.120500

	symmetry c1
}
set optking {
	frozen_dihedral = ("
		10 7 6 9
	")
}

ee = optimize('scf')
oeprop('DIPOLE', 'QUADRUPOLE', 'MULLIKEN_CHARGES')
f=open( 'psi4out.xyz', 'w' )
f.write( "12  " )
f.write( str(ee) + "\n" )
f.write( MOL.save_string_xyz() )
f.close()
--------------------------------------------------------------------------

    Molecular point group: c1
  Charge       = 0
  Multiplicity = 1
  Basis Set: CC-PVTZ
  Basis Set:
  @DF-RHF Final Energy: -1146.61063570560054
    Total Energy =                      -1146.6106357056012257
    Molecular point group: c1
  Basis Set: CC-PVTZ
  Basis Set:
  Basis Set: CC-PVTZ
  Basis Set:
  @DF-RHF Final Energy: -1146.61125079794283
    Total Energy =                      -1146.6112507979432849
  Basis Set: CC-PVTZ
  Basis Set:
  Basis Set: CC-PVTZ
  Basis Set:
  @DF-RHF Final Energy: -1146.61305888603374
    Total Energy =                      -1146.6130588860326043
  Basis Set: CC-PVTZ
  Basis Set:
  Basis Set: CC-PVTZ
  Basis Set:
  @DF-RHF Final Energy: -1146.61315657495516
    Total Energy =                      -1146.6131565749556103
  Basis Set: CC-PVTZ
  Basis Set:
  Basis Set: CC-PVTZ
  Basis Set:
  @DF-RHF Final Energy: -1146.61316992528623
    Total Energy =                      -1146.6131699252871385
  Basis Set: CC-PVTZ
  Basis Set:
  Basis Set: CC-PVTZ
  Basis Set:
  @DF-RHF Final Energy: -1146.61317210514517
    Total Energy =                      -1146.6131721051447130
  Basis Set: CC-PVTZ
  Basis Set:
  Charge       = 0
  Multiplicity = 1
  Basis Set: CC-PVTZ
  Basis Set:

    Orbital Energies (a.u.)
    -----------------------

    Doubly Occupied:

       1A   -104.856796     2A    -26.354720     3A    -26.353483
       4A    -26.351904     5A    -26.342703     6A    -26.342439
       7A    -20.638868     8A    -11.522137     9A    -11.482849
      10A    -11.401805    11A    -10.582391    12A     -8.049188
      13A     -8.047187    14A     -8.047121    15A     -1.768363
      16A     -1.723899    17A     -1.663611    18A     -1.659473
      19A     -1.644052    20A     -1.484930    21A     -1.176478
      22A     -1.051062    23A     -0.989774    24A     -0.923914
      25A     -0.862778    26A     -0.857893    27A     -0.851683
      28A     -0.829981    29A     -0.817887    30A     -0.795324
      31A     -0.731464    32A     -0.731005    33A     -0.711331
      34A     -0.708212    35A     -0.683478    36A     -0.681334
      37A     -0.665109    38A     -0.662993    39A     -0.650163
      40A     -0.635832    41A     -0.597700    42A     -0.580360
      43A     -0.524812    44A     -0.477156    45A     -0.470029

  @DF-RHF Final Energy: -1146.61317278189335

   => Energetics <=

    Nuclear Repulsion Energy =            736.1580437925044862
    One-Electron Energy =               -3055.5710925077632965
    Two-Electron Energy =                1172.7998759333640919
    DFT Exchange-Correlation Energy =       0.0000000000000000
    Empirical Dispersion Energy =           0.0000000000000000
    PCM Polarization Energy =               0.0000000000000000
    EFP Energy =                            0.0000000000000000
    Total Energy =                      -1146.6131727818947184
    Molecular point group: c1
  Basis Set: CC-PVTZ
  Basis Set:

  -Total Gradient:
     Atom            X                  Y                   Z
    ------   -----------------  -----------------  -----------------
       1       -0.000000862249     0.000003353886     0.000005383125
       2       -0.000019053855    -0.000049031090     0.000046910744
       3       -0.000058904743     0.000013402064     0.000050732284
       4        0.000010892792     0.000043983494    -0.000010960868
       5       -0.000012633691    -0.000041857300    -0.000018137873
       6        0.005094579074     0.006912154304    -0.003952357300
       7       -0.004031782608    -0.005054048415     0.005177267246
       8        0.000030927137     0.000021299767     0.000005535326
       9       -0.003597521278    -0.005015690688     0.002407911308
      10        0.002528377516     0.003053969170    -0.003670541738
      11        0.000000681767     0.000041328708    -0.000081617210
      12        0.000055300172     0.000071136233     0.000039874959

  **** Optimization is complete! (in 7 steps) ****
    Final optimized geometry and variables:
    Molecular point group: c1

    Geometry (in Angstrom), charge = 0, multiplicity = 1:

    H           -2.666351149223    -0.657070235567     1.229201542335
    C           -2.095273047019    -0.380604094439     0.362360982331
    O           -0.822979400916    -0.146674053850     0.752971441699
    F           -2.137080367801    -1.355262411961    -0.536691608560
    F           -2.626460382391     0.684579908439    -0.214646974874
    C            0.091292532640     0.274529383426    -0.196476448260
    C            1.383033671892    -0.556700422470     0.002510479687
    CL           0.378982070761     2.012818669665    -0.053548398907
    H           -0.278507679822     0.062472230702    -1.183118315507
    F            1.376601426047    -1.540969387786    -0.871449718060
    F            1.466561187719    -1.062341857909     1.199628762143
    F            2.464117601348     0.142816486037    -0.221019431826

  Mulliken Charges: (a.u.)
   Center  Symbol    Alpha    Beta     Spin     Total
       1     H     0.45207  0.45207  0.00000  0.09586
       2     C     2.73963  2.73963  0.00000  0.52073
       3     O     4.15282  4.15282  0.00000 -0.30564
       4     F     4.61897  4.61897  0.00000 -0.23793
       5     F     4.61530  4.61530  0.00000 -0.23061
       6     C     2.95607  2.95607  0.00000  0.08786
       7     C     2.66516  2.66516  0.00000  0.66969
       8    CL     8.56747  8.56747  0.00000 -0.13493
       9     H     0.43137  0.43137  0.00000  0.13726
      10     F     4.60687  4.60687  0.00000 -0.21373
      11     F     4.59606  4.59606  0.00000 -0.19213
      12     F     4.59822  4.59822  0.00000 -0.19644

   Total alpha = 45.00000, Total beta = 45.00000, Total charge = -0.00000
