  ==> Input File <==

--------------------------------------------------------------------------
set {
	reference rhf
	basis 6-31G*
}

set_num_threads( 4 )
memory 2 gb

molecule MOL {
0 1

O	 2.862325	 1.357334	 0.000267
C	 2.843464	 0.164689	 -0.000222
C	 1.546494	 -0.624492	 -0.000609
C	 4.124123	 -0.644674	 -0.000428
C	 0.291004	 0.242674	 0.000989
H	 1.557904	 -1.283758	 -0.867573
H	 1.558622	 -1.285963	 0.864672
C	 -0.970181	 -0.552282	 0.343365
H	 0.180104	 0.709842	 -0.972451
H	 0.419964	 1.054068	 0.710325
C	 -2.235709	 0.306879	 0.346631
H	 -1.091511	 -1.366387	 -0.369769
H	 -0.851553	 -1.019418	 1.319980
C	 -3.501555	 -0.481185	 0.688105
H	 -2.355684	 0.773790	 -0.629391
H	 -2.115899	 1.120532	 1.059801
C	 -4.761509	 0.383800	 0.689145
H	 -3.623031	 -1.294079	 -0.024825
H	 -3.383425	 -0.947146	 1.664211
H	 -4.926363	 0.837354	 -0.284129
H	 -5.641694	 -0.202783	 0.933881
H	 -4.685564	 1.186054	 1.417681
H	 4.165367	 -1.288615	 -0.874074
H	 4.976217	 0.020734	 -0.001915
H	 4.166763	 -1.286207	 0.874930

	symmetry c1
}
set optking {
	frozen_dihedral = ("
		9 5 3 6
	")
}

ee = optimize('scf')
oeprop('DIPOLE', 'QUADRUPOLE', 'MULLIKEN_CHARGES')
f=open( 'psi4out.xyz', 'w' )
f.write( "25  " )
f.write( str(ee) + "\n" )
f.write( MOL.save_string_xyz() )
f.close()
--------------------------------------------------------------------------

    Molecular point group: c1
  Charge       = 0
  Multiplicity = 1
  Basis Set: 6-31G*
  Basis Set:
  @DF-RHF Final Energy:  -387.13588671188057
    Total Energy =                       -387.1358867118804028
    Molecular point group: c1
  Basis Set: 6-31G*
  Basis Set:
  Basis Set: 6-31G*
  Basis Set:
  @DF-RHF Final Energy:  -387.13595223817862
    Total Energy =                       -387.1359522381786746
  Basis Set: 6-31G*
  Basis Set:
  Basis Set: 6-31G*
  Basis Set:
  @DF-RHF Final Energy:  -387.13596470397698
    Total Energy =                       -387.1359647039764695
  Basis Set: 6-31G*
  Basis Set:
  Basis Set: 6-31G*
  Basis Set:
  @DF-RHF Final Energy:  -387.13587242035385
    Total Energy =                       -387.1358724203536212
  Basis Set: 6-31G*
  Basis Set:
  Basis Set: 6-31G*
  Basis Set:
  @DF-RHF Final Energy:  -387.13598083655319
    Total Energy =                       -387.1359808365529034
  Basis Set: 6-31G*
  Basis Set:
  Charge       = 0
  Multiplicity = 1
  Basis Set: 6-31G*
  Basis Set:

    Orbital Energies (a.u.)
    -----------------------

    Doubly Occupied:

       1A    -20.550430     2A    -11.326251     3A    -11.232008
       4A    -11.228329     5A    -11.216966     6A    -11.216376
       7A    -11.215318     8A    -11.213424     9A    -11.208277
      10A     -1.395754    11A     -1.093431    12A     -1.056208
      13A     -1.014459    14A     -0.969062    15A     -0.890731
      16A     -0.813980    17A     -0.790669    18A     -0.729452
      19A     -0.662503    20A     -0.650746    21A     -0.632238
      22A     -0.623978    23A     -0.596023    24A     -0.584114
      25A     -0.566819    26A     -0.559941    27A     -0.539667
      28A     -0.526045    29A     -0.513267    30A     -0.490588
      31A     -0.486885    32A     -0.473536    33A     -0.463656
      34A     -0.462216    35A     -0.450247    36A     -0.399153

  @DF-RHF Final Energy:  -387.13598108369717

   => Energetics <=

    Nuclear Repulsion Energy =            438.3669816443706395
    One-Electron Energy =               -1393.3204353677988365
    Two-Electron Energy =                 567.8174726397306813
    DFT Exchange-Correlation Energy =       0.0000000000000000
    Empirical Dispersion Energy =           0.0000000000000000
    PCM Polarization Energy =               0.0000000000000000
    EFP Energy =                            0.0000000000000000
    Total Energy =                       -387.1359810836975157
    Molecular point group: c1
  Basis Set: 6-31G*
  Basis Set:

  -Total Gradient:
     Atom            X                  Y                   Z
    ------   -----------------  -----------------  -----------------
       1       -0.000005363405    -0.000002187699     0.000041709065
       2       -0.000009610463     0.000012634908    -0.000087003121
       3       -0.001634571559    -0.002370049639     0.001283015176
       4        0.000004684630    -0.000004810114     0.000042091151
       5        0.001784287070     0.002503080038     0.000583403631
       6        0.001078598944     0.001576633021    -0.001162976112
       7       -0.000006901566     0.000001881040    -0.000003198074
       8        0.000001921141     0.000001717802     0.000016449896
       9       -0.001230856216    -0.001749665011    -0.000676585654
      10        0.000021395249     0.000029833322     0.000003260582
      11       -0.000006950016    -0.000004092712    -0.000044781929
      12        0.000026115312     0.000008382642    -0.000014217431
      13       -0.000026315440    -0.000007993230    -0.000001908240
      14        0.000005755380     0.000007263670     0.000033167044
      15       -0.000004469188    -0.000014328130    -0.000015121114
      16       -0.000002636451     0.000008161176    -0.000022440564
      17        0.000001992796     0.000003364319     0.000019830814
      18       -0.000000289323     0.000020259904    -0.000004517482
      19       -0.000001212999    -0.000020925409     0.000004520575
      20        0.000006264305    -0.000002724135     0.000001706402
      21       -0.000000414449     0.000000413496     0.000001949739
      22       -0.000005297108     0.000003154319     0.000001591024
      23       -0.000005881694     0.000011857043    -0.000000246044
      24        0.000001742404     0.000001227041     0.000001591153
      25        0.000008012648    -0.000013087666    -0.000001290485

  **** Optimization is complete! (in 6 steps) ****
    Final optimized geometry and variables:
    Molecular point group: c1

    Geometry (in Angstrom), charge = 0, multiplicity = 1:

    O            2.857023405981     1.332875710528    -0.255860854528
    C            2.830659338756     0.140524580897    -0.241094752250
    C            1.529591092710    -0.643496808093    -0.207650758399
    C            4.106624667183    -0.676348628474    -0.258510579068
    C            0.277908586009     0.231067882475    -0.184537974114
    H            1.527171019642    -1.292223481626    -1.082362585991
    H            1.560472739454    -1.306083080703     0.655664761047
    C           -0.987032156831    -0.570476598052     0.132140008848
    H            0.161795996074     0.708938923912    -1.152754744449
    H            0.405382483995     1.025944530741     0.541549970054
    C           -2.255576077573     0.283995194965     0.116862639909
    H           -1.093320817139    -1.383262681592    -0.585072659991
    H           -0.882752550929    -1.039617763906     1.109358083168
    C           -3.522019978977    -0.506176374341     0.451242034732
    H           -2.367826244881     0.743965985660    -0.863422277114
    H           -2.145512273925     1.102887617112     0.825605318289
    C           -4.784472611211     0.355050337453     0.437444137017
    H           -3.634975181238    -1.322833407678    -0.258808586862
    H           -3.410911532678    -0.967117282791     1.430530203662
    H           -4.942569234964     0.803205308019    -0.539453345860
    H           -5.664933675506    -0.232906602765     0.677817845641
    H           -4.716931530495     1.161173773301     1.162511009467
    H            4.127387881606    -1.328139766596    -1.127070499512
    H            4.962243544755    -0.015936963103    -0.282669507541
    H            4.162768392454    -1.310497359000     0.621447709051

  Mulliken Charges: (a.u.)
   Center  Symbol    Alpha    Beta     Spin     Total
       1     O     4.26096  4.26096  0.00000 -0.52192
       2     C     2.73655  2.73655  0.00000  0.52690
       3     C     3.21078  3.21078  0.00000 -0.42155
       4     C     3.28666  3.28666  0.00000 -0.57331
       5     C     3.14843  3.14843  0.00000 -0.29685
       6     H     0.40943  0.40943  0.00000  0.18115
       7     H     0.40994  0.40994  0.00000  0.18013
       8     C     3.15435  3.15435  0.00000 -0.30871
       9     H     0.41546  0.41546  0.00000  0.16907
      10     H     0.40764  0.40764  0.00000  0.18472
      11     C     3.15079  3.15079  0.00000 -0.30158
      12     H     0.42518  0.42518  0.00000  0.14964
      13     H     0.42462  0.42462  0.00000  0.15076
      14     C     3.15147  3.15147  0.00000 -0.30294
      15     H     0.42292  0.42292  0.00000  0.15417
      16     H     0.42213  0.42213  0.00000  0.15574
      17     C     3.23933  3.23933  0.00000 -0.47866
      18     H     0.42363  0.42363  0.00000  0.15274
      19     H     0.42344  0.42344  0.00000  0.15312
      20     H     0.42151  0.42151  0.00000  0.15699
      21     H     0.41954  0.41954  0.00000  0.16092
      22     H     0.42126  0.42126  0.00000  0.15748
      23     H     0.40876  0.40876  0.00000  0.18248
      24     H     0.39645  0.39645  0.00000  0.20710
      25     H     0.40879  0.40879  0.00000  0.18241

   Total alpha = 36.00000, Total beta = 36.00000, Total charge =  0.00000
