  ==> Input File <==

--------------------------------------------------------------------------
set {
	reference rhf
	basis 6-31G*
}

set_num_threads( 1 )
memory 2 gb

molecule MOL {
0 1

H	 3.012738	 -2.295243	 -2.258853
C	 2.805668	 -1.868743	 -1.282651
C	 1.544116	 -1.007118	 -1.315094
H	 2.701875	 -2.690318	 -0.579466
H	 3.674170	 -1.287589	 -0.985647
C	 1.217350	 -0.386724	 0.039429
H	 0.693785	 -1.599516	 -1.638187
H	 1.668016	 -0.215180	 -2.051895
N	 0.000003	 0.397874	 -0.023260
H	 1.067906	 -1.177841	 0.769336
H	 2.073414	 0.199565	 0.389855
C	 -1.217365	 -0.386708	 0.039277
H	 -0.000031	 1.072115	 0.718656
C	 -2.452633	 0.504241	 -0.042481
H	 -1.215291	 -1.074557	 -0.802042
H	 -1.269739	 -1.003477	 0.942735
C	 -3.758029	 -0.289423	 -0.010781
H	 -2.394220	 1.093569	 -0.952170
H	 -2.440793	 1.210787	 0.785871
H	 -3.816659	 -0.981993	 -0.845726
H	 -4.617837	 0.370165	 -0.069296
H	 -3.847478	 -0.867502	 0.904682

	symmetry c1
}
set optking {
	frozen_dihedral = ("
		15 12 14 18
	")
}

ee = energy('scf')
oeprop('DIPOLE', 'QUADRUPOLE', 'MULLIKEN_CHARGES')
f=open( 'psi4out.xyz', 'w' )
f.write( "22  " )
f.write( str(ee) + "\n" )
f.write( MOL.save_string_xyz() )
f.close()
--------------------------------------------------------------------------

    Molecular point group: c1

    Geometry (in Angstrom), charge = 0, multiplicity = 1:

       Center              X                  Y                   Z               Mass
    ------------   -----------------  -----------------  -----------------  -----------------
           H          3.280514450325    -1.850608760823    -1.893844187033     1.007825032070
           C          3.073444450325    -1.424108760823    -0.917642187033    12.000000000000
           C          1.811892450325    -0.562483760823    -0.950085187033    12.000000000000
           H          2.969651450325    -2.245683760823    -0.214457187033     1.007825032070
           H          3.941946450325    -0.842954760823    -0.620638187033     1.007825032070
           C          1.485126450325     0.057910239177     0.404437812967    12.000000000000
           H          0.961561450325    -1.154881760823    -1.273178187033     1.007825032070
           H          1.935792450325     0.229454239177    -1.686886187033     1.007825032070
           N          0.267779450325     0.842508239177     0.341748812967    14.003074004780
           H          1.335682450325    -0.733206760823     1.134344812967     1.007825032070
           H          2.341190450325     0.644199239177     0.754863812967     1.007825032070
           C         -0.949588549675     0.057926239177     0.404285812967    12.000000000000
           H          0.267745450325     1.516749239177     1.083664812967     1.007825032070
           C         -2.184856549675     0.948875239177     0.322527812967    12.000000000000
           H         -0.947514549675    -0.629922760823    -0.437033187033     1.007825032070
           H         -1.001962549675    -0.558842760823     1.307743812967     1.007825032070
           C         -3.490252549675     0.155211239177     0.354227812967    12.000000000000
           H         -2.126443549675     1.538203239177    -0.587161187033     1.007825032070
           H         -2.173016549675     1.655421239177     1.150879812967     1.007825032070
           H         -3.548882549675    -0.537358760823    -0.480717187033     1.007825032070
           H         -4.350060549675     0.814799239177     0.295712812967     1.007825032070
           H         -3.579701549675    -0.422867760823     1.269690812967     1.007825032070

  Charge       = 0
  Multiplicity = 1
  Basis Set: 6-31G*
  Basis Set:

    Orbital Energies (a.u.)
    -----------------------

    Doubly Occupied:

       1A    -15.532922     2A    -11.238418     3A    -11.238266
       4A    -11.214070     5A    -11.210110     6A    -11.208573
       7A    -11.207144     8A     -1.205950     9A     -1.056312
      10A     -1.025872    11A     -0.927832    12A     -0.873347
      13A     -0.808241    14A     -0.788144    15A     -0.663626
      16A     -0.639856    17A     -0.614745    18A     -0.604286
      19A     -0.579162    20A     -0.554449    21A     -0.550170
      22A     -0.523857    23A     -0.500741    24A     -0.488259
      25A     -0.480078    26A     -0.473665    27A     -0.459238
      28A     -0.455668    29A     -0.357089

  @DF-RHF Final Energy:  -290.37927109236023

   => Energetics <=

    Nuclear Repulsion Energy =            317.8151486484243833
    One-Electron Energy =               -1021.4289079543656271
    Two-Electron Energy =                 413.2344882135800503
    DFT Exchange-Correlation Energy =       0.0000000000000000
    Empirical Dispersion Energy =           0.0000000000000000
    PCM Polarization Energy =               0.0000000000000000
    EFP Energy =                            0.0000000000000000
    Total Energy =                       -290.3792710923611935

  Mulliken Charges: (a.u.)
   Center  Symbol    Alpha    Beta     Spin     Total
       1     H     0.41821  0.41821  0.00000  0.16358
       2     C     3.24415  3.24415  0.00000 -0.48831
       3     C     3.14864  3.14864  0.00000 -0.29729
       4     H     0.42236  0.42236  0.00000  0.15528
       5     H     0.42231  0.42231  0.00000  0.15538
       6     C     3.05777  3.05777  0.00000 -0.11555
       7     H     0.42208  0.42208  0.00000  0.15585
       8     H     0.41613  0.41613  0.00000  0.16775
       9     N     3.85485  3.85485  0.00000 -0.70971
      10     H     0.43437  0.43437  0.00000  0.13126
      11     H     0.42045  0.42045  0.00000  0.15909
      12     C     3.05263  3.05263  0.00000 -0.10525
      13     H     0.33275  0.33275  0.00000  0.33450
      14     C     3.15453  3.15453  0.00000 -0.30905
      15     H     0.42021  0.42021  0.00000  0.15958
      16     H     0.43595  0.43595  0.00000  0.12810
      17     C     3.24335  3.24335  0.00000 -0.48671
      18     H     0.41273  0.41273  0.00000  0.17453
      19     H     0.42660  0.42660  0.00000  0.14681
      20     H     0.42069  0.42069  0.00000  0.15863
      21     H     0.41759  0.41759  0.00000  0.16483
      22     H     0.42165  0.42165  0.00000  0.15670

   Total alpha = 29.00000, Total beta = 29.00000, Total charge = -0.00000
