  ==> Input File <==

--------------------------------------------------------------------------
set {
	reference rhf
	basis cc-pvtz
}

set_num_threads( 4 )
memory 2 gb

molecule MOL {
0 1

H	 3.291742	 -0.440811	 -0.039362
C	 2.234314	 -0.257172	 -0.030022
C	 1.529952	 -0.346991	 1.161254
C	 1.583565	 0.066934	 -1.203477
H	 2.042717	 -0.599367	 2.069093
C	 0.173339	 -0.112177	 1.177608
H	 2.130963	 0.135669	 -2.123317
C	 0.221080	 0.302480	 -1.185462
H	 -0.388307	 -0.176746	 2.088125
C	 -0.486398	 0.214248	 0.000000
H	 -0.291734	 0.555177	 -2.095045
C	 -1.946525	 0.470130	 0.000000
O	 -2.779618	 -0.371226	 0.000000
H	 -2.227127	 1.528393	 0.000000

	symmetry c1
}
set optking {
	frozen_dihedral = ("
		8 10 12 14
	")
}

ee = optimize('scf')
oeprop('DIPOLE', 'QUADRUPOLE', 'MULLIKEN_CHARGES')
f=open( 'psi4out.xyz', 'w' )
f.write( "14  " )
f.write( str(ee) + "\n" )
f.write( MOL.save_string_xyz() )
f.close()
--------------------------------------------------------------------------

    Molecular point group: c1
  Charge       = 0
  Multiplicity = 1
  Basis Set: CC-PVTZ
  Basis Set:
  @DF-RHF Final Energy:  -343.53707474378092
    Total Energy =                       -343.5370747437809769
    Molecular point group: c1
  Basis Set: CC-PVTZ
  Basis Set:
  Basis Set: CC-PVTZ
  Basis Set:
  @DF-RHF Final Energy:  -343.53682320722277
    Total Energy =                       -343.5368232072224828
  Basis Set: CC-PVTZ
  Basis Set:
  Basis Set: CC-PVTZ
  Basis Set:
  @DF-RHF Final Energy:  -343.53727421083659
    Total Energy =                       -343.5372742108364150
  Basis Set: CC-PVTZ
  Basis Set:
  Basis Set: CC-PVTZ
  Basis Set:
  @DF-RHF Final Energy:  -343.53751978155088
    Total Energy =                       -343.5375197815513957
  Basis Set: CC-PVTZ
  Basis Set:
  Charge       = 0
  Multiplicity = 1
  Basis Set: CC-PVTZ
  Basis Set:

    Orbital Energies (a.u.)
    -----------------------

    Doubly Occupied:

       1A    -20.563878     2A    -11.332889     3A    -11.251046
       4A    -11.245821     5A    -11.244931     6A    -11.242686
       7A    -11.242027     8A    -11.240522     9A     -1.418162
      10A     -1.174584    11A     -1.048897    12A     -1.033181
      13A     -0.890148    14A     -0.844868    15A     -0.798384
      16A     -0.725497    17A     -0.681121    18A     -0.656944
      19A     -0.645867    20A     -0.620586    21A     -0.603943
      22A     -0.540400    23A     -0.532105    24A     -0.518028
      25A     -0.505866    26A     -0.426216    27A     -0.352001
      28A     -0.351239

  @DF-RHF Final Energy:  -343.53752167714345

   => Energetics <=

    Nuclear Repulsion Energy =            323.2189289308452089
    One-Electron Energy =               -1106.0492267079939666
    Two-Electron Energy =                 439.2927761000054261
    DFT Exchange-Correlation Energy =       0.0000000000000000
    Empirical Dispersion Energy =           0.0000000000000000
    PCM Polarization Energy =               0.0000000000000000
    EFP Energy =                            0.0000000000000000
    Total Energy =                       -343.5375216771433315
    Molecular point group: c1
  Basis Set: CC-PVTZ
  Basis Set:

  -Total Gradient:
     Atom            X                  Y                   Z
    ------   -----------------  -----------------  -----------------
       1       -0.000005203550    -0.000017643016     0.000025145481
       2        0.000020877212     0.000065741427    -0.000277186512
       3       -0.000233316017     0.000105607293     0.000136839793
       4        0.000233049326    -0.000125766248     0.000136525475
       5        0.000018863794    -0.000021835752    -0.000012915646
       6        0.000192849036    -0.000133140565     0.000080439095
       7       -0.000012154822     0.000009018929    -0.000009958286
       8       -0.000687483957    -0.002385669969    -0.000292417119
       9       -0.000005830510     0.000017264479    -0.000012032924
      10        0.000666541691     0.003641106855     0.001431833533
      11        0.000009561794    -0.000009177032    -0.000000807713
      12       -0.000306024677    -0.001168449191    -0.004250341336
      13        0.000045406597    -0.000002126470    -0.000018210168
      14        0.000062864087     0.000025069262     0.003063086327

  **** Optimization is complete! (in 5 steps) ****
    Final optimized geometry and variables:
    Molecular point group: c1

    Geometry (in Angstrom), charge = 0, multiplicity = 1:

    H            3.295278530183    -0.447900347756    -0.027354814607
    C            2.239661670063    -0.255631834618    -0.020874996540
    C            1.528594799001    -0.338943549731     1.161557556148
    C            1.588431720561     0.070705549054    -1.195017598566
    H            2.030613793025    -0.598242406080     2.073744641688
    C            0.168079550704    -0.099425710342     1.171020307167
    H            2.135398907793     0.127699168399    -2.116370368361
    C            0.229608475802     0.322342739476    -1.186229464007
    H           -0.386273045788    -0.181438921988     2.086458233840
    C           -0.482246687785     0.239655876364    -0.002695525168
    H           -0.273122025036     0.575647484728    -2.100962203627
    C           -1.962026119472     0.481964003349     0.005123226625
    O           -2.768613092967    -0.379067141254     0.055780449679
    H           -2.274831456554     1.531494859000    -0.001647104256

  Mulliken Charges: (a.u.)
   Center  Symbol    Alpha    Beta     Spin     Total
       1     H     0.42087  0.42087  0.00000  0.15825
       2     C     3.08366  3.08366  0.00000 -0.16733
       3     C     3.06312  3.06312  0.00000 -0.12625
       4     C     3.06425  3.06425  0.00000 -0.12850
       5     H     0.42110  0.42110  0.00000  0.15779
       6     C     3.09705  3.09705  0.00000 -0.19409
       7     H     0.42100  0.42100  0.00000  0.15801
       8     C     3.09728  3.09728  0.00000 -0.19455
       9     H     0.42104  0.42104  0.00000  0.15792
      10     C     2.94025  2.94025  0.00000  0.11949
      11     H     0.42411  0.42411  0.00000  0.15178
      12     C     2.93336  2.93336  0.00000  0.13328
      13     O     4.15526  4.15526  0.00000 -0.31052
      14     H     0.45764  0.45764  0.00000  0.08473

   Total alpha = 28.00000, Total beta = 28.00000, Total charge = -0.00000
