                              Psi4 1.0.54 Driver

  ==> Input File <==

--------------------------------------------------------------------------
set {
	reference rhf
	basis cc-pvtz
}

set_num_threads( 4 )
memory 2 gb

molecule MOL {
0 1

O	 -0.642001	 -0.062350	 -0.277313
C	 0.485107	 0.171416	 -0.000134
C	 1.606966	 -0.836201	 0.000174
O	 0.914757	 1.370587	 0.351967
C	 2.988788	 -0.202529	 -0.000115
H	 1.465110	 -1.474645	 -0.864821
H	 1.465209	 -1.474077	 0.865596
H	 3.131767	 0.419673	 -0.873407
H	 3.750876	 -0.972315	 0.000098
H	 3.131883	 0.420264	 0.872742
C	 -0.033341	 2.427642	 0.397032
C	 0.693404	 3.681830	 0.822876
H	 -0.818484	 2.168171	 1.093144
H	 -0.482201	 2.541242	 -0.579669
H	 1.139407	 3.555914	 1.801446
H	 -0.003238	 4.510631	 0.867717
H	 1.477556	 3.931162	 0.119094

	symmetry c1
}
set optking {
	frozen_dihedral = ("
		4 2 3 6
	")
}

ee,wfn = optimize('scf', return_wfn=True)
oeprop( wfn, 'DIPOLE', 'QUADRUPOLE', 'MULLIKEN_CHARGES')
f=open( 'psi4out.xyz', 'w' )
f.write( "17  " )
f.write( str(ee) + "\n" )
f.write( MOL.save_string_xyz() )
f.close()
--------------------------------------------------------------------------

    Molecular point group: c1
  Charge       = 0
  Multiplicity = 1
  Basis Set: CC-PVTZ
  Basis Set:
  @DF-RHF Final Energy:  -345.03694841750507
    Total Energy =                       -345.0369484175051866
    Molecular point group: c1
  Basis Set: CC-PVTZ
  Basis Set:
  Basis Set: CC-PVTZ
  Basis Set:
  @DF-RHF Final Energy:  -344.98565834619370
    Total Energy =                       -344.9856583461939294
  Basis Set: CC-PVTZ
  Basis Set:
  Basis Set: CC-PVTZ
  Basis Set:
  @DF-RHF Final Energy:  -345.03575663594359
    Total Energy =                       -345.0357566359438124
  Basis Set: CC-PVTZ
  Basis Set:
  Basis Set: CC-PVTZ
  Basis Set:
  @DF-RHF Final Energy:  -345.03801978209879
    Total Energy =                       -345.0380197820983312
  Basis Set: CC-PVTZ
  Basis Set:
  @DF-RHF Final Energy:  -345.03630321958383
    Total Energy =                       -345.0363032195837718
  @DF-RHF Final Energy:  -345.03767389937832
    Total Energy =                       -345.0376738993784329
  Basis Set: CC-PVTZ
  Basis Set:
  @DF-RHF Final Energy:  -345.03813274384459
    Total Energy =                       -345.0381327438444714
  Basis Set: CC-PVTZ
  Basis Set:
  Basis Set: CC-PVTZ
  Basis Set:
  @DF-RHF Final Energy:  -345.03813844605537
    Total Energy =                       -345.0381384460550862
  Basis Set: CC-PVTZ
  Basis Set:
  Basis Set: CC-PVTZ
  Basis Set:
  @DF-RHF Final Energy:  -345.03813960055942
    Total Energy =                       -345.0381396005593047
  Basis Set: CC-PVTZ
  Basis Set:
  Charge       = 0
  Multiplicity = 1
  Basis Set: CC-PVTZ
  Basis Set:

    Orbital Energies (a.u.)
    -----------------------

    Doubly Occupied:

       1A    -20.596286     2A    -20.528298     3A    -11.363741
       4A    -11.283464     5A    -11.236098     6A    -11.221243
       7A    -11.218806     8A     -1.471527     9A     -1.363072
      10A     -1.072917    11A     -1.031226    12A     -0.906266
      13A     -0.861745    14A     -0.780397    15A     -0.693307
      16A     -0.680329    17A     -0.675047    18A     -0.630324
      19A     -0.577566    20A     -0.573521    21A     -0.554239
      22A     -0.550507    23A     -0.523490    24A     -0.514792
      25A     -0.507782    26A     -0.491633    27A     -0.454062
      28A     -0.433894

  @DF-RHF Final Energy:  -345.03813974164859

   => Energetics <=

    Nuclear Repulsion Energy =            318.0635361007516622
    One-Electron Energy =               -1100.6121979353395091
    Two-Electron Energy =                 437.5105220929394250
    DFT Exchange-Correlation Energy =       0.0000000000000000
    Empirical Dispersion Energy =           0.0000000000000000
    PCM Polarization Energy =               0.0000000000000000
    EFP Energy =                            0.0000000000000000
    Total Energy =                       -345.0381397416484219
    Molecular point group: c1
  Basis Set: CC-PVTZ
  Basis Set:

  -Total Gradient:
     Atom            X                  Y                   Z
    ------   -----------------  -----------------  -----------------
       1        0.000053613757     0.000011334133    -0.000007529747
       2        0.000099636975     0.000031881042     0.000450801032
       3       -0.000098623417    -0.000321301282     0.000381608087
       4       -0.000126324269     0.000025548081    -0.000418125532
       5        0.000013708770     0.000008059339    -0.000002001313
       6        0.000024562098     0.000269087700    -0.000418721079
       7        0.000005963007    -0.000006106486     0.000006979061
       8       -0.000000161349     0.000002151580    -0.000006333426
       9       -0.000002493088     0.000005478716     0.000001985951
      10        0.000004840137     0.000000142867    -0.000002869305
      11        0.000024252380    -0.000013711045     0.000055619767
      12        0.000004551167    -0.000002110469    -0.000018207744
      13       -0.000004868337    -0.000001297931    -0.000001961800
      14       -0.000004435778    -0.000010228168    -0.000015969713
      15        0.000004856520    -0.000002338142     0.000004274625
      16       -0.000003343855    -0.000006700767    -0.000001620911
      17        0.000004265282     0.000010110830    -0.000007927952

  **** Optimization is complete! (in 10 steps) ****
    Final optimized geometry and variables:
    Molecular point group: c1

    Geometry (in Angstrom), charge = 0, multiplicity = 1:

    O           -1.150695415906    -1.372216114669     0.460001971775
    C           -0.152805721252    -0.833265792747     0.116562712136
    C            1.102673917186    -1.587764477592    -0.257906179128
    O           -0.026017925755     0.477264425849     0.043170201335
    C            2.175920815564    -0.803686136201    -1.001787906233
    H            0.775256318431    -2.442935815351    -0.834252632838
    H            1.497332154384    -1.984071396482     0.672062743701
    H            1.797038200099    -0.401994888581    -1.933199948956
    H            3.009539550250    -1.455592228829    -1.232973247268
    H            2.546237728740     0.022551386010    -0.410946983931
    C           -1.149080970472     1.271214015741     0.402167556901
    C           -0.761611252290     2.721818934593     0.235162465973
    H           -1.425858649443     1.048088860599     1.422706991931
    H           -1.983442144636     1.006697208996    -0.231605471961
    H            0.075302059795     2.974262543320     0.874138970128
    H           -1.599008755826     3.355992582764     0.501168382617
    H           -0.485051107371     2.932321037765    -0.790316307116

  Mulliken Charges: (a.u.)
   Center  Symbol    Alpha    Beta     Spin     Total
       1     O     4.20423  4.20423  0.00000 -0.40846
       2     C     2.81126  2.81126  0.00000  0.37748
       3     C     3.08973  3.08973  0.00000 -0.17946
       4     O     4.14715  4.14715  0.00000 -0.29429
       5     C     3.14141  3.14141  0.00000 -0.28281
       6     H     0.43670  0.43670  0.00000  0.12661
       7     H     0.44284  0.44284  0.00000  0.11433
       8     H     0.45139  0.45139  0.00000  0.09722
       9     H     0.44922  0.44922  0.00000  0.10155
      10     H     0.44886  0.44886  0.00000  0.10227
      11     C     2.98016  2.98016  0.00000  0.03968
      12     C     3.13364  3.13364  0.00000 -0.26728
      13     H     0.45343  0.45343  0.00000  0.09314
      14     H     0.45343  0.45343  0.00000  0.09313
      15     H     0.45156  0.45156  0.00000  0.09689
      16     H     0.45373  0.45373  0.00000  0.09255
      17     H     0.45127  0.45127  0.00000  0.09746

   Total alpha = 28.00000, Total beta = 28.00000, Total charge = -0.00000

*** Psi4 exiting successfully. Buy a developer a beer!
