  ==> Input File <==

--------------------------------------------------------------------------
set {
	reference rhf
	basis cc-pvtz
}

set_num_threads( 4 )
memory 2 gb

molecule MOL {
0 1

O	 1.882353	 1.677479	 0.937703
C	 0.869423	 1.398533	 0.362481
C	 -0.196803	 2.453778	 0.151646
N	 0.622280	 0.144970	 -0.099307
H	 -1.134411	 2.164213	 0.609236
H	 0.156039	 3.363884	 0.607390
H	 -0.376184	 2.628418	 -0.902060
C	 1.664396	 -0.854993	 0.000772
C	 -0.470382	 -0.188670	 -0.981649
H	 2.462727	 -0.615153	 -0.690869
H	 1.261798	 -1.821849	 -0.240651
H	 2.081615	 -0.891605	 1.003877
H	 -0.802343	 -1.197216	 -0.771239
H	 -1.312095	 0.467171	 -0.839210
H	 -0.174881	 -0.146957	 -2.027586

	symmetry c1
}
set optking {
	frozen_dihedral = ("
		2 4 8 10
	")
}

ee = optimize('scf')
oeprop('DIPOLE', 'QUADRUPOLE', 'MULLIKEN_CHARGES')
f=open( 'psi4out.xyz', 'w' )
f.write( "15  " )
f.write( str(ee) + "\n" )
f.write( MOL.save_string_xyz() )
f.close()
--------------------------------------------------------------------------

    Molecular point group: c1
  Charge       = 0
  Multiplicity = 1
  Basis Set: CC-PVTZ
  Basis Set:
  @DF-RHF Final Energy:  -286.13452022793643
    Total Energy =                       -286.1345202279363775
    Molecular point group: c1
  Basis Set: CC-PVTZ
  Basis Set:
  Basis Set: CC-PVTZ
  Basis Set:
  @DF-RHF Final Energy:  -286.13511345792210
    Total Energy =                       -286.1351134579221025
  Basis Set: CC-PVTZ
  Basis Set:
  Basis Set: CC-PVTZ
  Basis Set:
  @DF-RHF Final Energy:  -286.13506008747083
    Total Energy =                       -286.1350600874708334
  Basis Set: CC-PVTZ
  Basis Set:
  Basis Set: CC-PVTZ
  Basis Set:
  @DF-RHF Final Energy:  -286.13523763921978
    Total Energy =                       -286.1352376392195538
  Basis Set: CC-PVTZ
  Basis Set:
  Basis Set: CC-PVTZ
  Basis Set:
  @DF-RHF Final Energy:  -286.13524880699862
    Total Energy =                       -286.1352488069985611
  Basis Set: CC-PVTZ
  Basis Set:
  Basis Set: CC-PVTZ
  Basis Set:
  @DF-RHF Final Energy:  -286.13525455038911
    Total Energy =                       -286.1352545503890497
  Basis Set: CC-PVTZ
  Basis Set:
  Basis Set: CC-PVTZ
  Basis Set:
  @DF-RHF Final Energy:  -286.13525721995518
    Total Energy =                       -286.1352572199551787
  Basis Set: CC-PVTZ
  Basis Set:
  Charge       = 0
  Multiplicity = 1
  Basis Set: CC-PVTZ
  Basis Set:

    Orbital Energies (a.u.)
    -----------------------

    Doubly Occupied:

       1A    -20.504803     2A    -15.577468     3A    -11.333492
       4A    -11.264191     5A    -11.246889     6A    -11.226600
       7A     -1.388295     8A     -1.244704     9A     -1.014709
      10A     -0.973541    11A     -0.919437    12A     -0.738429
      13A     -0.682193    14A     -0.660569    15A     -0.653690
      16A     -0.589093    17A     -0.577694    18A     -0.569928
      19A     -0.564556    20A     -0.547159    21A     -0.530848
      22A     -0.503293    23A     -0.414766    24A     -0.371160

  @DF-RHF Final Energy:  -286.13525742620772

   => Energetics <=

    Nuclear Repulsion Energy =            253.1152548097996373
    One-Electron Energy =                -890.3060151003887768
    Two-Electron Energy =                 351.0555028643815376
    DFT Exchange-Correlation Energy =       0.0000000000000000
    Empirical Dispersion Energy =           0.0000000000000000
    PCM Polarization Energy =               0.0000000000000000
    EFP Energy =                            0.0000000000000000
    Total Energy =                       -286.1352574262076587
    Molecular point group: c1
  Basis Set: CC-PVTZ
  Basis Set:

  -Total Gradient:
     Atom            X                  Y                   Z
    ------   -----------------  -----------------  -----------------
       1        0.000021360405    -0.000018997767     0.000003006704
       2        0.000192736983     0.000175432606    -0.000677279932
       3       -0.000005548438    -0.000007822093     0.000000952899
       4       -0.000210833636    -0.000075493196     0.001103075104
       5       -0.000006579323    -0.000000648169    -0.000004798877
       6        0.000000503633    -0.000006267047    -0.000002395043
       7       -0.000003310287     0.000002646898    -0.000004629838
       8       -0.000411188444    -0.000583936416    -0.001062738156
       9        0.000017975709     0.000005769983     0.000037682054
      10        0.000396399204     0.000511722230     0.000608017999
      11        0.000003921699    -0.000000530851     0.000000007222
      12        0.000007878013    -0.000006573814     0.000003342147
      13       -0.000007267170    -0.000004395087     0.000005421497
      14       -0.000003305048     0.000013697994    -0.000009796300
      15        0.000007256705    -0.000004605268     0.000000132517

  **** Optimization is complete! (in 8 steps) ****
    Final optimized geometry and variables:
    Molecular point group: c1

    Geometry (in Angstrom), charge = 0, multiplicity = 1:

    O            1.171949852557     0.894890288522     0.843665798416
    C            0.136219040065     0.629262062035     0.303948906706
    C           -0.923616638285     1.694404947360     0.118051688546
    N           -0.129878310807    -0.628862231741    -0.133136593858
    H           -1.866310904505     1.398459147654     0.560356709058
    H           -0.568257594478     2.591171575640     0.597955296004
    H           -1.093191255323     1.897607975305    -0.932426832554
    C            0.946971065115    -1.596322389997    -0.041529734974
    C           -1.205134849108    -0.950830693233    -1.042388195424
    H            1.741826911796    -1.383665874286    -0.749308956129
    H            0.550516663895    -2.581319169866    -0.242858440561
    H            1.374547987430    -1.582724736743     0.947803107312
    H           -1.573399941867    -1.945147814399    -0.827116358746
    H           -2.030045003053    -0.267920567263    -0.932141127132
    H           -0.881486488123    -0.930376308107    -2.080669070358

  Mulliken Charges: (a.u.)
   Center  Symbol    Alpha    Beta     Spin     Total
       1     O     4.21902  4.21902  0.00000 -0.43804
       2     C     2.84501  2.84501  0.00000  0.30998
       3     C     3.16029  3.16029  0.00000 -0.32057
       4     N     3.56442  3.56442  0.00000 -0.12883
       5     H     0.44883  0.44883  0.00000  0.10235
       6     H     0.42882  0.42882  0.00000  0.14237
       7     H     0.44901  0.44901  0.00000  0.10198
       8     C     3.09178  3.09178  0.00000 -0.18355
       9     C     3.09674  3.09674  0.00000 -0.19347
      10     H     0.45341  0.45341  0.00000  0.09318
      11     H     0.45770  0.45770  0.00000  0.08460
      12     H     0.43531  0.43531  0.00000  0.12937
      13     H     0.44846  0.44846  0.00000  0.10309
      14     H     0.44568  0.44568  0.00000  0.10864
      15     H     0.45554  0.45554  0.00000  0.08892

   Total alpha = 24.00000, Total beta = 24.00000, Total charge = -0.00000
