                              Psi4 1.0.54 Driver

  ==> Input File <==

--------------------------------------------------------------------------
set {
	reference rhf
	basis cc-pvtz
}

set_num_threads( 4 )
memory 2 gb

molecule MOL {
0 1

H	 -3.448040	 1.632368	 0.324186
C	 -2.953794	 0.719322	 0.585674
C	 -1.847123	 0.385428	 -0.031692
H	 -3.379480	 0.100694	 1.351108
O	 -1.189946	 -0.765863	 0.237511
H	 -1.407275	 1.002000	 -0.794253
C	 0.026572	 -0.995256	 -0.379403
C	 1.057223	 0.049888	 -0.004615
H	 -0.054361	 -1.010670	 -1.459674
H	 0.397526	 -1.952058	 -0.044198
F	 2.203233	 -0.234060	 -0.590375
F	 0.698147	 1.254887	 -0.392621
F	 1.266440	 0.094219	 1.288722

	symmetry c1
}
set optking {
	frozen_dihedral = ("
		3 5 7 9
	")
}

ee,wfn = optimize('scf', return_wfn=True)
oeprop( wfn, 'DIPOLE', 'QUADRUPOLE', 'MULLIKEN_CHARGES')
f=open( 'psi4out.xyz', 'w' )
f.write( "13  " )
f.write( str(ee) + "\n" )
f.write( MOL.save_string_xyz() )
f.close()
--------------------------------------------------------------------------

    Molecular point group: c1
  Charge       = 0
  Multiplicity = 1
  Basis Set: CC-PVTZ
  Basis Set:
  @DF-RHF Final Energy:  -527.73728161221004
    Total Energy =                       -527.7372816122102677
    Molecular point group: c1
  Basis Set: CC-PVTZ
  Basis Set:
  Basis Set: CC-PVTZ
  Basis Set:
  @DF-RHF Final Energy:  -527.73949572519075
    Total Energy =                       -527.7394957251906362
  Basis Set: CC-PVTZ
  Basis Set:
  Basis Set: CC-PVTZ
  Basis Set:
  @DF-RHF Final Energy:  -527.74000762177081
    Total Energy =                       -527.7400076217710421
  Basis Set: CC-PVTZ
  Basis Set:
  Basis Set: CC-PVTZ
  Basis Set:
  @DF-RHF Final Energy:  -527.74009639328779
    Total Energy =                       -527.7400963932873310
  Basis Set: CC-PVTZ
  Basis Set:
  Basis Set: CC-PVTZ
  Basis Set:
  @DF-RHF Final Energy:  -527.74011735734643
    Total Energy =                       -527.7401173573464348
  Basis Set: CC-PVTZ
  Basis Set:
  Basis Set: CC-PVTZ
  Basis Set:
  @DF-RHF Final Energy:  -527.74012106725399
    Total Energy =                       -527.7401210672543357
  Basis Set: CC-PVTZ
  Basis Set:
  Charge       = 0
  Multiplicity = 1
  Basis Set: CC-PVTZ
  Basis Set:

    Orbital Energies (a.u.)
    -----------------------

    Doubly Occupied:

       1A    -26.342614     2A    -26.342149     3A    -26.339574
       4A    -20.602232     5A    -11.500195     6A    -11.319161
       7A    -11.295874     8A    -11.214570     9A     -1.752110
      10A     -1.648062    11A     -1.647067    12A     -1.441525
      13A     -1.086093    14A     -1.021887    15A     -0.933462
      16A     -0.844091    17A     -0.840422    18A     -0.834230
      19A     -0.788772    20A     -0.727897    21A     -0.719666
      22A     -0.701507    23A     -0.681560    24A     -0.669680
      25A     -0.662606    26A     -0.652226    27A     -0.644813
      28A     -0.591268    29A     -0.565633    30A     -0.527453
      31A     -0.507710    32A     -0.358988

  @DF-RHF Final Energy:  -527.74012149892837

   => Energetics <=

    Nuclear Repulsion Energy =            416.4592054941825268
    One-Electron Energy =               -1556.7884608430856588
    Two-Electron Energy =                 612.5891338499745871
    DFT Exchange-Correlation Energy =       0.0000000000000000
    Empirical Dispersion Energy =           0.0000000000000000
    PCM Polarization Energy =               0.0000000000000000
    EFP Energy =                            0.0000000000000000
    Total Energy =                       -527.7401214989286018
    Molecular point group: c1
  Basis Set: CC-PVTZ
  Basis Set:

  -Total Gradient:
     Atom            X                  Y                   Z
    ------   -----------------  -----------------  -----------------
       1       -0.000000076992     0.000006674906     0.000006238993
       2       -0.000032707660     0.000026458821     0.000020216565
       3        0.001482321817     0.001657466096     0.002718230582
       4       -0.000003059352    -0.000001466903    -0.000008231344
       5       -0.002290404333    -0.003705578448    -0.004076892526
       6       -0.000010997619    -0.000004150351     0.000034749508
       7        0.001124793998     0.006171717372     0.001317629790
       8        0.000122635966     0.000067579864    -0.000027695170
       9       -0.000331270256    -0.004182203931     0.000012600047
      10        0.000004019392     0.000017285753    -0.000008037528
      11       -0.000042400551     0.000019483385    -0.000012728793
      12        0.000016734313    -0.000072549768     0.000016448503
      13       -0.000039588722    -0.000000716797     0.000007471372

  **** Optimization is complete! (in 7 steps) ****
    Final optimized geometry and variables:
    Molecular point group: c1

    Geometry (in Angstrom), charge = 0, multiplicity = 1:

    H           -3.575710476627     1.390669880713     0.386299540269
    C           -2.964997009013     0.549236592070     0.642642203978
    C           -2.009970465678     0.171231254698    -0.170541722560
    H           -3.156288915934     0.031566302924     1.562087536721
    O           -1.247843742960    -0.922014290166     0.075933042694
    H           -1.802373525810     0.682843260074    -1.092485340125
    C           -0.008553462919    -1.026769153604    -0.531024470204
    C            1.001762770813     0.017810195812    -0.096919610588
    H           -0.079608630694    -1.023026943674    -1.613564109543
    H            0.397118887887    -1.981947105581    -0.234125065435
    F            2.174335613263    -0.281998571314    -0.617984049102
    F            0.691739000311     1.231570931475    -0.501363631575
    F            1.135388620333     0.056636912576     1.206467047758

  Mulliken Charges: (a.u.)
   Center  Symbol    Alpha    Beta     Spin     Total
       1     H     0.42535  0.42535  0.00000  0.14930
       2     C     3.19136  3.19136  0.00000 -0.38271
       3     C     2.96427  2.96427  0.00000  0.07145
       4     H     0.42416  0.42416  0.00000  0.15167
       5     O     4.14496  4.14496  0.00000 -0.28992
       6     H     0.43169  0.43169  0.00000  0.13662
       7     C     3.02242  3.02242  0.00000 -0.04484
       8     C     2.67790  2.67790  0.00000  0.64420
       9     H     0.45246  0.45246  0.00000  0.09507
      10     H     0.43639  0.43639  0.00000  0.12722
      11     F     4.61106  4.61106  0.00000 -0.22212
      12     F     4.61114  4.61114  0.00000 -0.22228
      13     F     4.60684  4.60684  0.00000 -0.21367

   Total alpha = 32.00000, Total beta = 32.00000, Total charge = -0.00000

*** Psi4 exiting successfully. Buy a developer a beer!
