                              Psi4 1.0.54 Driver

  ==> Input File <==

--------------------------------------------------------------------------
set {
	reference rhf
	basis cc-pvtz
}

set_num_threads( 4 )
memory 2 gb

molecule MOL {
0 1

H	 -2.266619	 1.169943	 0.000098
O	 -1.438073	 1.611259	 0.000041
C	 -0.408657	 0.734701	 0.000005
C	 0.679464	 1.049216	 0.792773
C	 -0.428898	 -0.431568	 -0.755983
H	 0.656825	 1.958263	 1.361150
C	 1.764838	 0.200324	 0.840870
C	 0.675159	 -1.265845	 -0.688387
C	 -1.617098	 -0.773368	 -1.620596
H	 2.606024	 0.451028	 1.458554
C	 1.768734	 -0.964835	 0.098698
H	 0.674951	 -2.171085	 -1.266753
H	 -1.794623	 -0.016289	 -2.379303
H	 -1.458738	 -1.711101	 -2.133450
H	 -2.526124	 -0.875345	 -1.034424
H	 2.609533	 -1.629945	 0.131156

	symmetry c1
}
set optking {
	frozen_dihedral = ("
		4 3 2 1
	")
}

ee,wfn = optimize('scf', return_wfn=True)
oeprop( wfn, 'DIPOLE', 'QUADRUPOLE', 'MULLIKEN_CHARGES')
f=open( 'psi4out.xyz', 'w' )
f.write( "16  " )
f.write( str(ee) + "\n" )
f.write( MOL.save_string_xyz() )
f.close()
--------------------------------------------------------------------------

    Molecular point group: c1
  Charge       = 0
  Multiplicity = 1
  Basis Set: CC-PVTZ
  Basis Set:
  @DF-RHF Final Energy:  -344.71776340156373
    Total Energy =                       -344.7177634015639569
    Molecular point group: c1
  Basis Set: CC-PVTZ
  Basis Set:
  Basis Set: CC-PVTZ
  Basis Set:
  @DF-RHF Final Energy:  -344.71796773972943
    Total Energy =                       -344.7179677397295450
  Basis Set: CC-PVTZ
  Basis Set:
  Basis Set: CC-PVTZ
  Basis Set:
  @DF-RHF Final Energy:  -344.71800268431900
    Total Energy =                       -344.7180026843188898
  Basis Set: CC-PVTZ
  Basis Set:
  Basis Set: CC-PVTZ
  Basis Set:
  @DF-RHF Final Energy:  -344.71800805912818
    Total Energy =                       -344.7180080591281239
  Basis Set: CC-PVTZ
  Basis Set:
  Charge       = 0
  Multiplicity = 1
  Basis Set: CC-PVTZ
  Basis Set:

    Orbital Energies (a.u.)
    -----------------------

    Doubly Occupied:

       1A    -20.576814     2A    -11.287475     3A    -11.233939
       4A    -11.228262     5A    -11.227880     6A    -11.227107
       7A    -11.219502     8A    -11.219341     9A     -1.405348
      10A     -1.153658    11A     -1.050794    12A     -1.007724
      13A     -0.941400    14A     -0.828552    15A     -0.819851
      16A     -0.732770    17A     -0.678183    18A     -0.649985
      19A     -0.621753    20A     -0.598535    21A     -0.576236
      22A     -0.572717    23A     -0.553218    24A     -0.539756
      25A     -0.504632    26A     -0.487459    27A     -0.474133
      28A     -0.333437    29A     -0.314896

  @DF-RHF Final Energy:  -344.71800884884539

   => Energetics <=

    Nuclear Repulsion Energy =            350.8451528151881007
    One-Electron Energy =               -1162.9956069395852865
    Two-Electron Energy =                 467.4324452755516290
    DFT Exchange-Correlation Energy =       0.0000000000000000
    Empirical Dispersion Energy =           0.0000000000000000
    PCM Polarization Energy =               0.0000000000000000
    EFP Energy =                            0.0000000000000000
    Total Energy =                       -344.7180088488454999
    Molecular point group: c1
  Basis Set: CC-PVTZ
  Basis Set:

  -Total Gradient:
     Atom            X                  Y                   Z
    ------   -----------------  -----------------  -----------------
       1       -0.000065331519     0.000031621794     0.001909304030
       2       -0.000309599261    -0.000257141932    -0.001895196559
       3        0.001041421517     0.000802425823    -0.001080045238
       4       -0.000652104326    -0.000636468386     0.001057785699
       5       -0.000056404993     0.000041654735     0.000020057727
       6        0.000006824415    -0.000000182876    -0.000013168516
       7        0.000011022935     0.000000393817     0.000011584177
       8        0.000021040484    -0.000017400492     0.000035582793
       9        0.000042193863     0.000012552136    -0.000044798024
      10        0.000005659222    -0.000013683281    -0.000007972256
      11       -0.000008363364     0.000018528069    -0.000032369420
      12       -0.000000395062     0.000014913215     0.000003661657
      13       -0.000013705235     0.000000351714    -0.000007777990
      14       -0.000007636143     0.000009004911     0.000020080092
      15       -0.000027512083    -0.000007989579     0.000009293955
      16        0.000012889549     0.000001420334     0.000013977874

  **** Optimization is complete! (in 5 steps) ****
    Final optimized geometry and variables:
    Molecular point group: c1

    Geometry (in Angstrom), charge = 0, multiplicity = 1:

    H           -2.302350862358     1.141740253493     0.110597853788
    O           -1.470286381566     1.578699913474     0.132543590765
    C           -0.447326170226     0.683953309137     0.183662629838
    C            0.622106008645     0.982601074272     1.003281543974
    C           -0.464394829920    -0.477908455598    -0.579273923007
    H            0.593825046314     1.887675603439     1.577704995325
    C            1.703375731733     0.126005433389     1.066244314701
    C            0.625961546594    -1.326533905279    -0.489083638620
    C           -1.634113665161    -0.790549179454    -1.477451167251
    H            2.534779261599     0.365083934360     1.701379437505
    C            1.707049423282    -1.035775625685     0.321434456437
    H            0.630824752527    -2.229165046366    -1.071314937828
    H           -1.828981188268     0.022971466177    -2.166587069032
    H           -1.444479429233    -1.683615525190    -2.055957218216
    H           -2.545110400351    -0.963477696067    -0.909858633772
    H            2.540947247344    -1.709106258755     0.367386667853

  Mulliken Charges: (a.u.)
   Center  Symbol    Alpha    Beta     Spin     Total
       1     H     0.38530  0.38530  0.00000  0.22940
       2     O     4.18209  4.18209  0.00000 -0.36419
       3     C     2.87970  2.87970  0.00000  0.24061
       4     C     3.11062  3.11062  0.00000 -0.22123
       5     C     3.00408  3.00408  0.00000 -0.00816
       6     H     0.41840  0.41840  0.00000  0.16320
       7     C     3.06957  3.06957  0.00000 -0.13914
       8     C     3.08829  3.08829  0.00000 -0.17657
       9     C     3.15659  3.15659  0.00000 -0.31317
      10     H     0.42237  0.42237  0.00000  0.15525
      11     C     3.08600  3.08600  0.00000 -0.17200
      12     H     0.42526  0.42526  0.00000  0.14948
      13     H     0.44103  0.44103  0.00000  0.11794
      14     H     0.44826  0.44826  0.00000  0.10348
      15     H     0.45785  0.45785  0.00000  0.08430
      16     H     0.42460  0.42460  0.00000  0.15080

   Total alpha = 29.00000, Total beta = 29.00000, Total charge =  0.00000

*** Psi4 exiting successfully. Buy a developer a beer!
