  ==> Input File <==

--------------------------------------------------------------------------
set {
	reference rhf
	basis 6-31G*
}

set_num_threads( 4 )
memory 2 gb

molecule MOL {
0 1

O	 -1.093133	 -4.362690	 -0.585361
C	 -0.486769	 -3.884080	 -1.495136
C	 -0.058928	 -2.427255	 -1.464805
C	 -0.087234	 -4.703905	 -2.701632
C	 1.191810	 -2.241436	 -0.590580
H	 -0.879353	 -1.852141	 -1.049533
H	 0.133668	 -2.064403	 -2.470425
C	 1.631333	 -0.777471	 -0.511575
H	 0.973651	 -2.628481	 0.398352
H	 2.009588	 -2.839925	 -0.989072
C	 2.915987	 -0.544314	 0.291766
H	 0.826165	 -0.184738	 -0.081343
H	 1.780981	 -0.401223	 -1.521471
C	 3.373361	 0.914346	 0.347591
H	 3.708709	 -1.142521	 -0.150311
H	 2.780642	 -0.921148	 1.303579
H	 3.506512	 1.320010	 -0.651625
H	 4.322697	 0.999599	 0.867103
H	 2.660624	 1.545032	 0.868198
H	 -0.613515	 -4.340810	 -3.580526
H	 -0.333153	 -5.744232	 -2.540296
H	 0.975765	 -4.602439	 -2.900483

	symmetry c1
}
set optking {
	frozen_dihedral = ("
		12 8 11 15
	")
}

ee = optimize('scf')
oeprop('DIPOLE', 'QUADRUPOLE', 'MULLIKEN_CHARGES')
f=open( 'psi4out.xyz', 'w' )
f.write( "22  " )
f.write( str(ee) + "\n" )
f.write( MOL.save_string_xyz() )
f.close()
--------------------------------------------------------------------------

    Molecular point group: c1
  Charge       = 0
  Multiplicity = 1
  Basis Set: 6-31G*
  Basis Set:
  @DF-RHF Final Energy:  -348.09948994143252
    Total Energy =                       -348.0994899414324664
    Molecular point group: c1
  Basis Set: 6-31G*
  Basis Set:
  Basis Set: 6-31G*
  Basis Set:
  @DF-RHF Final Energy:  -348.09971052503357
    Total Energy =                       -348.0997105250335153
  Basis Set: 6-31G*
  Basis Set:
  Basis Set: 6-31G*
  Basis Set:
  @DF-RHF Final Energy:  -348.09763723041181
    Total Energy =                       -348.0976372304122037
  Basis Set: 6-31G*
  Basis Set:
  Basis Set: 6-31G*
  Basis Set:
  @DF-RHF Final Energy:  -348.09981770481505
    Total Energy =                       -348.0998177048153366
  Basis Set: 6-31G*
  Basis Set:
  @DF-RHF Final Energy:  -348.09981025938413
    Total Energy =                       -348.0998102593842987
  @DF-RHF Final Energy:  -348.09961777277988
    Total Energy =                       -348.0996177727802205
  @DF-RHF Final Energy:  -348.09975597668591
    Total Energy =                       -348.0997559766860832
  @DF-RHF Final Energy:  -348.09985525399560
    Total Energy =                       -348.0998552539959974
  Basis Set: 6-31G*
  Basis Set:
  @DF-RHF Final Energy:  -348.09986061627075
    Total Energy =                       -348.0998606162705187
  Basis Set: 6-31G*
  Basis Set:
  Basis Set: 6-31G*
  Basis Set:
  @DF-RHF Final Energy:  -348.09987004624304
    Total Energy =                       -348.0998700462431543
  Basis Set: 6-31G*
  Basis Set:
  Basis Set: 6-31G*
  Basis Set:
  @DF-RHF Final Energy:  -348.09987238240973
    Total Energy =                       -348.0998723824097851
  Basis Set: 6-31G*
  Basis Set:
  Charge       = 0
  Multiplicity = 1
  Basis Set: 6-31G*
  Basis Set:

    Orbital Energies (a.u.)
    -----------------------

    Doubly Occupied:

       1A    -20.547363     2A    -11.324469     3A    -11.230103
       4A    -11.229180     5A    -11.228189     6A    -11.222334
       7A    -11.220510     8A    -11.212658     9A     -1.393113
      10A     -1.096063    11A     -1.045808    12A     -1.000858
      13A     -0.938972    14A     -0.845433    15A     -0.798836
      16A     -0.732448    17A     -0.666118    18A     -0.646880
      19A     -0.631356    20A     -0.608335    21A     -0.591821
      22A     -0.584463    23A     -0.562611    24A     -0.551973
      25A     -0.530375    26A     -0.515854    27A     -0.496863
      28A     -0.484666    29A     -0.475320    30A     -0.470013
      31A     -0.459758    32A     -0.396113

  @DF-RHF Final Energy:  -348.09987309510774

   => Energetics <=

    Nuclear Repulsion Energy =            368.5262846872579416
    One-Electron Energy =               -1201.7746007764098977
    Two-Electron Energy =                 485.1484429940442169
    DFT Exchange-Correlation Energy =       0.0000000000000000
    Empirical Dispersion Energy =           0.0000000000000000
    PCM Polarization Energy =               0.0000000000000000
    EFP Energy =                            0.0000000000000000
    Total Energy =                       -348.0998730951077960
    Molecular point group: c1
  Basis Set: 6-31G*
  Basis Set:

  -Total Gradient:
     Atom            X                  Y                   Z
    ------   -----------------  -----------------  -----------------
       1        0.000024002831    -0.000013245171     0.000027303179
       2       -0.000037284695     0.000000470991    -0.000024914107
       3        0.000017857464    -0.000002526712     0.000028163285
       4       -0.000019897405    -0.000000443855     0.000003558699
       5        0.000000756603    -0.000004044838    -0.000027599160
       6       -0.000024748178     0.000004653861    -0.000014632422
       7        0.000012725230     0.000010001050     0.000013632095
       8       -0.000006135909    -0.000013692089    -0.000006228245
       9       -0.000020528667    -0.000003297842    -0.000036250197
      10        0.000023688174    -0.000007370696     0.000018993993
      11        0.000040544627     0.000007789113    -0.000057437903
      12       -0.000006900643    -0.000004051841     0.000019276351
      13        0.000000832272    -0.000003358649     0.000003967666
      14       -0.000012251719     0.000020203635     0.000044492124
      15       -0.000006196992    -0.000030457153     0.000013676699
      16       -0.000005617824     0.000018120635    -0.000013134548
      17       -0.000006587450    -0.000013461785     0.000001913649
      18       -0.000000784806     0.000006406236    -0.000000943598
      19        0.000011099354     0.000019375840     0.000003007435
      20        0.000008132364     0.000001265444    -0.000011420994
      21        0.000003916562     0.000004014502     0.000004753390
      22        0.000003378810     0.000003649327     0.000009822607

  **** Optimization is complete! (in 12 steps) ****
    Final optimized geometry and variables:
    Molecular point group: c1

    Geometry (in Angstrom), charge = 0, multiplicity = 1:

    O           -2.015374180980    -2.110051044765     0.274189546463
    C           -1.419184062723    -1.630295955981    -0.641559979614
    C           -0.999677793247    -0.170925584632    -0.619283767941
    C           -1.030116712223    -2.449417274981    -1.852207294994
    C            0.278566615596     0.019961828215     0.212414644194
    H           -1.809618129628     0.397344814967    -0.175302483959
    H           -0.842177003070     0.196284431450    -1.629522682672
    C            0.718353422595     1.482694370911     0.287560780744
    H            0.099853628102    -0.363488671000     1.212303907731
    H            1.084664228609    -0.576572470717    -0.211079402818
    C            1.985721795047     1.685704440468     1.119925692026
    H           -0.088802815495     2.077872631861     0.710364279235
    H            0.884243953694     1.863178272400    -0.718938575186
    C            2.419889772077     3.149005827302     1.196377773715
    H            2.793157528056     1.091071390957     0.697941466682
    H            1.819738002309     1.305371358314     2.125239815301
    H            2.625734895631     3.549394151404     0.207672809638
    H            3.320286289520     3.260757066828     1.792216727026
    H            1.646596570447     3.764464698538     1.647152062811
    H           -1.572609336886    -2.092853261280    -2.723868902589
    H           -1.265073862087    -3.491307909926    -1.684892829954
    H            0.028835486419    -2.339783850638    -2.067258097659

  Mulliken Charges: (a.u.)
   Center  Symbol    Alpha    Beta     Spin     Total
       1     O     4.26219  4.26219  0.00000 -0.52438
       2     C     2.73720  2.73720  0.00000  0.52560
       3     C     3.19994  3.19994  0.00000 -0.39987
       4     C     3.28957  3.28957  0.00000 -0.57913
       5     C     3.16223  3.16223  0.00000 -0.32445
       6     H     0.40112  0.40112  0.00000  0.19777
       7     H     0.41688  0.41688  0.00000  0.16625
       8     C     3.15080  3.15080  0.00000 -0.30160
       9     H     0.40604  0.40604  0.00000  0.18791
      10     H     0.42079  0.42079  0.00000  0.15841
      11     C     3.15254  3.15254  0.00000 -0.30508
      12     H     0.42035  0.42035  0.00000  0.15930
      13     H     0.42351  0.42351  0.00000  0.15299
      14     C     3.23982  3.23982  0.00000 -0.47965
      15     H     0.42267  0.42267  0.00000  0.15466
      16     H     0.42029  0.42029  0.00000  0.15943
      17     H     0.42173  0.42173  0.00000  0.15655
      18     H     0.41799  0.41799  0.00000  0.16403
      19     H     0.42068  0.42068  0.00000  0.15865
      20     H     0.40682  0.40682  0.00000  0.18635
      21     H     0.39706  0.39706  0.00000  0.20589
      22     H     0.40981  0.40981  0.00000  0.18038

   Total alpha = 32.00000, Total beta = 32.00000, Total charge =  0.00000
