  ==> Input File <==

--------------------------------------------------------------------------
set {
	reference rhf
	basis 6-31G*
}

set_num_threads( 4 )
memory 2 gb

molecule MOL {
0 1

H	 5.268524	 0.192471	 1.070992
C	 4.673736	 -0.214914	 0.259335
C	 3.185378	 -0.203514	 0.605509
H	 4.871837	 0.380453	 -0.627026
H	 5.025590	 -1.224632	 0.065769
C	 2.317601	 -0.778379	 -0.516234
H	 2.874655	 0.814325	 0.817774
H	 3.023650	 -0.778480	 1.515976
C	 2.681984	 -2.211772	 -0.903374
H	 1.274639	 -0.747440	 -0.221416
H	 2.416093	 -0.150450	 -1.398870
C	 2.308304	 -3.256498	 0.137853
H	 2.162777	 -2.488135	 -1.819789
H	 3.742572	 -2.295510	 -1.129909
C	 2.966155	 -4.621230	 0.030840
O	 1.514057	 -3.025170	 0.999285
C	 2.630003	 -5.369255	 -1.267860
H	 2.642184	 -5.197232	 0.889315
H	 4.044465	 -4.492057	 0.103278
C	 3.228246	 -6.777000	 -1.299043
H	 1.549275	 -5.435580	 -1.373896
H	 2.993195	 -4.809703	 -2.126034
C	 2.900618	 -7.531677	 -2.586687
H	 2.861556	 -7.341363	 -0.445172
H	 4.307807	 -6.711255	 -1.182338
H	 1.827623	 -7.641587	 -2.714460
H	 3.285518	 -7.008699	 -3.457582
H	 3.336116	 -8.525740	 -2.579031

	symmetry c1
}
set optking {
	frozen_dihedral = ("
		10 6 3 2
	")
}

ee = optimize('scf')
oeprop('DIPOLE', 'QUADRUPOLE', 'MULLIKEN_CHARGES')
f=open( 'psi4out.xyz', 'w' )
f.write( "28  " )
f.write( str(ee) + "\n" )
f.write( MOL.save_string_xyz() )
f.close()
--------------------------------------------------------------------------

    Molecular point group: c1
  Charge       = 0
  Multiplicity = 1
  Basis Set: 6-31G*
  Basis Set:
  @DF-RHF Final Energy:  -426.16608459950100
    Total Energy =                       -426.1660845995012323
    Molecular point group: c1
  Basis Set: 6-31G*
  Basis Set:
  Basis Set: 6-31G*
  Basis Set:
  @DF-RHF Final Energy:  -426.16674963176456
    Total Energy =                       -426.1667496317650148
  Basis Set: 6-31G*
  Basis Set:
  Basis Set: 6-31G*
  Basis Set:
  @DF-RHF Final Energy:  -426.16723501623846
    Total Energy =                       -426.1672350162383509
  Basis Set: 6-31G*
  Basis Set:
  Basis Set: 6-31G*
  Basis Set:
  @DF-RHF Final Energy:  -426.16587240884917
    Total Energy =                       -426.1658724088485997
  Basis Set: 6-31G*
  Basis Set:
  @DF-RHF Final Energy:  -426.16725842756978
    Total Energy =                       -426.1672584275697773
  Basis Set: 6-31G*
  Basis Set:
  @DF-RHF Final Energy:  -426.16728753288123
    Total Energy =                       -426.1672875328808914
  Basis Set: 6-31G*
  Basis Set:
  Basis Set: 6-31G*
  Basis Set:
  @DF-RHF Final Energy:  -426.16730191070644
    Total Energy =                       -426.1673019107067830
  Basis Set: 6-31G*
  Basis Set:
  Basis Set: 6-31G*
  Basis Set:
  @DF-RHF Final Energy:  -426.16730436181626
    Total Energy =                       -426.1673043618162637
  Basis Set: 6-31G*
  Basis Set:
  Charge       = 0
  Multiplicity = 1
  Basis Set: 6-31G*
  Basis Set:

    Orbital Energies (a.u.)
    -----------------------

    Doubly Occupied:

       1A    -20.547957     2A    -11.321973     3A    -11.232400
       4A    -11.229113     5A    -11.228832     6A    -11.226084
       7A    -11.217361     8A    -11.216307     9A    -11.212148
      10A    -11.209920    11A     -1.393015    12A     -1.095206
      13A     -1.077285    14A     -1.021666    15A     -0.988957
      16A     -0.911245    17A     -0.880601    18A     -0.809005
      19A     -0.794415    20A     -0.718712    21A     -0.666236
      22A     -0.652734    23A     -0.638230    24A     -0.619889
      25A     -0.607838    26A     -0.597077    27A     -0.577156
      28A     -0.558613    29A     -0.543396    30A     -0.538969
      31A     -0.528001    32A     -0.508784    33A     -0.500662
      34A     -0.485107    35A     -0.479157    36A     -0.475742
      37A     -0.466996    38A     -0.462918    39A     -0.457411
      40A     -0.391452

  @DF-RHF Final Energy:  -426.16730452225408

   => Energetics <=

    Nuclear Repulsion Energy =            538.1596680917633648
    One-Electron Energy =               -1644.4768048178700610
    Two-Electron Energy =                 680.1498322038523838
    DFT Exchange-Correlation Energy =       0.0000000000000000
    Empirical Dispersion Energy =           0.0000000000000000
    PCM Polarization Energy =               0.0000000000000000
    EFP Energy =                            0.0000000000000000
    Total Energy =                       -426.1673045222541987
    Molecular point group: c1
  Basis Set: 6-31G*
  Basis Set:

  -Total Gradient:
     Atom            X                  Y                   Z
    ------   -----------------  -----------------  -----------------
       1       -0.000005253045    -0.000005099225     0.000008461628
       2        0.000062531697    -0.000874448432     0.000383612804
       3       -0.000078743806     0.000986902735    -0.000448027538
       4       -0.000006663321     0.000004930539     0.000007680143
       5       -0.000004539357    -0.000001741210    -0.000009917588
       6       -0.000084510097     0.001088621456    -0.000497350543
       7        0.000008246507     0.000000216152    -0.000007668969
       8        0.000002532732    -0.000005149568     0.000019583702
       9        0.000013008638     0.000000512771     0.000001439321
      10        0.000114211920    -0.001180045351     0.000531773342
      11       -0.000005689340     0.000007976037     0.000000689817
      12       -0.000051756355    -0.000021156784    -0.000037262566
      13        0.000011183206    -0.000003185966     0.000000950414
      14        0.000004401348     0.000001970947    -0.000002920163
      15        0.000008534950     0.000014249749     0.000011967362
      16        0.000025594200    -0.000024989402     0.000024243927
      17       -0.000019445839    -0.000001526324    -0.000001248586
      18        0.000001298692    -0.000004436159    -0.000000462651
      19        0.000003784365     0.000005615865     0.000007805537
      20        0.000002236612     0.000001877608     0.000007624970
      21       -0.000006717673    -0.000002906617    -0.000007790118
      22        0.000002977730    -0.000000811182     0.000006455947
      23        0.000000510730     0.000009375785    -0.000002530301
      24       -0.000000114974     0.000003778938     0.000002564233
      25        0.000001740730    -0.000002801281    -0.000001298094
      26        0.000000509779     0.000001221430     0.000000970540
      27       -0.000000093350    -0.000001334981    -0.000003054032
      28        0.000000223320     0.000002382474     0.000003707460

  **** Optimization is complete! (in 9 steps) ****
    Final optimized geometry and variables:
    Molecular point group: c1

    Geometry (in Angstrom), charge = 0, multiplicity = 1:

    H            2.345787690045     3.742064017821     1.607982337726
    C            1.828146740953     3.227127267003     0.804747109643
    C            0.319693791877     3.207149871714     1.060730970581
    H            2.066159539185     3.741164503433    -0.123120976148
    H            2.246009063260     2.226918486958     0.744399756154
    C           -0.519286371060     2.624245571543    -0.083496942062
    H           -0.019094635119     4.224879477478     1.236491471783
    H            0.113631566606     2.657438026674     1.973050777050
    C           -0.183762623278     1.183758606747    -0.479353594095
    H           -1.564528806002     2.658013617379     0.200987156737
    H           -0.405540705361     3.251250872506    -0.964891271520
    C           -0.517536751643     0.147342877703     0.583212752990
    H           -0.761785367256     0.914869184781    -1.362404660378
    H            0.856371493071     1.078532338848    -0.772450691174
    C            0.144298965645    -1.214687074536     0.468711448343
    O           -1.287862249431     0.381961684732     1.465415683720
    C           -0.233919732536    -1.976907406855    -0.810058694239
    H           -0.146274431375    -1.783627490598     1.343683786278
    H            1.223877390705    -1.079567601982     0.501496733500
    C            0.374463287072    -3.379978282518    -0.851952001502
    H           -1.317264462943    -2.052718003845    -0.874666664609
    H            0.092001571337    -1.421711925256    -1.685878698827
    C            0.004067200766    -4.148733591125    -2.119513930352
    H            0.045460463077    -3.939549417736     0.020227719288
    H            1.457129257517    -3.304538311090    -0.777360378609
    H           -1.072081516980    -4.268292067674    -2.205086377291
    H            0.351017013117    -3.630548496458    -3.009016224521
    H            0.447770908697    -5.139210498939    -2.119932495350

  Mulliken Charges: (a.u.)
   Center  Symbol    Alpha    Beta     Spin     Total
       1     H     0.41726  0.41726  0.00000  0.16548
       2     C     3.24184  3.24184  0.00000 -0.48368
       3     C     3.15879  3.15879  0.00000 -0.31758
       4     H     0.42311  0.42311  0.00000  0.15378
       5     H     0.42575  0.42575  0.00000  0.14850
       6     C     3.15006  3.15006  0.00000 -0.30011
       7     H     0.42018  0.42018  0.00000  0.15965
       8     H     0.40817  0.40817  0.00000  0.18366
       9     C     3.21438  3.21438  0.00000 -0.42875
      10     H     0.40601  0.40601  0.00000  0.18797
      11     H     0.42213  0.42213  0.00000  0.15574
      12     C     2.73110  2.73110  0.00000  0.53781
      13     H     0.40284  0.40284  0.00000  0.19431
      14     H     0.41118  0.41118  0.00000  0.17763
      15     C     3.20158  3.20158  0.00000 -0.40315
      16     O     4.26693  4.26693  0.00000 -0.53385
      17     C     3.16381  3.16381  0.00000 -0.32761
      18     H     0.39984  0.39984  0.00000  0.20033
      19     H     0.41323  0.41323  0.00000  0.17355
      20     C     3.15180  3.15180  0.00000 -0.30360
      21     H     0.41370  0.41370  0.00000  0.17261
      22     H     0.41850  0.41850  0.00000  0.16300
      23     C     3.24033  3.24033  0.00000 -0.48067
      24     H     0.41839  0.41839  0.00000  0.16322
      25     H     0.42145  0.42145  0.00000  0.15710
      26     H     0.41960  0.41960  0.00000  0.16080
      27     H     0.42118  0.42118  0.00000  0.15764
      28     H     0.41688  0.41688  0.00000  0.16623

   Total alpha = 40.00000, Total beta = 40.00000, Total charge =  0.00000
