  ==> Input File <==

--------------------------------------------------------------------------
set {
	reference rhf
	basis 6-31G*
}

set_num_threads( 4 )
memory 2 gb

molecule MOL {
0 1

O	 -1.877109	 -0.751220	 0.094871
C	 -1.083277	 0.139568	 0.115197
C	 0.323299	 -0.082943	 0.642902
C	 -1.439638	 1.532108	 -0.355617
C	 1.355627	 -0.005344	 -0.493127
H	 0.396251	 -1.044647	 1.143147
H	 0.528637	 0.693580	 1.371677
C	 2.786168	 -0.195604	 0.007473
H	 1.132807	 -0.760304	 -1.243899
H	 1.259610	 0.958506	 -0.981915
H	 3.495561	 -0.130713	 -0.811210
H	 2.912696	 -1.165395	 0.480041
H	 3.049284	 0.565503	 0.735850
H	 -1.178981	 2.271424	 0.396140
H	 -2.496510	 1.588928	 -0.575909
H	 -0.871348	 1.771240	 -1.250641

	symmetry c1
}
set optking {
	frozen_dihedral = ("
		4 2 3 5
	")
}

ee = optimize('scf')
oeprop('DIPOLE', 'QUADRUPOLE', 'MULLIKEN_CHARGES')
f=open( 'psi4out.xyz', 'w' )
f.write( "16  " )
f.write( str(ee) + "\n" )
f.write( MOL.save_string_xyz() )
f.close()
--------------------------------------------------------------------------

    Molecular point group: c1
  Charge       = 0
  Multiplicity = 1
  Basis Set: 6-31G*
  Basis Set:
  @DF-RHF Final Energy:  -270.02896033907706
    Total Energy =                       -270.0289603390770026
    Molecular point group: c1
  Basis Set: 6-31G*
  Basis Set:
  Basis Set: 6-31G*
  Basis Set:
  @DF-RHF Final Energy:  -270.02905942458290
    Total Energy =                       -270.0290594245827833
  Basis Set: 6-31G*
  Basis Set:
  Basis Set: 6-31G*
  Basis Set:
  @DF-RHF Final Energy:  -270.02970632402912
    Total Energy =                       -270.0297063240292346
  Basis Set: 6-31G*
  Basis Set:
  Basis Set: 6-31G*
  Basis Set:
  @DF-RHF Final Energy:  -270.02965652720712
    Total Energy =                       -270.0296565272072371
  Basis Set: 6-31G*
  Basis Set:
  @DF-RHF Final Energy:  -270.02987383522520
    Total Energy =                       -270.0298738352248051
  Basis Set: 6-31G*
  Basis Set:
  @DF-RHF Final Energy:  -270.02988179280328
    Total Energy =                       -270.0298817928033941
  Basis Set: 6-31G*
  Basis Set:
  Basis Set: 6-31G*
  Basis Set:
  @DF-RHF Final Energy:  -270.02988523229499
    Total Energy =                       -270.0298852322950438
  Basis Set: 6-31G*
  Basis Set:
  Basis Set: 6-31G*
  Basis Set:
  @DF-RHF Final Energy:  -270.02988666014971
    Total Energy =                       -270.0298866601494865
  Basis Set: 6-31G*
  Basis Set:
  Charge       = 0
  Multiplicity = 1
  Basis Set: 6-31G*
  Basis Set:

    Orbital Energies (a.u.)
    -----------------------

    Doubly Occupied:

       1A    -20.548708     2A    -11.324759     3A    -11.235850
       4A    -11.230142     5A    -11.227818     6A    -11.221062
       7A     -1.393774     8A     -1.084655     9A     -1.011070
      10A     -0.950547    11A     -0.832316    12A     -0.735350
      13A     -0.659650    14A     -0.648956    15A     -0.615155
      16A     -0.607179    17A     -0.577022    18A     -0.554712
      19A     -0.534792    20A     -0.520580    21A     -0.506154
      22A     -0.486018    23A     -0.473789    24A     -0.398498

  @DF-RHF Final Energy:  -270.02988670326454

   => Energetics <=

    Nuclear Repulsion Energy =            236.8594976845072040
    One-Electron Energy =                -835.0216548507551124
    Two-Electron Energy =                 328.1322704629832288
    DFT Exchange-Correlation Energy =       0.0000000000000000
    Empirical Dispersion Energy =           0.0000000000000000
    PCM Polarization Energy =               0.0000000000000000
    EFP Energy =                            0.0000000000000000
    Total Energy =                       -270.0298867032646513
    Molecular point group: c1
  Basis Set: 6-31G*
  Basis Set:

  -Total Gradient:
     Atom            X                  Y                   Z
    ------   -----------------  -----------------  -----------------
       1        0.000069481658    -0.000013201600     0.000061110266
       2       -0.000079474750     0.000170751766     0.000062102315
       3       -0.000010832958    -0.000155875134    -0.000003625125
       4        0.000018634370    -0.000009165069    -0.000100491735
       5        0.000035536296     0.000087905532    -0.000041607123
       6        0.000078718289    -0.000030812283    -0.000019854274
       7       -0.000059254577    -0.000021509681    -0.000005491618
       8       -0.000009737505     0.000004288702     0.000028299488
       9        0.000003148340    -0.000015099894    -0.000014833385
      10       -0.000051023729    -0.000024845808     0.000032002245
      11       -0.000030830663     0.000001913382     0.000002119335
      12        0.000021306451    -0.000018905732     0.000011204423
      13        0.000011172868     0.000001592277     0.000003892510
      14        0.000008407227    -0.000006948249    -0.000009069797
      15        0.000009320829     0.000007603037    -0.000002550558
      16       -0.000014572147     0.000022308755    -0.000003206967

  **** Optimization is complete! (in 9 steps) ****
    Final optimized geometry and variables:
    Molecular point group: c1

    Geometry (in Angstrom), charge = 0, multiplicity = 1:

    O           -1.874726291895    -0.879058170564     0.116169683125
    C           -1.106050221766     0.033717490982     0.129727448842
    C            0.316909967980    -0.145924303514     0.627943629603
    C           -1.513381601741     1.407761641030    -0.362448688315
    C            1.361054426848    -0.076160506491    -0.497569620270
    H            0.364630177524    -1.111295155964     1.117396632036
    H            0.535677771957     0.619254723288     1.369751954071
    C            2.774840692442    -0.349448044027     0.013424259875
    H            1.106021161357    -0.801990900514    -1.265130247007
    H            1.334450188715     0.901512880117    -0.970302729258
    H            3.496802502966    -0.296698615634    -0.794976781734
    H            2.845558699463    -1.337122000368     0.458488824395
    H            3.066470967062     0.376190891366     0.767189230307
    H           -1.264887045426     2.171145615616     0.368357017543
    H           -2.576758888542     1.419511632459    -0.557041002153
    H           -0.984360192248     1.652480717372    -1.278639498674

  Mulliken Charges: (a.u.)
   Center  Symbol    Alpha    Beta     Spin     Total
       1     O     4.25981  4.25981  0.00000 -0.51962
       2     C     2.73623  2.73623  0.00000  0.52753
       3     C     3.20138  3.20138  0.00000 -0.40275
       4     C     3.29002  3.29002  0.00000 -0.58005
       5     C     3.16401  3.16401  0.00000 -0.32803
       6     H     0.39964  0.39964  0.00000  0.20072
       7     H     0.41496  0.41496  0.00000  0.17007
       8     C     3.23947  3.23947  0.00000 -0.47894
       9     H     0.41105  0.41105  0.00000  0.17791
      10     H     0.41872  0.41872  0.00000  0.16256
      11     H     0.41549  0.41549  0.00000  0.16903
      12     H     0.41667  0.41667  0.00000  0.16666
      13     H     0.42002  0.42002  0.00000  0.15997
      14     H     0.41068  0.41068  0.00000  0.17864
      15     H     0.39613  0.39613  0.00000  0.20775
      16     H     0.40573  0.40573  0.00000  0.18855

   Total alpha = 24.00000, Total beta = 24.00000, Total charge =  0.00000
