  ==> Input File <==

--------------------------------------------------------------------------
set {
	reference rhf
	basis 6-31G*
}

set_num_threads( 4 )
memory 2 gb

molecule MOL {
0 1

H	 -3.491975	 0.596400	 1.747118
C	 -3.497557	 0.174374	 0.734456
C	 -2.660244	 0.921717	 -0.272021
O	 -4.133188	 -0.801108	 0.497477
C	 -1.220012	 1.144545	 0.209990
H	 -2.687234	 0.379038	 -1.209827
H	 -3.138031	 1.887634	 -0.431333
C	 -0.252658	 0.041456	 -0.226725
H	 -0.873521	 2.100229	 -0.171974
H	 -1.211708	 1.231594	 1.295398
C	 1.180775	 0.282413	 0.250794
H	 -0.266029	 -0.034465	 -1.312038
H	 -0.597733	 -0.921000	 0.146291
C	 2.148627	 -0.814315	 -0.201312
H	 1.516199	 1.249228	 -0.115937
H	 1.192670	 0.346017	 1.338083
C	 3.580890	 -0.659131	 0.322722
H	 2.166869	 -0.852443	 -1.289387
H	 1.762857	 -1.776509	 0.128956
C	 4.324889	 0.564933	 -0.213704
H	 4.142010	 -1.551473	 0.056605
H	 3.564836	 -0.624694	 1.410140
H	 4.342616	 0.565491	 -1.300421
H	 3.866655	 1.493402	 0.110242
H	 5.353900	 0.572371	 0.132816

	symmetry c1
}
set optking {
	frozen_dihedral = ("
		6 3 5 8
	")
}

ee = optimize('scf')
oeprop('DIPOLE', 'QUADRUPOLE', 'MULLIKEN_CHARGES')
f=open( 'psi4out.xyz', 'w' )
f.write( "25  " )
f.write( str(ee) + "\n" )
f.write( MOL.save_string_xyz() )
f.close()
--------------------------------------------------------------------------

    Molecular point group: c1
  Charge       = 0
  Multiplicity = 1
  Basis Set: 6-31G*
  Basis Set:
  @DF-RHF Final Energy:  -387.11992681719198
    Total Energy =                       -387.1199268171919812
    Molecular point group: c1
  Basis Set: 6-31G*
  Basis Set:
  Basis Set: 6-31G*
  Basis Set:
  @DF-RHF Final Energy:  -387.12001465380109
    Total Energy =                       -387.1200146538010358
  Basis Set: 6-31G*
  Basis Set:
  Basis Set: 6-31G*
  Basis Set:
  @DF-RHF Final Energy:  -387.12001025905869
    Total Energy =                       -387.1200102590593133
  Basis Set: 6-31G*
  Basis Set:
  Basis Set: 6-31G*
  Basis Set:
  @DF-RHF Final Energy:  -387.12018260253774
    Total Energy =                       -387.1201826025373975
  Basis Set: 6-31G*
  Basis Set:
  @DF-RHF Final Energy:  -387.12019056050815
    Total Energy =                       -387.1201905605076945
  @DF-RHF Final Energy:  -387.12019519973694
    Total Energy =                       -387.1201951997364858
  @DF-RHF Final Energy:  -387.12020336279221
    Total Energy =                       -387.1202033627927221
  Basis Set: 6-31G*
  Basis Set:
  @DF-RHF Final Energy:  -387.12020155754669
    Total Energy =                       -387.1202015575465794
  Basis Set: 6-31G*
  Basis Set:
  Basis Set: 6-31G*
  Basis Set:
  @DF-RHF Final Energy:  -387.12020287957688
    Total Energy =                       -387.1202028795767092
  Basis Set: 6-31G*
  Basis Set:
  Basis Set: 6-31G*
  Basis Set:
  @DF-RHF Final Energy:  -387.12020459770599
    Total Energy =                       -387.1202045977064472
  Basis Set: 6-31G*
  Basis Set:
  Charge       = 0
  Multiplicity = 1
  Basis Set: 6-31G*
  Basis Set:

    Orbital Energies (a.u.)
    -----------------------

    Doubly Occupied:

       1A    -20.562430     2A    -11.326059     3A    -11.235494
       4A    -11.234522     5A    -11.223126     6A    -11.219077
       7A    -11.217675     8A    -11.216575     9A    -11.210485
      10A     -1.402284    11A     -1.102882    12A     -1.068878
      13A     -1.013024    14A     -0.942798    15A     -0.874636
      16A     -0.815553    17A     -0.792404    18A     -0.780258
      19A     -0.668980    20A     -0.659964    21A     -0.632364
      22A     -0.623501    23A     -0.603874    24A     -0.588243
      25A     -0.575152    26A     -0.553299    27A     -0.531507
      28A     -0.523250    29A     -0.512406    30A     -0.494771
      31A     -0.488648    32A     -0.480215    33A     -0.464278
      34A     -0.458419    35A     -0.441035    36A     -0.409298

  @DF-RHF Final Energy:  -387.12020467740973

   => Energetics <=

    Nuclear Repulsion Energy =            437.6848015873264899
    One-Electron Energy =               -1391.7152797709154584
    Two-Electron Energy =                 566.9102735061801468
    DFT Exchange-Correlation Energy =       0.0000000000000000
    Empirical Dispersion Energy =           0.0000000000000000
    PCM Polarization Energy =               0.0000000000000000
    EFP Energy =                            0.0000000000000000
    Total Energy =                       -387.1202046774087648
    Molecular point group: c1
  Basis Set: 6-31G*
  Basis Set:

  -Total Gradient:
     Atom            X                  Y                   Z
    ------   -----------------  -----------------  -----------------
       1        0.000000118300     0.000000008064     0.000001700005
       2       -0.000004740815    -0.000001028610     0.000007307073
       3        0.000261251552     0.004563934992    -0.003434885078
       4        0.000004110040     0.000004111100    -0.000003854980
       5       -0.000691201837    -0.002651951428     0.003747747233
       6       -0.000054227195    -0.003227336979     0.002008663394
       7       -0.000001244367    -0.000003909295     0.000001291015
       8        0.000490271728     0.001310703456    -0.002330703576
       9        0.000000709110    -0.000000133659     0.000001023835
      10        0.000001219806     0.000000536325     0.000000788813
      11        0.000000741632     0.000004482692    -0.000002196143
      12       -0.000001284827     0.000000639648    -0.000001534884
      13       -0.000001411174     0.000000203645     0.000000422018
      14       -0.000001026648    -0.000003138852     0.000014167663
      15        0.000007431142     0.000005080910     0.000001417425
      16       -0.000002692064    -0.000001240303     0.000000315120
      17        0.000000298032    -0.000000355787    -0.000014631300
      18       -0.000000323882     0.000007432251     0.000003708091
      19        0.000008215986    -0.000008776580     0.000000421135
      20       -0.000001373986     0.000001623069     0.000002588486
      21       -0.000006061535    -0.000008182684     0.000000531837
      22       -0.000004467428     0.000005916013    -0.000003740435
      23        0.000001359935    -0.000000328181    -0.000001133766
      24       -0.000004834089     0.000002968529    -0.000000667592
      25       -0.000000837413    -0.000001258336     0.000001254612

  **** Optimization is complete! (in 11 steps) ****
    Final optimized geometry and variables:
    Molecular point group: c1

    Geometry (in Angstrom), charge = 0, multiplicity = 1:

    H           -3.464380473376     0.531235115058     1.624629756914
    C           -3.405027046503     0.061965740077     0.634856187293
    C           -2.637515259474     0.846789565980    -0.400702378783
    O           -3.917678727820    -0.992703400600     0.442919429448
    C           -1.184895536100     1.102179752036     0.047836661330
    H           -2.672915804370     0.274355121440    -1.319894393242
    H           -3.157991418610     1.789636380660    -0.551111566113
    C           -0.225087701524    -0.010872756295    -0.379301462169
    H           -0.842308074041     2.041749297399    -0.375622076684
    H           -1.148725034145     1.232107768637     1.128071710178
    C            1.207153019528     0.212982663947     0.109081377523
    H           -0.231178067795    -0.081140903501    -1.464801889713
    H           -0.588478800830    -0.968491642574    -0.011025109990
    C            2.167541952410    -0.889024115184    -0.346366718842
    H            1.554604262619     1.180142507481    -0.245788532805
    H            1.212334097697     0.265717957343     1.196842775634
    C            3.595618750476    -0.757301273719     0.195022729131
    H            2.197940878727    -0.912573595478    -1.434552065896
    H            1.767014026333    -1.850940543363    -0.033561383542
    C            4.358502752107     0.466849849340    -0.314616965977
    H            4.149999584748    -1.651800094456    -0.077761309983
    H            3.567364904230    -0.738691233705     1.282624811402
    H            4.392394097823     0.481133639921    -1.400765385494
    H            3.904152390763     1.395522389196     0.014575113325
    H            5.382245787500     0.460427100314     0.046656094582

  Mulliken Charges: (a.u.)
   Center  Symbol    Alpha    Beta     Spin     Total
       1     H     0.43216  0.43216  0.00000  0.13568
       2     C     2.83290  2.83290  0.00000  0.33421
       3     C     3.20882  3.20882  0.00000 -0.41764
       4     O     4.23655  4.23655  0.00000 -0.47311
       5     C     3.16832  3.16832  0.00000 -0.33664
       6     H     0.39851  0.39851  0.00000  0.20298
       7     H     0.40676  0.40676  0.00000  0.18648
       8     C     3.15341  3.15341  0.00000 -0.30682
       9     H     0.41368  0.41368  0.00000  0.17264
      10     H     0.41837  0.41837  0.00000  0.16326
      11     C     3.15474  3.15474  0.00000 -0.30947
      12     H     0.41933  0.41933  0.00000  0.16134
      13     H     0.41606  0.41606  0.00000  0.16789
      14     C     3.15309  3.15309  0.00000 -0.30618
      15     H     0.42133  0.42133  0.00000  0.15735
      16     H     0.42349  0.42349  0.00000  0.15303
      17     C     3.15271  3.15271  0.00000 -0.30542
      18     H     0.42354  0.42354  0.00000  0.15292
      19     H     0.42034  0.42034  0.00000  0.15932
      20     C     3.24133  3.24133  0.00000 -0.48266
      21     H     0.42005  0.42005  0.00000  0.15989
      22     H     0.42309  0.42309  0.00000  0.15383
      23     H     0.42208  0.42208  0.00000  0.15585
      24     H     0.42067  0.42067  0.00000  0.15867
      25     H     0.41869  0.41869  0.00000  0.16263

   Total alpha = 36.00000, Total beta = 36.00000, Total charge =  0.00000
