                              Psi4 1.0.54 Driver

  ==> Input File <==

--------------------------------------------------------------------------
set {
	reference rhf
	basis cc-pvtz
}

set_num_threads( 4 )
memory 2 gb

molecule MOL {
0 1

O	 1.216069	 1.304886	 0.000821
C	 1.121787	 0.124983	 0.000110
C	 -0.170912	 -0.649867	 -0.000147
O	 2.167739	 -0.685178	 -0.000678
C	 -1.413045	 0.229353	 0.001137
H	 -0.152877	 -1.303435	 -0.866175
H	 -0.152278	 -1.305116	 0.864586
C	 -1.698997	 0.829394	 1.374633
H	 -2.265085	 -0.354021	 -0.329381
H	 -1.291241	 1.022466	 -0.728027
C	 -2.943218	 1.710661	 1.387815
H	 -1.816765	 0.030037	 2.101544
H	 -0.841743	 1.412592	 1.700565
H	 -3.824053	 1.147099	 1.099521
H	 -3.121577	 2.122464	 2.374366
H	 -2.841935	 2.539742	 0.695755
C	 3.449556	 -0.089977	 -0.000570
H	 3.585694	 0.522473	 -0.879546
H	 4.155805	 -0.904274	 -0.001389
H	 3.586173	 0.521118	 0.879272

	symmetry c1
}
set optking {
	frozen_dihedral = ("
		9 5 3 6
	")
}

ee,wfn = optimize('scf', return_wfn=True)
oeprop( wfn, 'DIPOLE', 'QUADRUPOLE', 'MULLIKEN_CHARGES')
f=open( 'psi4out.xyz', 'w' )
f.write( "20  " )
f.write( str(ee) + "\n" )
f.write( MOL.save_string_xyz() )
f.close()
--------------------------------------------------------------------------

    Molecular point group: c1
  Charge       = 0
  Multiplicity = 1
  Basis Set: CC-PVTZ
  Basis Set:
  @DF-RHF Final Energy:  -384.08217996950168
    Total Energy =                       -384.0821799695017944
    Molecular point group: c1
  Basis Set: CC-PVTZ
  Basis Set:
  Basis Set: CC-PVTZ
  Basis Set:
  @DF-RHF Final Energy:  -384.08240244921791
    Total Energy =                       -384.0824024492178523
  Basis Set: CC-PVTZ
  Basis Set:
  Basis Set: CC-PVTZ
  Basis Set:
  @DF-RHF Final Energy:  -384.08223443491272
    Total Energy =                       -384.0822344349126070
  Basis Set: CC-PVTZ
  Basis Set:
  Basis Set: CC-PVTZ
  Basis Set:
  @DF-RHF Final Energy:  -384.08248726026659
    Total Energy =                       -384.0824872602664755
  Basis Set: CC-PVTZ
  Basis Set:
  @DF-RHF Final Energy:  -384.08249924846336
    Total Energy =                       -384.0824992484634777
  Basis Set: CC-PVTZ
  Basis Set:
  @DF-RHF Final Energy:  -384.08250719500427
    Total Energy =                       -384.0825071950041547
  Basis Set: CC-PVTZ
  Basis Set:
  Basis Set: CC-PVTZ
  Basis Set:
  @DF-RHF Final Energy:  -384.08251346445257
    Total Energy =                       -384.0825134644524042
  Basis Set: CC-PVTZ
  Basis Set:
  Basis Set: CC-PVTZ
  Basis Set:
  @DF-RHF Final Energy:  -384.08252413748431
    Total Energy =                       -384.0825241374844836
  Basis Set: CC-PVTZ
  Basis Set:
  Charge       = 0
  Multiplicity = 1
  Basis Set: CC-PVTZ
  Basis Set:

    Orbital Energies (a.u.)
    -----------------------

    Doubly Occupied:

       1A    -20.597221     2A    -20.534946     3A    -11.365620
       4A    -11.279111     5A    -11.234115     6A    -11.217520
       7A    -11.212742     8A    -11.205305     9A     -1.473185
      10A     -1.366625    11A     -1.087901    12A     -1.023325
      13A     -0.969693    14A     -0.884839    15A     -0.805859
      16A     -0.768284    17A     -0.704753    18A     -0.684003
      19A     -0.676183    20A     -0.631527    21A     -0.607829
      22A     -0.588692    23A     -0.580777    24A     -0.544236
      25A     -0.532836    26A     -0.517640    27A     -0.513338
      28A     -0.476872    29A     -0.471913    30A     -0.463875
      31A     -0.459339    32A     -0.440359

  @DF-RHF Final Energy:  -384.08252546133309

   => Energetics <=

    Nuclear Repulsion Energy =            388.6170653841712124
    One-Electron Energy =               -1293.5582557027146322
    Two-Electron Energy =                 520.8586648572102149
    DFT Exchange-Correlation Energy =       0.0000000000000000
    Empirical Dispersion Energy =           0.0000000000000000
    PCM Polarization Energy =               0.0000000000000000
    EFP Energy =                            0.0000000000000000
    Total Energy =                       -384.0825254613332618
    Molecular point group: c1
  Basis Set: CC-PVTZ
  Basis Set:

  -Total Gradient:
     Atom            X                  Y                   Z
    ------   -----------------  -----------------  -----------------
       1        0.000031782651    -0.000085357205     0.000012960225
       2       -0.000060584710     0.000086931111    -0.000012121583
       3        0.000886509585     0.001388458381    -0.001199486105
       4       -0.000053764887    -0.000022969131     0.000003257730
       5       -0.000479081598    -0.000768009046     0.001787193133
       6       -0.000697750285    -0.001025492871     0.000729910371
       7        0.000001290539    -0.000007767265    -0.000002055827
       8       -0.000011144351    -0.000002331399     0.000000424276
       9        0.000251274018     0.000398294368    -0.001329563940
      10       -0.000002505092    -0.000001532326     0.000005656132
      11        0.000008707513     0.000000195415     0.000003058626
      12        0.000003380703    -0.000001024988    -0.000000383813
      13        0.000004525434     0.000004600601     0.000003518251
      14        0.000001469748     0.000001039304    -0.000000279725
      15       -0.000002784557     0.000001748745     0.000001511985
      16       -0.000002410735    -0.000000835732    -0.000000521129
      17        0.000087769459     0.000031502171    -0.000005946124
      18        0.000010098039    -0.000004181410     0.000008428243
      19        0.000014610036     0.000012415776    -0.000000560090
      20        0.000008608493    -0.000005684499    -0.000005000636

  **** Optimization is complete! (in 9 steps) ****
    Final optimized geometry and variables:
    Molecular point group: c1

    Geometry (in Angstrom), charge = 0, multiplicity = 1:

    O            0.987388061719     0.945531069699    -0.502942068516
    C            0.883698367036    -0.226005628557    -0.367120572112
    C           -0.411981736766    -0.998593172305    -0.362339336645
    O            1.922254797716    -1.031151238598    -0.217877454196
    C           -1.663781681046    -0.128044772749    -0.346126749689
    H           -0.394993072160    -1.638015601575    -1.238867575973
    H           -0.388500502048    -1.673164034880     0.486416042603
    C           -1.982856772772     0.467829249664     1.022407297074
    H           -2.501761078003    -0.729160216160    -0.685412906069
    H           -1.546225663360     0.670647173065    -1.068814474558
    C           -3.228512749807     1.346817715724     1.005930546555
    H           -2.119606430725    -0.337357197747     1.740037347632
    H           -1.136075085231     1.051745779595     1.365746076286
    H           -4.100917043271     0.786051096872     0.686250265649
    H           -3.436860073657     1.748943961881     1.990593975695
    H           -3.105410053457     2.182924310140     0.326270839152
    C            3.207648289105    -0.443317549101    -0.234749302347
    H            3.387294853881     0.053822334977    -1.176443260939
    H            3.906802669911    -1.252866782343    -0.101997561177
    H            3.309787619354     0.272794262054     0.567024729474

  Mulliken Charges: (a.u.)
   Center  Symbol    Alpha    Beta     Spin     Total
       1     O     4.19918  4.19918  0.00000 -0.39837
       2     C     2.80317  2.80317  0.00000  0.39366
       3     C     3.11030  3.11030  0.00000 -0.22059
       4     O     4.14610  4.14610  0.00000 -0.29220
       5     C     3.09065  3.09065  0.00000 -0.18129
       6     H     0.43236  0.43236  0.00000  0.13529
       7     H     0.43932  0.43932  0.00000  0.12136
       8     C     3.08352  3.08352  0.00000 -0.16705
       9     H     0.44694  0.44694  0.00000  0.10612
      10     H     0.44518  0.44518  0.00000  0.10963
      11     C     3.15108  3.15108  0.00000 -0.30217
      12     H     0.45734  0.45734  0.00000  0.08533
      13     H     0.44707  0.44707  0.00000  0.10586
      14     H     0.45674  0.45674  0.00000  0.08652
      15     H     0.44849  0.44849  0.00000  0.10302
      16     H     0.45188  0.45188  0.00000  0.09623
      17     C     3.03668  3.03668  0.00000 -0.07337
      18     H     0.45434  0.45434  0.00000  0.09131
      19     H     0.44533  0.44533  0.00000  0.10934
      20     H     0.45432  0.45432  0.00000  0.09136

   Total alpha = 32.00000, Total beta = 32.00000, Total charge =  0.00000

*** Psi4 exiting successfully. Buy a developer a beer!
