                              Psi4 1.0.54 Driver

  ==> Input File <==

--------------------------------------------------------------------------
set {
	reference rhf
	basis cc-pvtz
}

set_num_threads( 4 )
memory 2 gb

molecule MOL {
0 1

H	 -3.162190	 0.493205	 -0.000107
C	 -2.363908	 -0.234727	 0.000005
O	 -1.158738	 0.454634	 -0.000087
H	 -2.464314	 -0.863616	 -0.882153
H	 -2.464327	 -0.863359	 0.882345
C	 -1.068380	 1.457944	 -0.962127
C	 0.286187	 2.129226	 -0.857606
H	 -1.862819	 2.189909	 -0.814711
H	 -1.201966	 1.034332	 -1.957792
C	 0.464093	 3.244264	 -1.882003
H	 0.400144	 2.522706	 0.146442
H	 1.055729	 1.376327	 -0.987604
H	 -0.282070	 4.021419	 -1.754103
H	 1.438976	 3.706007	 -1.784964
H	 0.378197	 2.867336	 -2.895717

	symmetry c1
}
set optking {
	frozen_dihedral = ("
		6 3 2 4
	")
}

ee,wfn = optimize('scf', return_wfn=True)
oeprop( wfn, 'DIPOLE', 'QUADRUPOLE', 'MULLIKEN_CHARGES')
f=open( 'psi4out.xyz', 'w' )
f.write( "15  " )
f.write( str(ee) + "\n" )
f.write( MOL.save_string_xyz() )
f.close()
--------------------------------------------------------------------------

    Molecular point group: c1
  Charge       = 0
  Multiplicity = 1
  Basis Set: CC-PVTZ
  Basis Set:
  @DF-RHF Final Energy:  -232.22691064379856
    Total Energy =                       -232.2269106437984760
    Molecular point group: c1
  Basis Set: CC-PVTZ
  Basis Set:
  Basis Set: CC-PVTZ
  Basis Set:
  @DF-RHF Final Energy:  -232.22778495842707
    Total Energy =                       -232.2277849584271507
  Basis Set: CC-PVTZ
  Basis Set:
  Basis Set: CC-PVTZ
  Basis Set:
  @DF-RHF Final Energy:  -232.22801526657156
    Total Energy =                       -232.2280152665716173
  Basis Set: CC-PVTZ
  Basis Set:
  Charge       = 0
  Multiplicity = 1
  Basis Set: CC-PVTZ
  Basis Set:

    Orbital Energies (a.u.)
    -----------------------

    Doubly Occupied:

       1A    -20.547401     2A    -11.264426     3A    -11.261713
       4A    -11.212749     5A    -11.210718     6A     -1.381685
       7A     -1.058475     8A     -0.956201     9A     -0.877284
      10A     -0.809529    11A     -0.677092    12A     -0.655768
      13A     -0.632221    14A     -0.608675    15A     -0.565019
      16A     -0.541396    17A     -0.503706    18A     -0.490042
      19A     -0.478483    20A     -0.462879    21A     -0.416584

  @DF-RHF Final Energy:  -232.22801616052487

   => Energetics <=

    Nuclear Repulsion Energy =            189.9912072959360216
    One-Electron Energy =                -691.2143585084127153
    Two-Electron Energy =                 268.9951350519518201
    DFT Exchange-Correlation Energy =       0.0000000000000000
    Empirical Dispersion Energy =           0.0000000000000000
    PCM Polarization Energy =               0.0000000000000000
    EFP Energy =                            0.0000000000000000
    Total Energy =                       -232.2280161605248736
    Molecular point group: c1
  Basis Set: CC-PVTZ
  Basis Set:

  -Total Gradient:
     Atom            X                  Y                   Z
    ------   -----------------  -----------------  -----------------
       1        0.000004901539     0.000009134968    -0.000002565183
       2       -0.000885606473     0.001652467833    -0.000574721315
       3        0.000715173000    -0.001266202851    -0.000735969463
       4        0.000626808948    -0.000957828744     0.000643862863
       5        0.000029794386    -0.000001539960     0.000007120883
       6       -0.000456802103     0.000653006304     0.000520482379
       7        0.000017530364    -0.000042004385     0.000070707822
       8       -0.000002004156    -0.000025639964     0.000048001032
       9       -0.000008466381     0.000004402014    -0.000013028170
      10       -0.000055571156    -0.000022954528     0.000003490971
      11        0.000023449338     0.000016869873     0.000011574246
      12        0.000001286771    -0.000005480491     0.000002652767
      13       -0.000002724871     0.000010163352    -0.000004680122
      14       -0.000007870752    -0.000021227187     0.000021695332
      15        0.000000101545    -0.000003166233     0.000001375959

  **** Optimization is complete! (in 4 steps) ****
    Final optimized geometry and variables:
    Molecular point group: c1

    Geometry (in Angstrom), charge = 0, multiplicity = 1:

    H           -2.409488676046    -0.981284627030     0.775741672846
    C           -1.545769416713    -1.641705754945     0.749606438109
    O           -0.354535682180    -0.928532158247     0.748051778704
    H           -1.625409438047    -2.286231067984    -0.123408215380
    H           -1.558398958316    -2.262784440779     1.634012429469
    C           -0.273546605982     0.061480897408    -0.228459424030
    C            1.071768214877     0.751783981316    -0.128188798027
    H           -1.078169313274     0.784335025044    -0.093199109283
    H           -0.397635790115    -0.376598572084    -1.219346622211
    C            1.236610475023     1.858345740168    -1.163937095050
    H            1.178143731263     1.157399554759     0.871960271870
    H            1.851925442483     0.008215511205    -0.248628792141
    H            0.479669953931     2.626627114619    -1.045666191366
    H            2.204993353464     2.334313387932    -1.069862583486
    H            1.157922857060     1.469586509361    -2.173814005194

  Mulliken Charges: (a.u.)
   Center  Symbol    Alpha    Beta     Spin     Total
       1     H     0.47347  0.47347  0.00000  0.05306
       2     C     3.03333  3.03333  0.00000 -0.06666
       3     O     4.17173  4.17173  0.00000 -0.34347
       4     H     0.47012  0.47012  0.00000  0.05976
       5     H     0.44744  0.44744  0.00000  0.10512
       6     C     2.95610  2.95610  0.00000  0.08780
       7     C     3.08024  3.08024  0.00000 -0.16048
       8     H     0.47497  0.47497  0.00000  0.05006
       9     H     0.47660  0.47660  0.00000  0.04680
      10     C     3.15582  3.15582  0.00000 -0.31164
      11     H     0.45115  0.45115  0.00000  0.09770
      12     H     0.45106  0.45106  0.00000  0.09789
      13     H     0.45587  0.45587  0.00000  0.08826
      14     H     0.44627  0.44627  0.00000  0.10745
      15     H     0.45582  0.45582  0.00000  0.08835

   Total alpha = 21.00000, Total beta = 21.00000, Total charge = -0.00000

*** Psi4 exiting successfully. Buy a developer a beer!
