  ==> Input File <==

--------------------------------------------------------------------------
set {
	reference rhf
	basis 6-31G*
}

set_num_threads( 4 )
memory 2 gb

molecule MOL {
0 1

H	 -0.367348	 2.047014	 -0.308205
C	 0.352277	 1.337084	 0.083769
N	 -0.000016	 0.000074	 -0.335546
H	 1.328359	 1.600444	 -0.307950
H	 0.381933	 1.450534	 1.172486
C	 1.163201	 -0.845786	 -0.475967
C	 -0.996844	 -0.591549	 0.527283
H	 0.868173	 -1.816076	 -0.859173
H	 1.855913	 -0.404092	 -1.183441
H	 1.695796	 -1.001592	 0.467935
H	 -1.880886	 0.035532	 0.552078
H	 -1.287230	 -1.562508	 0.142117
H	 -0.647444	 -0.725506	 1.556313

	symmetry c1
}
set optking {
	frozen_dihedral = ("
		6 3 2 1
	")
}

ee = optimize('scf')
oeprop('DIPOLE', 'QUADRUPOLE', 'MULLIKEN_CHARGES')
f=open( 'psi4out.xyz', 'w' )
f.write( "13  " )
f.write( str(ee) + "\n" )
f.write( MOL.save_string_xyz() )
f.close()
--------------------------------------------------------------------------

    Molecular point group: c1
  Charge       = 0
  Multiplicity = 1
  Basis Set: 6-31G*
  Basis Set:
  @DF-RHF Final Energy:  -173.26628870315477
    Total Energy =                       -173.2662887031547143
    Molecular point group: c1
  Basis Set: 6-31G*
  Basis Set:
  Basis Set: 6-31G*
  Basis Set:
  @DF-RHF Final Energy:  -173.26673870346298
    Total Energy =                       -173.2667387034629769
  Basis Set: 6-31G*
  Basis Set:
  Basis Set: 6-31G*
  Basis Set:
  @DF-RHF Final Energy:  -173.26680153055185
    Total Energy =                       -173.2668015305519305
  Basis Set: 6-31G*
  Basis Set:
  Charge       = 0
  Multiplicity = 1
  Basis Set: 6-31G*
  Basis Set:

    Orbital Energies (a.u.)
    -----------------------

    Doubly Occupied:

       1A    -15.540873     2A    -11.235911     3A    -11.235532
       4A    -11.235457     5A     -1.222312     6A     -0.952330
       7A     -0.951600     8A     -0.805153     9A     -0.639527
      10A     -0.630441    11A     -0.628617    12A     -0.548615
      13A     -0.542830    14A     -0.515633    15A     -0.502324
      16A     -0.501440    17A     -0.340618

  @DF-RHF Final Energy:  -173.26680462397022

   => Energetics <=

    Nuclear Repulsion Energy =            138.9711691902401469
    One-Electron Energy =                -508.4175215605063158
    Two-Electron Energy =                 196.1795477462961230
    DFT Exchange-Correlation Energy =       0.0000000000000000
    Empirical Dispersion Energy =           0.0000000000000000
    PCM Polarization Energy =               0.0000000000000000
    EFP Energy =                            0.0000000000000000
    Total Energy =                       -173.2668046239700175
    Molecular point group: c1
  Basis Set: 6-31G*
  Basis Set:

  -Total Gradient:
     Atom            X                  Y                   Z
    ------   -----------------  -----------------  -----------------
       1        0.002598608573     0.000503761637    -0.004067071215
       2       -0.003188418437    -0.000136629514     0.003832764332
       3        0.000354007257    -0.001169181821     0.003847270512
       4        0.000028869887     0.000014216734    -0.000048562520
       5        0.000006272989    -0.000056447106    -0.000065257459
       6        0.000309362060     0.000848496932    -0.003509970920
       7       -0.000012433918    -0.000096808416     0.000131340511
       8        0.000000793816    -0.000027225467    -0.000006554588
       9       -0.000065724190     0.000040960236     0.000019572469
      10       -0.000061053905     0.000047485430    -0.000041299077
      11        0.000047891309     0.000021582918    -0.000030180434
      12       -0.000008811618    -0.000006971517    -0.000014566982
      13       -0.000009363822     0.000016759952    -0.000047484628

  **** Optimization is complete! (in 4 steps) ****
    Final optimized geometry and variables:
    Molecular point group: c1

    Geometry (in Angstrom), charge = 0, multiplicity = 1:

    H           -0.543447227858     2.066263344356    -0.267686005764
    C            0.202130599371     1.376206869681     0.114644248920
    N           -0.120051434929     0.021691738162    -0.279372508517
    H            1.147208167957     1.668731838124    -0.328378882940
    H            0.290085477148     1.503265551342     1.196057279744
    C            1.034784723666    -0.828296425045    -0.446233885631
    C           -1.148733373457    -0.564417596203     0.543674467393
    H            0.722852940009    -1.793828348030    -0.828805728201
    H            1.713042710611    -0.388546972488    -1.167837487845
    H            1.589795210170    -0.999311548795     0.482272235059
    H           -2.021137081831     0.079959085060     0.552540384467
    H           -1.447865486430    -1.524245578677     0.137420230454
    H           -0.832465389286    -0.717132153060     1.580859718357

  Mulliken Charges: (a.u.)
   Center  Symbol    Alpha    Beta     Spin     Total
       1     H     0.41597  0.41597  0.00000  0.16806
       2     C     3.14171  3.14171  0.00000 -0.28343
       3     N     3.77017  3.77017  0.00000 -0.54034
       4     H     0.41932  0.41932  0.00000  0.16137
       5     H     0.43217  0.43217  0.00000  0.13566
       6     C     3.13986  3.13986  0.00000 -0.27971
       7     C     3.14070  3.14070  0.00000 -0.28141
       8     H     0.41789  0.41789  0.00000  0.16421
       9     H     0.41679  0.41679  0.00000  0.16642
      10     H     0.43576  0.43576  0.00000  0.12847
      11     H     0.41697  0.41697  0.00000  0.16607
      12     H     0.41742  0.41742  0.00000  0.16517
      13     H     0.43527  0.43527  0.00000  0.12946

   Total alpha = 17.00000, Total beta = 17.00000, Total charge = -0.00000
