                              Psi4 1.0.54 Driver

  ==> Input File <==

--------------------------------------------------------------------------
set {
	reference rhf
	basis cc-pvtz
}

set_num_threads( 4 )
memory 2 gb

molecule MOL {
0 1

H	 -4.024094	 -0.454727	 0.000004
C	 -2.962215	 -0.297920	 0.000004
C	 -2.454736	 0.988978	 0.000025
C	 -2.105837	 -1.382632	 -0.000016
H	 -3.120052	 1.830438	 0.000041
C	 -1.090106	 1.189676	 0.000026
H	 -2.500390	 -2.380229	 -0.000033
C	 -0.739175	 -1.183302	 -0.000016
H	 -0.680214	 2.179144	 0.000042
C	 -0.227341	 0.104540	 0.000006
H	 -0.073209	 -2.021168	 -0.000032
C	 1.238974	 0.374429	 0.000004
O	 1.580226	 1.382739	 0.780289
O	 2.024100	 -0.248351	 -0.633164
C	 2.953659	 1.713117	 0.844260
H	 3.527965	 0.878196	 1.216356
H	 3.025654	 2.547772	 1.522312
H	 3.323138	 1.990682	 -0.131364

	symmetry c1
}
set optking {
	frozen_dihedral = ("
		13 12 10 6
	")
}

ee,wfn = optimize('scf', return_wfn=True)
oeprop( wfn, 'DIPOLE', 'QUADRUPOLE', 'MULLIKEN_CHARGES')
f=open( 'psi4out.xyz', 'w' )
f.write( "18  " )
f.write( str(ee) + "\n" )
f.write( MOL.save_string_xyz() )
f.close()
--------------------------------------------------------------------------

    Molecular point group: c1
  Charge       = 0
  Multiplicity = 1
  Basis Set: CC-PVTZ
  Basis Set:
  @DF-RHF Final Energy:  -457.50531465258439
    Total Energy =                       -457.5053146525845023
    Molecular point group: c1
  Basis Set: CC-PVTZ
  Basis Set:
  Basis Set: CC-PVTZ
  Basis Set:
  @DF-RHF Final Energy:  -457.50584645383884
    Total Energy =                       -457.5058464538387852
  Basis Set: CC-PVTZ
  Basis Set:
  Basis Set: CC-PVTZ
  Basis Set:
  @DF-RHF Final Energy:  -457.50460406713461
    Total Energy =                       -457.5046040671345509
  Basis Set: CC-PVTZ
  Basis Set:
  Basis Set: CC-PVTZ
  Basis Set:
  @DF-RHF Final Energy:  -457.50662265406169
    Total Energy =                       -457.5066226540617436
  Basis Set: CC-PVTZ
  Basis Set:
  Basis Set: CC-PVTZ
  Basis Set:
  @DF-RHF Final Energy:  -457.50665183629985
    Total Energy =                       -457.5066518362993975
  Basis Set: CC-PVTZ
  Basis Set:
  Charge       = 0
  Multiplicity = 1
  Basis Set: CC-PVTZ
  Basis Set:

    Orbital Energies (a.u.)
    -----------------------

    Doubly Occupied:

       1A    -20.602067     2A    -20.536744     3A    -11.372420
       4A    -11.281582     5A    -11.246701     6A    -11.243006
       7A    -11.241697     8A    -11.240793     9A    -11.236930
      10A    -11.236233    11A     -1.477736    12A     -1.369949
      13A     -1.171400    14A     -1.052302    15A     -1.029513
      16A     -0.981216    17A     -0.863117    18A     -0.840260
      19A     -0.782172    20A     -0.743514    21A     -0.688134
      22A     -0.682347    23A     -0.679095    24A     -0.633300
      25A     -0.632489    26A     -0.600772    27A     -0.591132
      28A     -0.559460    29A     -0.535120    30A     -0.520177
      31A     -0.510901    32A     -0.504248    33A     -0.463712
      34A     -0.450108    35A     -0.349244    36A     -0.346813

  @DF-RHF Final Energy:  -457.50665376610254

   => Energetics <=

    Nuclear Repulsion Energy =            493.5992730611797015
    One-Electron Energy =               -1601.6190495882608502
    Two-Electron Energy =                 650.5131227609786038
    DFT Exchange-Correlation Energy =       0.0000000000000000
    Empirical Dispersion Energy =           0.0000000000000000
    PCM Polarization Energy =               0.0000000000000000
    EFP Energy =                            0.0000000000000000
    Total Energy =                       -457.5066537661025450
    Molecular point group: c1
  Basis Set: CC-PVTZ
  Basis Set:

  -Total Gradient:
     Atom            X                  Y                   Z
    ------   -----------------  -----------------  -----------------
       1        0.000019592465     0.000001087006    -0.000017545643
       2        0.000001363511    -0.000165471294     0.000052192797
       3        0.000163937613     0.000080283260    -0.000031546533
       4       -0.000162679500     0.000060347248     0.000022478771
       5        0.000005677692    -0.000012923530     0.000009130240
       6       -0.000224130683    -0.000340245280    -0.004483493774
       7        0.000008169027     0.000007411241    -0.000005912642
       8        0.000115235097     0.000143584494    -0.000049052335
       9        0.000011386436    -0.000016456071    -0.000010597549
      10        0.000158941301    -0.000466527936     0.007844779010
      11       -0.000013095147     0.000001294477     0.000007374497
      12       -0.000544922837     0.003306788355    -0.006814422325
      13        0.000218039254    -0.002677923652     0.003455620690
      14        0.000080494997     0.000035489422    -0.000002559849
      15        0.000204310258     0.000057399163     0.000016672509
      16       -0.000020928527     0.000008623651    -0.000002769630
      17        0.000007469749    -0.000019976950    -0.000018877185
      18       -0.000028860707    -0.000002783605     0.000028528949

  **** Optimization is complete! (in 6 steps) ****
    Final optimized geometry and variables:
    Molecular point group: c1

    Geometry (in Angstrom), charge = 0, multiplicity = 1:

    H           -3.999378176580    -0.601369250595    -0.190629222195
    C           -2.934491874912    -0.472486143618    -0.154223615755
    C           -2.392033060306     0.798261918419    -0.191200296113
    C           -2.107548383067    -1.578274900490    -0.078037615806
    H           -3.032895065932     1.655619999857    -0.263393112859
    C           -1.022333458941     0.965867485479    -0.134257393841
    H           -2.528270236513    -2.564904232311    -0.056056041179
    C           -0.737617139169    -1.413363353160    -0.045849356000
    H           -0.598143099589     1.949957970011    -0.151062156350
    C           -0.193671823217    -0.140042043791    -0.049370818118
    H           -0.085284322164    -2.263276774527    -0.018200041113
    C            1.291262817529     0.001242970521    -0.077436248020
    O            1.716132186702     1.040884829055     0.615355618408
    O            2.016331010887    -0.757322119055    -0.626682968866
    C            3.111008550463     1.275323114540     0.638231621558
    H            3.627864347625     0.438546410456     1.083277626464
    H            3.252583289009     2.161707968599     1.234595630614
    H            3.487217645012     1.432524019307    -0.361619898309

  Mulliken Charges: (a.u.)
   Center  Symbol    Alpha    Beta     Spin     Total
       1     H     0.42081  0.42081  0.00000  0.15837
       2     C     3.07497  3.07497  0.00000 -0.14994
       3     C     3.07164  3.07164  0.00000 -0.14327
       4     C     3.06946  3.06946  0.00000 -0.13893
       5     H     0.42167  0.42167  0.00000  0.15665
       6     C     3.08900  3.08900  0.00000 -0.17800
       7     H     0.42091  0.42091  0.00000  0.15819
       8     C     3.08566  3.08566  0.00000 -0.17131
       9     H     0.41673  0.41673  0.00000  0.16654
      10     C     2.96283  2.96283  0.00000  0.07433
      11     H     0.41237  0.41237  0.00000  0.17525
      12     C     2.81822  2.81822  0.00000  0.36356
      13     O     4.14641  4.14641  0.00000 -0.29282
      14     O     4.20319  4.20319  0.00000 -0.40639
      15     C     3.03693  3.03693  0.00000 -0.07386
      16     H     0.45169  0.45169  0.00000  0.09663
      17     H     0.44387  0.44387  0.00000  0.11227
      18     H     0.45363  0.45363  0.00000  0.09275

   Total alpha = 36.00000, Total beta = 36.00000, Total charge = -0.00000

*** Psi4 exiting successfully. Buy a developer a beer!
