                              Psi4 1.0.54 Driver

  ==> Input File <==

--------------------------------------------------------------------------
set {
	reference rhf
	basis cc-pvtz
}

set_num_threads( 4 )
memory 2 gb

molecule MOL {
0 1

H	 2.921947	 -1.148689	 -0.444273
N	 3.091268	 -0.241216	 -0.065538
C	 1.860978	 0.530248	 0.016256
H	 3.754430	 0.207837	 -0.662125
C	 0.644130	 -0.381765	 -0.031064
H	 1.835721	 1.204666	 -0.833114
H	 1.808789	 1.151975	 0.911067
C	 -0.678115	 0.376691	 0.025731
H	 0.693998	 -0.977147	 -0.936845
H	 0.693309	 -1.082142	 0.800523
C	 -1.900706	 -0.535531	 -0.022488
H	 -0.725296	 1.079516	 -0.802982
H	 -0.715474	 0.974884	 0.933278
C	 -3.220513	 0.226854	 0.028039
H	 -1.865036	 -1.134397	 -0.928236
H	 -1.857948	 -1.236381	 0.806820
H	 -3.309098	 0.911849	 -0.808725
H	 -4.066838	 -0.449485	 -0.008086
H	 -3.301685	 0.809374	 0.939860

	symmetry c1
}
set optking {
	frozen_dihedral = ("
		1 2 3 6
	")
}

ee,wfn = optimize('scf', return_wfn=True)
oeprop( wfn, 'DIPOLE', 'QUADRUPOLE', 'MULLIKEN_CHARGES')
f=open( 'psi4out.xyz', 'w' )
f.write( "19  " )
f.write( str(ee) + "\n" )
f.write( MOL.save_string_xyz() )
f.close()
--------------------------------------------------------------------------

    Molecular point group: c1
  Charge       = 0
  Multiplicity = 1
  Basis Set: CC-PVTZ
  Basis Set:
  @DF-RHF Final Energy:  -251.44382053143514
    Total Energy =                       -251.4438205314352217
    Molecular point group: c1
  Basis Set: CC-PVTZ
  Basis Set:
  Basis Set: CC-PVTZ
  Basis Set:
  @DF-RHF Final Energy:  -251.44520963209379
    Total Energy =                       -251.4452096320939063
  Basis Set: CC-PVTZ
  Basis Set:
  Basis Set: CC-PVTZ
  Basis Set:
  @DF-RHF Final Energy:  -251.44540536243701
    Total Energy =                       -251.4454053624369294
  Basis Set: CC-PVTZ
  Basis Set:
  Basis Set: CC-PVTZ
  Basis Set:
  @DF-RHF Final Energy:  -251.44541201942693
    Total Energy =                       -251.4454120194267830
  Basis Set: CC-PVTZ
  Basis Set:
  Charge       = 0
  Multiplicity = 1
  Basis Set: CC-PVTZ
  Basis Set:

    Orbital Energies (a.u.)
    -----------------------

    Doubly Occupied:

       1A    -15.522688     2A    -11.237241     3A    -11.213894
       4A    -11.213161     5A    -11.212530     6A    -11.206832
       7A     -1.175269     8A     -1.076270     9A     -1.001068
      10A     -0.901840    11A     -0.817174    12A     -0.793138
      13A     -0.658986    14A     -0.650645    15A     -0.611906
      16A     -0.597756    17A     -0.565518    18A     -0.545378
      19A     -0.539642    20A     -0.497165    21A     -0.487163
      22A     -0.467587    23A     -0.464283    24A     -0.452012
      25A     -0.377331

  @DF-RHF Final Energy:  -251.44541286667032

   => Energetics <=

    Nuclear Repulsion Energy =            246.1835060052405311
    One-Electron Energy =                -826.6848869918652554
    Two-Electron Energy =                 329.0559681199545707
    DFT Exchange-Correlation Energy =       0.0000000000000000
    Empirical Dispersion Energy =           0.0000000000000000
    PCM Polarization Energy =               0.0000000000000000
    EFP Energy =                            0.0000000000000000
    Total Energy =                       -251.4454128666702104
    Molecular point group: c1
  Basis Set: CC-PVTZ
  Basis Set:

  -Total Gradient:
     Atom            X                  Y                   Z
    ------   -----------------  -----------------  -----------------
       1       -0.000509526298    -0.000925952262     0.002637858487
       2        0.001022333093     0.001645377133    -0.002922259733
       3       -0.001767358431    -0.002637458625    -0.001093384924
       4       -0.000019257369     0.000006067458    -0.000003008558
       5        0.000121813252     0.000035901572    -0.000005584486
       6        0.001211118309     0.001854607388     0.001366457801
       7       -0.000012556461     0.000010064994     0.000019496746
       8       -0.000015511620    -0.000001997058     0.000000689629
       9        0.000007100635     0.000010238571     0.000005399458
      10       -0.000010778064     0.000012822955    -0.000023592486
      11       -0.000020691085     0.000017238827     0.000014208222
      12        0.000015189620    -0.000018214141    -0.000001904747
      13       -0.000004629810    -0.000004664488    -0.000008231632
      14       -0.000019056596    -0.000016768657     0.000011797396
      15        0.000007255779     0.000012390227     0.000001772436
      16       -0.000004409294    -0.000003672130     0.000000436238
      17        0.000005898160    -0.000001916090    -0.000000392458
      18       -0.000006851475     0.000004287152     0.000000978775
      19       -0.000000082345     0.000001647174    -0.000000736165

  **** Optimization is complete! (in 5 steps) ****
    Final optimized geometry and variables:
    Molecular point group: c1

    Geometry (in Angstrom), charge = 0, multiplicity = 1:

    H            2.957760356985    -1.149552779939    -0.528643275552
    N            3.098746173994    -0.229748595915    -0.172582612091
    C            1.857615367543     0.532802587770    -0.134022710519
    H            3.804348633287     0.215580198884    -0.715439989009
    C            0.640706558216    -0.377637013948    -0.082672914295
    H            1.773279318192     1.212903674228    -0.979842821144
    H            1.863554054645     1.159829963076     0.753062460804
    C           -0.673836735261     0.381207103327     0.067356110496
    H            0.609116783293    -0.980643277192    -0.987756213761
    H            0.759428914258    -1.068886031123     0.747524125471
    C           -1.896164517117    -0.531340308080     0.116070926420
    H           -0.783157869073     1.080536434104    -0.758186766619
    H           -0.640456844642     0.981833106380     0.972786797448
    C           -3.207624826076     0.231541273871     0.269764764571
    H           -1.932665683595    -1.130888373967    -0.789431742946
    H           -1.788067493627    -1.231191466020     0.940077088729
    H           -3.361512872488     0.916162882422    -0.557788689678
    H           -4.054256549688    -0.444635075423     0.300787987307
    H           -3.216322733827     0.814316372318     1.184854841571

  Mulliken Charges: (a.u.)
   Center  Symbol    Alpha    Beta     Spin     Total
       1     H     0.42950  0.42950  0.00000  0.14099
       2     N     3.69506  3.69506  0.00000 -0.39013
       3     C     3.01579  3.01579  0.00000 -0.03158
       4     H     0.42860  0.42860  0.00000  0.14281
       5     C     3.08883  3.08883  0.00000 -0.17767
       6     H     0.46732  0.46732  0.00000  0.06535
       7     H     0.46312  0.46312  0.00000  0.07375
       8     C     3.09266  3.09266  0.00000 -0.18532
       9     H     0.45896  0.45896  0.00000  0.08208
      10     H     0.44985  0.44985  0.00000  0.10029
      11     C     3.08343  3.08343  0.00000 -0.16686
      12     H     0.45562  0.45562  0.00000  0.08876
      13     H     0.45351  0.45351  0.00000  0.09297
      14     C     3.15007  3.15007  0.00000 -0.30013
      15     H     0.45496  0.45496  0.00000  0.09008
      16     H     0.45406  0.45406  0.00000  0.09187
      17     H     0.45536  0.45536  0.00000  0.08927
      18     H     0.44842  0.44842  0.00000  0.10315
      19     H     0.45485  0.45485  0.00000  0.09030

   Total alpha = 25.00000, Total beta = 25.00000, Total charge =  0.00000

*** Psi4 exiting successfully. Buy a developer a beer!
