  ==> Input File <==

--------------------------------------------------------------------------
set {
	reference rhf
	basis 6-31G*
}

set_num_threads( 4 )
memory 2 gb

molecule MOL {
0 1

O	 -1.950600	 -2.222111	 0.338582
C	 -0.881310	 -1.726925	 0.179982
C	 0.430947	 -2.473723	 0.156778
O	 -0.698257	 -0.426125	 0.001050
C	 0.267827	 -3.974790	 0.359653
H	 1.066328	 -2.038158	 0.922167
H	 0.913878	 -2.253000	 -0.790493
H	 -0.199137	 -4.190808	 1.312882
H	 1.236296	 -4.462917	 0.334825
H	 -0.352731	 -4.407700	 -0.415472
C	 -1.853104	 0.406779	 0.000512
C	 -3.066105	 -0.499277	 -0.000959
H	 -1.828410	 1.043074	 -0.873618
H	 -1.829857	 1.042383	 0.875188
H	 -3.071820	 -1.133106	 -0.880383
H	 -3.972708	 0.097145	 -0.001528
H	 -3.073405	 -1.133813	 0.877999

	symmetry c1
}
set optking {
	frozen_dihedral = ("
		2 4 11 13
	")
}

ee = optimize('scf')
oeprop('DIPOLE', 'QUADRUPOLE', 'MULLIKEN_CHARGES')
f=open( 'psi4out.xyz', 'w' )
f.write( "17  " )
f.write( str(ee) + "\n" )
f.write( MOL.save_string_xyz() )
f.close()
--------------------------------------------------------------------------

    Molecular point group: c1
  Charge       = 0
  Multiplicity = 1
  Basis Set: 6-31G*
  Basis Set:
  @DF-RHF Final Energy:  -344.83259881738172
    Total Energy =                       -344.8325988173817791
    Molecular point group: c1
  Basis Set: 6-31G*
  Basis Set:
  Basis Set: 6-31G*
  Basis Set:
  @DF-RHF Final Energy:  -344.88118095386113
    Total Energy =                       -344.8811809538610760
  Basis Set: 6-31G*
  Basis Set:
  Basis Set: 6-31G*
  Basis Set:
  @DF-RHF Final Energy:  -344.89328364484794
    Total Energy =                       -344.8932836448482249
  Basis Set: 6-31G*
  Basis Set:
  Basis Set: 6-31G*
  Basis Set:
  @DF-RHF Final Energy:  -344.89429804830269
    Total Energy =                       -344.8942980483023462
  Basis Set: 6-31G*
  Basis Set:
  @DF-RHF Final Energy:  -344.89862032940982
    Total Energy =                       -344.8986203294098232
  @DF-RHF Final Energy:  -344.89974710479891
    Total Energy =                       -344.8997471047986210
  @DF-RHF Final Energy:  -344.89984199580141
    Total Energy =                       -344.8998419958013528
  Basis Set: 6-31G*
  Basis Set:
  @DF-RHF Final Energy:  -344.89986402559441
    Total Energy =                       -344.8998640255943542
  Basis Set: 6-31G*
  Basis Set:
  Basis Set: 6-31G*
  Basis Set:
  @DF-RHF Final Energy:  -344.89987622079963
    Total Energy =                       -344.8998762207995696
  Basis Set: 6-31G*
  Basis Set:
  Basis Set: 6-31G*
  Basis Set:
  @DF-RHF Final Energy:  -344.89987769577351
    Total Energy =                       -344.8998776957735117
  Basis Set: 6-31G*
  Basis Set:
  Charge       = 0
  Multiplicity = 1
  Basis Set: 6-31G*
  Basis Set:

    Orbital Energies (a.u.)
    -----------------------

    Doubly Occupied:

       1A    -20.597723     2A    -20.539933     3A    -11.372901
       4A    -11.291850     5A    -11.234390     6A    -11.215639
       7A    -11.213433     8A     -1.459430     9A     -1.361351
      10A     -1.067468    11A     -1.028006    12A     -0.919208
      13A     -0.858329    14A     -0.741159    15A     -0.688765
      16A     -0.682953    17A     -0.669715    18A     -0.628426
      19A     -0.600185    20A     -0.567479    21A     -0.545630
      22A     -0.528663    23A     -0.522536    24A     -0.516821
      25A     -0.493667    26A     -0.489702    27A     -0.441218
      28A     -0.427335

  @DF-RHF Final Energy:  -344.89987791332516

   => Energetics <=

    Nuclear Repulsion Energy =            318.3251167347029309
    One-Electron Energy =               -1101.0421576871324305
    Two-Electron Energy =                 437.8171630391042299
    DFT Exchange-Correlation Energy =       0.0000000000000000
    Empirical Dispersion Energy =           0.0000000000000000
    PCM Polarization Energy =               0.0000000000000000
    EFP Energy =                            0.0000000000000000
    Total Energy =                       -344.8998779133252128
    Molecular point group: c1
  Basis Set: 6-31G*
  Basis Set:

  -Total Gradient:
     Atom            X                  Y                   Z
    ------   -----------------  -----------------  -----------------
       1        0.000015546322    -0.000004822868     0.000010714218
       2       -0.000065288468    -0.000239422192    -0.001910099122
       3       -0.000012238096     0.000000601421     0.000013346167
       4       -0.000045644068     0.000073265502     0.002759624990
       5        0.000007144700    -0.000002747458    -0.000002879082
       6        0.000001528016    -0.000003605014    -0.000004410216
       7       -0.000004123653    -0.000001091376    -0.000000804406
       8        0.000000610728     0.000002617340    -0.000003005541
       9        0.000004097352    -0.000007929109     0.000001560657
      10        0.000001535637     0.000004599709     0.000003543165
      11        0.001149314944     0.001383916473     0.000202140045
      12        0.000007183913     0.000007823063     0.000001418959
      13       -0.001030700036    -0.001242972582    -0.001056451595
      14       -0.000021017458     0.000007443559    -0.000003240621
      15       -0.000004065187     0.000010578522    -0.000001053025
      16       -0.000001949327     0.000002428814    -0.000003044025
      17       -0.000001935315     0.000009316194    -0.000007360569

  **** Optimization is complete! (in 11 steps) ****
    Final optimized geometry and variables:
    Molecular point group: c1

    Geometry (in Angstrom), charge = 0, multiplicity = 1:

    O           -0.748459563424    -0.895756544204     0.257305335277
    C            0.246297862447    -0.275632313688     0.063831811555
    C            1.627641215015    -0.885691727799    -0.030966968958
    O            0.321706522183     1.037131701496    -0.089981184616
    C            1.630073394989    -2.395249313409     0.173686166577
    H            2.255703667261    -0.386727210597     0.700630094881
    H            2.034407585941    -0.618806171229    -1.001862168996
    H            1.240254649385    -2.657200400139     1.149853322400
    H            2.640801768624    -2.781629254729     0.094459710117
    H            1.015945802493    -2.890570582087    -0.568429683070
    C           -0.769174656406     1.961659409398    -0.148979252013
    C           -2.191348316829     1.425756421364    -0.222639962568
    H           -0.569355270923     2.549650960573    -1.034526750904
    H           -0.656007131459     2.603374389512     0.714741264952
    H           -2.335701025952     0.773274984705    -1.072879459033
    H           -2.842694149635     2.288156519321    -0.340358422939
    H           -2.481711802731     0.890880085451     0.668255240358

  Mulliken Charges: (a.u.)
   Center  Symbol    Alpha    Beta     Spin     Total
       1     O     4.28512  4.28512  0.00000 -0.57024
       2     C     2.60609  2.60609  0.00000  0.78783
       3     C     3.20328  3.20328  0.00000 -0.40656
       4     O     4.32321  4.32321  0.00000 -0.64642
       5     C     3.23842  3.23842  0.00000 -0.47683
       6     H     0.40145  0.40145  0.00000  0.19711
       7     H     0.40216  0.40216  0.00000  0.19569
       8     H     0.41073  0.41073  0.00000  0.17854
       9     H     0.41904  0.41904  0.00000  0.16192
      10     H     0.41047  0.41047  0.00000  0.17906
      11     C     2.99086  2.99086  0.00000  0.01828
      12     C     3.25184  3.25184  0.00000 -0.50368
      13     H     0.41297  0.41297  0.00000  0.17406
      14     H     0.41364  0.41364  0.00000  0.17272
      15     H     0.40818  0.40818  0.00000  0.18365
      16     H     0.42238  0.42238  0.00000  0.15525
      17     H     0.40018  0.40018  0.00000  0.19964

   Total alpha = 28.00000, Total beta = 28.00000, Total charge = -0.00000
