  ==> Input File <==

--------------------------------------------------------------------------
set {
	reference rhf
	basis cc-pvtz
}

set_num_threads( 4 )
memory 2 gb

molecule MOL {
0 1

H	 1.651322	 -0.822465	 0.000000
O	 0.729993	 -1.034364	 0.000000
C	 0.037305	 0.100061	 0.000000
C	 -0.255637	 0.579817	 -1.389998
O	 -0.292527	 0.640232	 0.998109
H	 0.674020	 0.734398	 -1.922268
H	 -0.816586	 1.498491	 -1.344178
H	 -0.817843	 -0.176544	 -1.922268

	symmetry c1
}
set optking {
	frozen_dihedral = ("
		4 3 2 1
	")
}

ee = optimize('scf')
oeprop('DIPOLE', 'QUADRUPOLE', 'MULLIKEN_CHARGES')
f=open( 'psi4out.xyz', 'w' )
f.write( "8  " )
f.write( str(ee) + "\n" )
f.write( MOL.save_string_xyz() )
f.close()
--------------------------------------------------------------------------

    Molecular point group: c1
  Charge       = 0
  Multiplicity = 1
  Basis Set: CC-PVTZ
  Basis Set:
  @DF-RHF Final Energy:  -227.88296187889398
    Total Energy =                       -227.8829618788939797
    Molecular point group: c1
  Basis Set: CC-PVTZ
  Basis Set:
  Basis Set: CC-PVTZ
  Basis Set:
  @DF-RHF Final Energy:  -227.88431588861198
    Total Energy =                       -227.8843158886119795
  Basis Set: CC-PVTZ
  Basis Set:
  Basis Set: CC-PVTZ
  Basis Set:
  @DF-RHF Final Energy:  -227.88379275103762
    Total Energy =                       -227.8837927510375323
  Basis Set: CC-PVTZ
  Basis Set:
  Basis Set: CC-PVTZ
  Basis Set:
  @DF-RHF Final Energy:  -227.88453299984462
    Total Energy =                       -227.8845329998446800
  Basis Set: CC-PVTZ
  Basis Set:
  Basis Set: CC-PVTZ
  Basis Set:
  @DF-RHF Final Energy:  -227.88454078189449
    Total Energy =                       -227.8845407818944295
  Basis Set: CC-PVTZ
  Basis Set:
  Charge       = 0
  Multiplicity = 1
  Basis Set: CC-PVTZ
  Basis Set:

    Orbital Energies (a.u.)
    -----------------------

    Doubly Occupied:

       1A    -20.588295     2A    -20.552861     3A    -11.379171
       4A    -11.241904     5A     -1.465862     6A     -1.373179
       7A     -1.024430     8A     -0.829581     9A     -0.712270
      10A     -0.673294    11A     -0.664815    12A     -0.592295
      13A     -0.578769    14A     -0.511361    15A     -0.508850
      16A     -0.453960

  @DF-RHF Final Energy:  -227.88454167104138

   => Energetics <=

    Nuclear Repulsion Energy =            122.0423815715095941
    One-Electron Energy =                -553.5520534161103114
    Two-Electron Energy =                 203.6251301735593700
    DFT Exchange-Correlation Energy =       0.0000000000000000
    Empirical Dispersion Energy =           0.0000000000000000
    PCM Polarization Energy =               0.0000000000000000
    EFP Energy =                            0.0000000000000000
    Total Energy =                       -227.8845416710413190
    Molecular point group: c1
  Basis Set: CC-PVTZ
  Basis Set:

  -Total Gradient:
     Atom            X                  Y                   Z
    ------   -----------------  -----------------  -----------------
       1       -0.000023943988    -0.000032653518    -0.001526255257
       2        0.000337560954     0.000349052083     0.001906604948
       3       -0.001166114128    -0.000801776700    -0.000345454439
       4        0.000864811811     0.000503971622    -0.000012609876
       5        0.000008054074    -0.000013537944    -0.000020869455
       6       -0.000017457840    -0.000009190555    -0.000005571867
       7       -0.000004266630     0.000004071507     0.000003973795
       8        0.000001355748     0.000000063504     0.000000182149

  **** Optimization is complete! (in 6 steps) ****
    Final optimized geometry and variables:
    Molecular point group: c1

    Geometry (in Angstrom), charge = 0, multiplicity = 1:

    H            1.593386459456    -0.948653950531     0.118946267000
    O            0.663105934273    -1.102531042964     0.122759361133
    C           -0.041789327803     0.059870820490     0.094447660680
    C           -0.352067975081     0.537799728722    -1.294924903838
    O           -0.388839273526     0.592856172806     1.080107624761
    H            0.571571232434     0.708870476394    -1.835628015979
    H           -0.931221914542     1.446102442097    -1.255930173572
    H           -0.896955282552    -0.233769755372    -1.823883169696

  Mulliken Charges: (a.u.)
   Center  Symbol    Alpha    Beta     Spin     Total
       1     H     0.38633  0.38633  0.00000  0.22734
       2     O     4.17508  4.17508  0.00000 -0.35016
       3     C     2.80601  2.80601  0.00000  0.38799
       4     C     3.13752  3.13752  0.00000 -0.27505
       5     O     4.16059  4.16059  0.00000 -0.32117
       6     H     0.45393  0.45393  0.00000  0.09214
       7     H     0.43801  0.43801  0.00000  0.12398
       8     H     0.44254  0.44254  0.00000  0.11493

   Total alpha = 16.00000, Total beta = 16.00000, Total charge = -0.00000
