  ==> Input File <==

--------------------------------------------------------------------------
set {
	reference rhf
	basis 6-31G*
}

set_num_threads( 4 )
memory 2 gb

molecule MOL {
0 1

H	 -1.836216	 1.387520	 -0.000064
C	 -1.301823	 0.443321	 -0.000031
O	 -0.003969	 0.658512	 0.000451
O	 -1.829879	 -0.616434	 -0.000857
C	 0.679524	 0.549468	 -1.247801
C	 2.142668	 0.838572	 -0.990995
H	 0.247014	 1.254106	 -1.944750
H	 0.529642	 -0.446241	 -1.642002
H	 2.272926	 1.836815	 -0.589027
H	 2.700454	 0.766240	 -1.918829
H	 2.557076	 0.128313	 -0.284819

	symmetry c1
}
set optking {
	frozen_dihedral = ("
		5 3 2 4
	")
}

ee = optimize('scf')
oeprop('DIPOLE', 'QUADRUPOLE', 'MULLIKEN_CHARGES')
f=open( 'psi4out.xyz', 'w' )
f.write( "11  " )
f.write( str(ee) + "\n" )
f.write( MOL.save_string_xyz() )
f.close()
--------------------------------------------------------------------------

    Molecular point group: c1
  Charge       = 0
  Multiplicity = 1
  Basis Set: 6-31G*
  Basis Set:
  @DF-RHF Final Energy:  -266.80893673045171
    Total Energy =                       -266.8089367304519328
    Molecular point group: c1
  Basis Set: 6-31G*
  Basis Set:
  Basis Set: 6-31G*
  Basis Set:
  @DF-RHF Final Energy:  -266.80707708502814
    Total Energy =                       -266.8070770850280269
  Basis Set: 6-31G*
  Basis Set:
  Basis Set: 6-31G*
  Basis Set:
  @DF-RHF Final Energy:  -266.80958147504481
    Total Energy =                       -266.8095814750447516
  Basis Set: 6-31G*
  Basis Set:
  Basis Set: 6-31G*
  Basis Set:
  @DF-RHF Final Energy:  -266.81013744091626
    Total Energy =                       -266.8101374409163782
  Basis Set: 6-31G*
  Basis Set:
  Basis Set: 6-31G*
  Basis Set:
  @DF-RHF Final Energy:  -266.81013618618977
    Total Energy =                       -266.8101361861895384
  Basis Set: 6-31G*
  Basis Set:
  Basis Set: 6-31G*
  Basis Set:
  @DF-RHF Final Energy:  -266.81015149432972
    Total Energy =                       -266.8101514943296024
  Basis Set: 6-31G*
  Basis Set:
  Charge       = 0
  Multiplicity = 1
  Basis Set: 6-31G*
  Basis Set:

    Orbital Energies (a.u.)
    -----------------------

    Doubly Occupied:

       1A    -20.592611     2A    -20.570865     3A    -11.381074
       4A    -11.300614     5A    -11.228111     6A     -1.466383
       7A     -1.377750     8A     -1.049147     9A     -0.889666
      10A     -0.823732    11A     -0.740217    12A     -0.688483
      13A     -0.649610    14A     -0.635506    15A     -0.563253
      16A     -0.541099    17A     -0.533951    18A     -0.504163
      19A     -0.464117    20A     -0.452343

  @DF-RHF Final Energy:  -266.81015178008118

   => Energetics <=

    Nuclear Repulsion Energy =            177.2378516525636201
    One-Electron Energy =                -715.1906173165109522
    Two-Electron Energy =                 271.1426138838662041
    DFT Exchange-Correlation Energy =       0.0000000000000000
    Empirical Dispersion Energy =           0.0000000000000000
    PCM Polarization Energy =               0.0000000000000000
    EFP Energy =                            0.0000000000000000
    Total Energy =                       -266.8101517800810711
    Molecular point group: c1
  Basis Set: 6-31G*
  Basis Set:

  -Total Gradient:
     Atom            X                  Y                   Z
    ------   -----------------  -----------------  -----------------
       1        0.000003270875    -0.000010421568     0.000010917592
       2       -0.000235171368     0.001185628322    -0.006337520429
       3        0.000876843010    -0.004293872677     0.002880094199
       4       -0.000034842018     0.000170194474     0.004017155619
       5       -0.000569715208     0.002943674467    -0.000677783217
       6        0.000004151844    -0.000001395061     0.000047494182
       7       -0.000028000120     0.000009498669     0.000023205201
       8       -0.000010870228    -0.000008920609     0.000027333553
       9        0.000009037476     0.000005206167     0.000001706739
      10       -0.000027510081     0.000000660216     0.000003505775
      11        0.000012805817    -0.000000252397     0.000003890785

  **** Optimization is complete! (in 7 steps) ****
    Final optimized geometry and variables:
    Molecular point group: c1

    Geometry (in Angstrom), charge = 0, multiplicity = 1:

    H           -1.864831537912     0.973183608269     0.464803332226
    C           -1.264062616603     0.066867808231     0.440772156790
    O            0.051085403170     0.321315605735     0.440851383344
    O           -1.735564704907    -1.011902075035     0.473093965454
    C            0.736718324685     0.187177512066    -0.800821092690
    C            2.205350732346     0.448023962584    -0.547928368427
    H            0.331743778971     0.902454963553    -1.510375959377
    H            0.574169232958    -0.811179645657    -1.187395608995
    H            2.352112387789     1.445377439737    -0.150338983216
    H            2.762865153266     0.358733030027    -1.474570596738
    H            2.598114683679    -0.267879657245     0.164032108191

  Mulliken Charges: (a.u.)
   Center  Symbol    Alpha    Beta     Spin     Total
       1     H     0.42259  0.42259  0.00000  0.15483
       2     C     2.73055  2.73055  0.00000  0.53890
       3     O     4.30422  4.30422  0.00000 -0.60845
       4     O     4.22993  4.22993  0.00000 -0.45987
       5     C     3.00439  3.00439  0.00000 -0.00878
       6     C     3.24729  3.24729  0.00000 -0.49458
       7     H     0.42072  0.42072  0.00000  0.15857
       8     H     0.40821  0.40821  0.00000  0.18358
       9     H     0.40976  0.40976  0.00000  0.18048
      10     H     0.41618  0.41618  0.00000  0.16765
      11     H     0.40616  0.40616  0.00000  0.18768

   Total alpha = 20.00000, Total beta = 20.00000, Total charge = -0.00000
