  ==> Input File <==

--------------------------------------------------------------------------
set {
	reference rhf
	basis 6-31G*
}

set_num_threads( 4 )
memory 2 gb

molecule MOL {
0 1

O	 0.749854	 1.307668	 -0.000040
C	 0.576249	 0.131685	 -0.000108
C	 -0.766779	 -0.556801	 -0.000461
O	 1.568443	 -0.749345	 -0.000005
C	 -1.945214	 0.412366	 0.000161
H	 -0.796911	 -1.211249	 -0.867467
H	 -0.796854	 -1.212390	 0.865687
C	 -2.130168	 1.091399	 -1.356037
H	 -1.793218	 1.160292	 0.770944
H	 -2.848615	 -0.122771	 0.272316
H	 -1.248583	 1.660869	 -1.637045
H	 -2.971724	 1.776031	 -1.334472
H	 -2.316794	 0.363713	 -2.140968
C	 2.886820	 -0.232538	 0.000322
H	 3.059106	 0.369571	 -0.880203
H	 3.540187	 -1.091012	 0.000050
H	 3.059019	 0.368956	 0.881266

	symmetry c1
}
set optking {
	frozen_dihedral = ("
		9 5 3 6
	")
}

ee = optimize('scf')
oeprop('DIPOLE', 'QUADRUPOLE', 'MULLIKEN_CHARGES')
f=open( 'psi4out.xyz', 'w' )
f.write( "17  " )
f.write( str(ee) + "\n" )
f.write( MOL.save_string_xyz() )
f.close()
--------------------------------------------------------------------------

    Molecular point group: c1
  Charge       = 0
  Multiplicity = 1
  Basis Set: 6-31G*
  Basis Set:
  @DF-RHF Final Energy:  -344.90597604614476
    Total Energy =                       -344.9059760461447581
    Molecular point group: c1
  Basis Set: 6-31G*
  Basis Set:
  Basis Set: 6-31G*
  Basis Set:
  @DF-RHF Final Energy:  -344.90623919263584
    Total Energy =                       -344.9062391926361215
  Basis Set: 6-31G*
  Basis Set:
  Basis Set: 6-31G*
  Basis Set:
  @DF-RHF Final Energy:  -344.90506227150746
    Total Energy =                       -344.9050622715074041
  Basis Set: 6-31G*
  Basis Set:
  Basis Set: 6-31G*
  Basis Set:
  @DF-RHF Final Energy:  -344.90634712942222
    Total Energy =                       -344.9063471294223859
  Basis Set: 6-31G*
  Basis Set:
  Basis Set: 6-31G*
  Basis Set:
  @DF-RHF Final Energy:  -344.90637318239783
    Total Energy =                       -344.9063731823979992
  Basis Set: 6-31G*
  Basis Set:
  Basis Set: 6-31G*
  Basis Set:
  @DF-RHF Final Energy:  -344.90638221972961
    Total Energy =                       -344.9063822197294371
  Basis Set: 6-31G*
  Basis Set:
  Basis Set: 6-31G*
  Basis Set:
  @DF-RHF Final Energy:  -344.90638377931663
    Total Energy =                       -344.9063837793163998
  Basis Set: 6-31G*
  Basis Set:
  Charge       = 0
  Multiplicity = 1
  Basis Set: 6-31G*
  Basis Set:

    Orbital Energies (a.u.)
    -----------------------

    Doubly Occupied:

       1A    -20.604868     2A    -20.546538     3A    -11.373415
       4A    -11.281607     5A    -11.236122     6A    -11.222036
       7A    -11.208085     8A     -1.470581     9A     -1.363800
      10A     -1.079051    11A     -0.999673    12A     -0.938355
      13A     -0.829151    14A     -0.766089    15A     -0.701366
      16A     -0.682050    17A     -0.671994    18A     -0.619010
      19A     -0.616034    20A     -0.566825    21A     -0.565136
      22A     -0.534333    23A     -0.523739    24A     -0.488179
      25A     -0.483564    26A     -0.481697    27A     -0.457007
      28A     -0.437426

  @DF-RHF Final Energy:  -344.90638404425317

   => Energetics <=

    Nuclear Repulsion Energy =            317.7754326558210778
    One-Electron Energy =               -1099.8681717545816809
    Two-Electron Energy =                 437.1863550545069188
    DFT Exchange-Correlation Energy =       0.0000000000000000
    Empirical Dispersion Energy =           0.0000000000000000
    PCM Polarization Energy =               0.0000000000000000
    EFP Energy =                            0.0000000000000000
    Total Energy =                       -344.9063840442536844
    Molecular point group: c1
  Basis Set: 6-31G*
  Basis Set:

  -Total Gradient:
     Atom            X                  Y                   Z
    ------   -----------------  -----------------  -----------------
       1       -0.000015312023     0.000011743778     0.000006697281
       2        0.000007062519     0.000011557367    -0.000003595668
       3       -0.000597220453    -0.000676748676     0.000524181691
       4        0.000018543329    -0.000032051416     0.000005304206
       5       -0.000459048754    -0.000523173871     0.000686337232
       6        0.000567214329     0.000647589552    -0.000540375553
       7        0.000003686806    -0.000001078820    -0.000001252937
       8       -0.000004893887     0.000002243847    -0.000002673292
       9        0.000491829377     0.000559067210    -0.000669684272
      10       -0.000003200654     0.000000405647     0.000002311480
      11        0.000000701165     0.000001548436    -0.000001331375
      12        0.000003728108    -0.000002425844     0.000001230209
      13       -0.000000210976    -0.000000455462    -0.000000241086
      14       -0.000006350019     0.000006704998    -0.000012532742
      15        0.000002849830    -0.000000390140     0.000001943811
      16       -0.000005474393    -0.000003529692     0.000001715501
      17       -0.000003904304    -0.000001006908     0.000001965514

  **** Optimization is complete! (in 8 steps) ****
    Final optimized geometry and variables:
    Molecular point group: c1

    Geometry (in Angstrom), charge = 0, multiplicity = 1:

    O            0.594007706276     1.095204539408     0.383384359240
    C            0.407724088897    -0.070928688413     0.243325316470
    C           -0.941136500966    -0.752100037126     0.222981100340
    O            1.390981472292    -0.950442562655     0.105268042572
    C           -2.120106428243     0.218254350868     0.160505984511
    H           -0.949037796713    -1.440558412450    -0.616267149669
    H           -0.988701646508    -1.366201084886     1.118558751365
    C           -2.299448272992     0.863366774288    -1.213939666932
    H           -1.981408354969     0.993038101810     0.905621961201
    H           -3.023278052530    -0.324154854976     0.424966970885
    H           -1.425641684349     1.441714578016    -1.491419217368
    H           -3.153649040176     1.532854610507    -1.215952625189
    H           -2.467894415534     0.111722430890    -1.980830056485
    C            2.714194117537    -0.446788344948     0.138956550741
    H            2.871667657469     0.260557435978    -0.662440210731
    H            3.358783324586    -1.302852809430     0.014398892079
    H            2.912627795981     0.037219262315     1.084386383854

  Mulliken Charges: (a.u.)
   Center  Symbol    Alpha    Beta     Spin     Total
       1     O     4.28678  4.28678  0.00000 -0.57356
       2     C     2.60756  2.60756  0.00000  0.78487
       3     C     3.20705  3.20705  0.00000 -0.41409
       4     O     4.30596  4.30596  0.00000 -0.61191
       5     C     3.15460  3.15460  0.00000 -0.30920
       6     H     0.40105  0.40105  0.00000  0.19790
       7     H     0.39815  0.39815  0.00000  0.20370
       8     C     3.24540  3.24540  0.00000 -0.49080
       9     H     0.40588  0.40588  0.00000  0.18825
      10     H     0.41862  0.41862  0.00000  0.16276
      11     H     0.40824  0.40824  0.00000  0.18351
      12     H     0.41756  0.41756  0.00000  0.16488
      13     H     0.42460  0.42460  0.00000  0.15079
      14     C     3.09244  3.09244  0.00000 -0.18488
      15     H     0.40882  0.40882  0.00000  0.18236
      16     H     0.40828  0.40828  0.00000  0.18345
      17     H     0.40901  0.40901  0.00000  0.18198

   Total alpha = 28.00000, Total beta = 28.00000, Total charge =  0.00000
