                              Psi4 1.0.54 Driver

  ==> Input File <==

--------------------------------------------------------------------------
set {
	reference rhf
	basis cc-pvtz
}

set_num_threads( 4 )
memory 2 gb

molecule MOL {
0 1

O	 0.749630	 1.305591	 -0.000460
C	 0.576499	 0.134701	 -0.003900
C	 -0.765656	 -0.550508	 -0.002152
O	 1.564816	 -0.744612	 -0.000631
C	 -1.945526	 0.411052	 0.000603
H	 -0.794329	 -1.203792	 -0.868145
H	 -0.791555	 -1.205429	 0.862701
C	 -1.646378	 1.689041	 -0.775399
H	 -2.207257	 0.652527	 1.023628
H	 -2.810968	 -0.084173	 -0.422647
H	 -0.801266	 2.220373	 -0.350214
H	 -2.497958	 2.358404	 -0.760344
H	 -1.412781	 1.475296	 -1.813220
C	 2.884339	 -0.237801	 0.002883
H	 3.064150	 0.362814	 -0.876312
H	 3.533055	 -1.098529	 0.004958
H	 3.059365	 0.363432	 0.882614

	symmetry c1
}
set optking {
	frozen_dihedral = ("
		9 5 3 6
	")
}

ee,wfn = optimize('scf', return_wfn=True)
oeprop( wfn, 'DIPOLE', 'QUADRUPOLE', 'MULLIKEN_CHARGES')
f=open( 'psi4out.xyz', 'w' )
f.write( "17  " )
f.write( str(ee) + "\n" )
f.write( MOL.save_string_xyz() )
f.close()
--------------------------------------------------------------------------

    Molecular point group: c1
  Charge       = 0
  Multiplicity = 1
  Basis Set: CC-PVTZ
  Basis Set:
  @DF-RHF Final Energy:  -345.01352843688858
    Total Energy =                       -345.0135284368884641
    Molecular point group: c1
  Basis Set: CC-PVTZ
  Basis Set:
  Basis Set: CC-PVTZ
  Basis Set:
  @DF-RHF Final Energy:  -345.02536841201328
    Total Energy =                       -345.0253684120133357
  Basis Set: CC-PVTZ
  Basis Set:
  Basis Set: CC-PVTZ
  Basis Set:
  @DF-RHF Final Energy:  -345.02794868131372
    Total Energy =                       -345.0279486813136600
  Basis Set: CC-PVTZ
  Basis Set:
  Basis Set: CC-PVTZ
  Basis Set:
  @DF-RHF Final Energy:  -345.02585890644775
    Total Energy =                       -345.0258589064476382
  Basis Set: CC-PVTZ
  Basis Set:
  @DF-RHF Final Energy:  -345.02934827849634
    Total Energy =                       -345.0293482784961725
  @DF-RHF Final Energy:  -345.02972541566510
    Total Energy =                       -345.0297254156649842
  @DF-RHF Final Energy:  -345.02987184606843
    Total Energy =                       -345.0298718460683745
  @DF-RHF Final Energy:  -345.03040872320832
    Total Energy =                       -345.0304087232088932
  @DF-RHF Final Energy:  -345.03055349549402
    Total Energy =                       -345.0305534954939048
  Basis Set: CC-PVTZ
  Basis Set:
  @DF-RHF Final Energy:  -345.03057722857147
    Total Energy =                       -345.0305772285717580
  Basis Set: CC-PVTZ
  Basis Set:
  Basis Set: CC-PVTZ
  Basis Set:
  @DF-RHF Final Energy:  -345.03058894110126
    Total Energy =                       -345.0305889411016551
  Basis Set: CC-PVTZ
  Basis Set:
  Basis Set: CC-PVTZ
  Basis Set:
  @DF-RHF Final Energy:  -345.03059092810543
    Total Energy =                       -345.0305909281051413
  Basis Set: CC-PVTZ
  Basis Set:
  Charge       = 0
  Multiplicity = 1
  Basis Set: CC-PVTZ
  Basis Set:

    Orbital Energies (a.u.)
    -----------------------

    Doubly Occupied:

       1A    -20.598500     2A    -20.532492     3A    -11.365661
       4A    -11.279026     5A    -11.234188     6A    -11.224493
       7A    -11.206240     8A     -1.473286     9A     -1.365738
      10A     -1.078674    11A     -1.000375    12A     -0.941430
      13A     -0.832805    14A     -0.769049    15A     -0.698864
      16A     -0.684455    17A     -0.674139    18A     -0.628331
      19A     -0.611611    20A     -0.573337    21A     -0.560202
      22A     -0.534804    23A     -0.526406    24A     -0.496024
      25A     -0.484827    26A     -0.477300    27A     -0.460031
      28A     -0.437241

  @DF-RHF Final Energy:  -345.03059134190266

   => Energetics <=

    Nuclear Repulsion Energy =            319.3936579167866512
    One-Electron Energy =               -1103.3494333548451323
    Two-Electron Energy =                 438.9251840961558173
    DFT Exchange-Correlation Energy =       0.0000000000000000
    Empirical Dispersion Energy =           0.0000000000000000
    PCM Polarization Energy =               0.0000000000000000
    EFP Energy =                            0.0000000000000000
    Total Energy =                       -345.0305913419026638
    Molecular point group: c1
  Basis Set: CC-PVTZ
  Basis Set:

  -Total Gradient:
     Atom            X                  Y                   Z
    ------   -----------------  -----------------  -----------------
       1       -0.000019195251     0.000080422159     0.000021615901
       2       -0.000003881012    -0.000093651049    -0.000035075882
       3        0.003129779849     0.004181656138    -0.004565678597
       4       -0.000037228765    -0.000003361785    -0.000007784286
       5        0.004146930012     0.005073955365     0.000302267564
       6       -0.003254138722    -0.004256444147     0.003707062536
       7       -0.000003382713     0.000008218636     0.000009135074
       8       -0.000013629651    -0.000026917400     0.000008770368
       9       -0.004021726609    -0.004985691946     0.000533555895
      10       -0.000008794934    -0.000007464990     0.000000346772
      11        0.000032424928     0.000012990170     0.000015085009
      12        0.000020844057    -0.000001946124     0.000001554069
      13        0.000002975351    -0.000006336223    -0.000003329782
      14        0.000012824232     0.000020271569     0.000019396559
      15        0.000019479018     0.000001107230     0.000001125248
      16       -0.000017271668    -0.000002359120     0.000000018742
      17        0.000013991882     0.000005551513    -0.000008065188

  **** Optimization is complete! (in 13 steps) ****
    Final optimized geometry and variables:
    Molecular point group: c1

    Geometry (in Angstrom), charge = 0, multiplicity = 1:

    O            0.667132038548     0.766118358007     0.871567167058
    C            0.391447145845    -0.198871671932     0.242129349606
    C           -0.975257457839    -0.829129345409     0.194198941668
    O            1.277486173713    -0.879104355700    -0.463751189498
    C           -2.163506588416     0.138449254329     0.262242769782
    H           -1.058725760691    -1.500255165488    -0.649093071620
    H           -1.008258643956    -1.478177969066     1.066293753692
    C           -2.062984775546     1.374142144511    -0.624791426138
    H           -2.359484881292     0.406559154868     1.292996594150
    H           -3.034625886811    -0.434465198851    -0.042153459091
    H           -1.267921407701     2.031557098064    -0.303860712675
    H           -2.991997467472     1.931301692375    -0.598592169100
    H           -1.877856666512     1.095925972796    -1.658123318125
    C            2.616143670939    -0.425212833159    -0.433106554066
    H            2.686047834764     0.580787572216    -0.819029280239
    H            3.174094805319    -1.103620851479    -1.057775652398
    H            3.001689341807    -0.443440825869     0.575445874499

  Mulliken Charges: (a.u.)
   Center  Symbol    Alpha    Beta     Spin     Total
       1     O     4.20393  4.20393  0.00000 -0.40786
       2     C     2.79996  2.79996  0.00000  0.40008
       3     C     3.10494  3.10494  0.00000 -0.20988
       4     O     4.14556  4.14556  0.00000 -0.29113
       5     C     3.07934  3.07934  0.00000 -0.15869
       6     H     0.43540  0.43540  0.00000  0.12920
       7     H     0.44119  0.44119  0.00000  0.11763
       8     C     3.15874  3.15874  0.00000 -0.31748
       9     H     0.44788  0.44788  0.00000  0.10425
      10     H     0.45110  0.45110  0.00000  0.09779
      11     H     0.43926  0.43926  0.00000  0.12148
      12     H     0.44817  0.44817  0.00000  0.10365
      13     H     0.45601  0.45601  0.00000  0.08798
      14     C     3.03512  3.03512  0.00000 -0.07024
      15     H     0.45391  0.45391  0.00000  0.09218
      16     H     0.44509  0.44509  0.00000  0.10983
      17     H     0.45441  0.45441  0.00000  0.09119

   Total alpha = 28.00000, Total beta = 28.00000, Total charge = -0.00000

*** Psi4 exiting successfully. Buy a developer a beer!
