  ==> Input File <==

--------------------------------------------------------------------------
set {
	reference rhf
	basis 6-31G*
}

set_num_threads( 1 )
memory 2 gb

molecule MOL {
0 1

H	 -5.864115	 -2.109429	 2.402685
O	 -5.769094	 -2.363382	 3.309079
C	 -4.778685	 -3.353515	 3.422127
C	 -3.365365	 -2.814765	 3.229766
H	 -4.882026	 -3.760600	 4.419763
H	 -4.969268	 -4.164963	 2.720693
C	 -3.097416	 -2.256099	 1.830136
H	 -3.187363	 -2.040845	 3.971878
H	 -2.663942	 -3.621073	 3.437706
C	 -1.655193	 -1.773200	 1.652316
H	 -3.781568	 -1.434620	 1.636555
H	 -3.311107	 -3.024172	 1.086671
C	 -1.309753	 -1.282496	 0.241564
H	 -1.452495	 -0.979465	 2.369076
H	 -0.982919	 -2.589850	 1.906938
C	 -2.037799	 -0.007733	 -0.193645
H	 -0.237730	 -1.102353	 0.195388
H	 -1.513294	 -2.076728	 -0.475098
C	 -3.489788	 0.042957	 0.286558
H	 -2.017067	 0.064384	 -1.280144
H	 -1.513726	 0.868678	 0.179924
C	 -4.216917	 1.317354	 -0.141063
H	 -4.025645	 -0.823308	 -0.095450
H	 -3.513059	 -0.038752	 1.371301
H	 -4.239342	 1.411634	 -1.223113
H	 -5.243387	 1.322503	 0.212445
H	 -3.726170	 2.201406	 0.256408

	symmetry c1
}
set optking {
	frozen_dihedral = ("
		14 10 7 4,
		14 10 13 16,
		10 7 4 8,
		8 4 3 2,
		20 16 19 22,
		4 3 2 1
	")
}

ee = energy('scf')
oeprop('DIPOLE', 'QUADRUPOLE', 'MULLIKEN_CHARGES')
f=open( 'psi4out.xyz', 'w' )
f.write( "27  " )
f.write( str(ee) + "\n" )
f.write( MOL.save_string_xyz() )
f.close()
--------------------------------------------------------------------------

    Molecular point group: c1

    Geometry (in Angstrom), charge = 0, multiplicity = 1:

       Center              X                  Y                   Z               Mass
    ------------   -----------------  -----------------  -----------------  -----------------
           H         -2.504098027127    -0.715492759002     0.864784345743     1.007825032070
           O         -2.409077027127    -0.969445759002     1.771178345743    15.994914619560
           C         -1.418668027127    -1.959578759002     1.884226345743    12.000000000000
           C         -0.005348027127    -1.420828759002     1.691865345743    12.000000000000
           H         -1.522009027127    -2.366663759002     2.881862345743     1.007825032070
           H         -1.609251027127    -2.771026759002     1.182792345743     1.007825032070
           C          0.262600972873    -0.862162759002     0.292235345743    12.000000000000
           H          0.172653972873    -0.646908759002     2.433977345743     1.007825032070
           H          0.696074972873    -2.227136759002     1.899805345743     1.007825032070
           C          1.704823972873    -0.379263759002     0.114415345743    12.000000000000
           H         -0.421551027127    -0.040683759002     0.098654345743     1.007825032070
           H          0.048909972873    -1.630235759002    -0.451229654257     1.007825032070
           C          2.050263972873     0.111440240998    -1.296336654257    12.000000000000
           H          1.907521972873     0.414471240998     0.831175345743     1.007825032070
           H          2.377097972873    -1.195913759002     0.369037345743     1.007825032070
           C          1.322217972873     1.386203240998    -1.731545654257    12.000000000000
           H          3.122286972873     0.291583240998    -1.342512654257     1.007825032070
           H          1.846722972873    -0.682791759002    -2.012998654257     1.007825032070
           C         -0.129771027127     1.436893240998    -1.251342654257    12.000000000000
           H          1.342949972873     1.458320240998    -2.818044654257     1.007825032070
           H          1.846290972873     2.262614240998    -1.357976654257     1.007825032070
           C         -0.856900027127     2.711290240998    -1.678963654257    12.000000000000
           H         -0.665628027127     0.570628240998    -1.633350654257     1.007825032070
           H         -0.153042027127     1.355184240998    -0.166599654257     1.007825032070
           H         -0.879325027127     2.805570240998    -2.761013654257     1.007825032070
           H         -1.883370027127     2.716439240998    -1.325455654257     1.007825032070
           H         -0.366153027127     3.595342240998    -1.281492654257     1.007825032070

  Charge       = 0
  Multiplicity = 1
  Basis Set: 6-31G*
  Basis Set:

    Orbital Energies (a.u.)
    -----------------------

    Doubly Occupied:

       1A    -20.552052     2A    -11.265693     3A    -11.217157
       4A    -11.216512     5A    -11.215994     6A    -11.215664
       7A    -11.211982     8A    -11.209371     9A    -11.208976
      10A     -1.358590    11A     -1.103107    12A     -1.055407
      13A     -1.010538    14A     -0.952041    15A     -0.893068
      16A     -0.837294    17A     -0.785610    18A     -0.779856
      19A     -0.693125    20A     -0.665611    21A     -0.625184
      22A     -0.618912    23A     -0.600617    24A     -0.587129
      25A     -0.576145    26A     -0.569044    27A     -0.538057
      28A     -0.519443    29A     -0.506952    30A     -0.504705
      31A     -0.499673    32A     -0.474867    33A     -0.461497
      34A     -0.457339    35A     -0.445996    36A     -0.426991
      37A     -0.419701

  @DF-RHF Final Energy:  -388.24910478213678

   => Energetics <=

    Nuclear Repulsion Energy =            483.8900167270713837
    One-Electron Energy =               -1485.7193437611608715
    Two-Electron Energy =                 613.5802222519512270
    DFT Exchange-Correlation Energy =       0.0000000000000000
    Empirical Dispersion Energy =           0.0000000000000000
    PCM Polarization Energy =               0.0000000000000000
    EFP Energy =                            0.0000000000000000
    Total Energy =                       -388.2491047821382608

  Mulliken Charges: (a.u.)
   Center  Symbol    Alpha    Beta     Spin     Total
       1     H     0.27942  0.27942  0.00000  0.44116
       2     O     4.37116  4.37116  0.00000 -0.74231
       3     C     2.99747  2.99747  0.00000  0.00506
       4     C     3.15914  3.15914  0.00000 -0.31827
       5     H     0.41468  0.41468  0.00000  0.17065
       6     H     0.43221  0.43221  0.00000  0.13559
       7     C     3.16483  3.16483  0.00000 -0.32967
       8     H     0.41743  0.41743  0.00000  0.16515
       9     H     0.42574  0.42574  0.00000  0.14851
      10     C     3.15862  3.15862  0.00000 -0.31724
      11     H     0.42087  0.42087  0.00000  0.15825
      12     H     0.42703  0.42703  0.00000  0.14593
      13     C     3.15491  3.15491  0.00000 -0.30982
      14     H     0.42208  0.42208  0.00000  0.15585
      15     H     0.41927  0.41927  0.00000  0.16145
      16     C     3.14758  3.14758  0.00000 -0.29515
      17     H     0.41916  0.41916  0.00000  0.16168
      18     H     0.42327  0.42327  0.00000  0.15346
      19     C     3.16973  3.16973  0.00000 -0.33946
      20     H     0.42108  0.42108  0.00000  0.15783
      21     H     0.42199  0.42199  0.00000  0.15603
      22     C     3.23609  3.23609  0.00000 -0.47217
      23     H     0.42174  0.42174  0.00000  0.15652
      24     H     0.41059  0.41059  0.00000  0.17881
      25     H     0.42228  0.42228  0.00000  0.15544
      26     H     0.42057  0.42057  0.00000  0.15886
      27     H     0.42107  0.42107  0.00000  0.15786

   Total alpha = 37.00000, Total beta = 37.00000, Total charge = -0.00000
