                              Psi4 1.0.54 Driver

  ==> Input File <==

--------------------------------------------------------------------------
set {
	reference rhf
	basis cc-pvtz
}

set_num_threads( 4 )
memory 2 gb

molecule MOL {
0 1

H	 -2.171709	 0.882708	 0.500286
C	 -2.016894	 0.001719	 -0.114152
O	 -0.775228	 0.000056	 -0.739966
H	 -2.760846	 0.003757	 -0.898169
H	 -2.174774	 -0.879864	 0.498643
C	 0.405869	 -0.035842	 0.036566
C	 1.526229	 -0.026516	 -0.997644
C	 0.514725	 1.199520	 0.932484
C	 0.479067	 -1.315891	 0.871258
H	 1.463625	 0.865699	 -1.607674
H	 1.439793	 -0.886740	 -1.649295
H	 2.497559	 -0.051110	 -0.518185
H	 0.396595	 2.101836	 0.344656
H	 1.486546	 1.228977	 1.410588
H	 -0.232428	 1.201559	 1.716270
H	 0.335742	 -2.184907	 0.240417
H	 1.449400	 -1.396098	 1.346546
H	 -0.268267	 -1.334798	 1.654649

	symmetry c1
}
set optking {
	frozen_dihedral = ("
		6 3 2 5
	")
}

ee,wfn = optimize('scf', return_wfn=True)
oeprop( wfn, 'DIPOLE', 'QUADRUPOLE', 'MULLIKEN_CHARGES')
f=open( 'psi4out.xyz', 'w' )
f.write( "18  " )
f.write( str(ee) + "\n" )
f.write( MOL.save_string_xyz() )
f.close()
--------------------------------------------------------------------------

    Molecular point group: c1
  Charge       = 0
  Multiplicity = 1
  Basis Set: CC-PVTZ
  Basis Set:
  @DF-RHF Final Energy:  -271.27675214239252
    Total Energy =                       -271.2767521423925245
    Molecular point group: c1
  Basis Set: CC-PVTZ
  Basis Set:
  Basis Set: CC-PVTZ
  Basis Set:
  @DF-RHF Final Energy:  -271.27674285224498
    Total Energy =                       -271.2767428522447517
  Basis Set: CC-PVTZ
  Basis Set:
  Basis Set: CC-PVTZ
  Basis Set:
  @DF-RHF Final Energy:  -271.27675537708382
    Total Energy =                       -271.2767553770839868
  Basis Set: CC-PVTZ
  Basis Set:
  Charge       = 0
  Multiplicity = 1
  Basis Set: CC-PVTZ
  Basis Set:

    Orbital Energies (a.u.)
    -----------------------

    Doubly Occupied:

       1A    -20.540642     2A    -11.280119     3A    -11.258038
       4A    -11.207228     5A    -11.206926     6A    -11.201794
       7A     -1.373663     8A     -1.074662     9A     -0.946729
      10A     -0.940839    11A     -0.913179    12A     -0.753504
      13A     -0.656653    14A     -0.646648    15A     -0.639410
      16A     -0.593883    17A     -0.575968    18A     -0.553315
      19A     -0.534324    20A     -0.524855    21A     -0.515068
      22A     -0.488246    23A     -0.487996    24A     -0.440782
      25A     -0.407715

  @DF-RHF Final Energy:  -271.27675549394900

   => Energetics <=

    Nuclear Repulsion Energy =            272.6683691162016316
    One-Electron Energy =                -908.3658762294145390
    Two-Electron Energy =                 364.4207516192639105
    DFT Exchange-Correlation Energy =       0.0000000000000000
    Empirical Dispersion Energy =           0.0000000000000000
    PCM Polarization Energy =               0.0000000000000000
    EFP Energy =                            0.0000000000000000
    Total Energy =                       -271.2767554939489401
    Molecular point group: c1
  Basis Set: CC-PVTZ
  Basis Set:

  -Total Gradient:
     Atom            X                  Y                   Z
    ------   -----------------  -----------------  -----------------
       1        0.000013452612     0.000003555624     0.000011599812
       2       -0.000054528017    -0.000096704223    -0.000060581340
       3        0.000013883480     0.000041668853     0.000012434124
       4        0.000015359798     0.000003381690     0.000003056502
       5        0.000024692098     0.000049643097     0.000040781747
       6        0.000000867541    -0.000014541444     0.000002119801
       7        0.000000097285    -0.000021815263    -0.000006471210
       8        0.000023582126     0.000018667021     0.000023561094
       9       -0.000033108556     0.000018478587    -0.000035092797
      10       -0.000006665103     0.000003429414     0.000020172553
      11        0.000006637386     0.000004652361    -0.000020631158
      12       -0.000002556220    -0.000020723834    -0.000000937114
      13        0.000010549623    -0.000002583519    -0.000011544772
      14       -0.000011448836     0.000007208582     0.000015658483
      15       -0.000023764986     0.000002013522     0.000004792850
      16       -0.000004623321    -0.000006373959     0.000004843824
      17        0.000017533855     0.000012497589    -0.000007158422
      18        0.000010039235    -0.000002454097     0.000003396022

  **** Optimization is complete! (in 4 steps) ****
    Final optimized geometry and variables:
    Molecular point group: c1

    Geometry (in Angstrom), charge = 0, multiplicity = 1:

    H           -2.165744764412     0.931177711298     0.484652392107
    C           -2.016545954813     0.038179554521    -0.113683253800
    O           -0.775140218075     0.019210687510    -0.739829542681
    H           -2.760858035795     0.030033858652    -0.897266377706
    H           -2.179041998148    -0.830835347762     0.515526143826
    C            0.406076194782    -0.007821122277     0.036903913270
    C            1.526517694424     0.006947481011    -0.997169952150
    C            0.507817835425     1.228356740290     0.932463579605
    C            0.486304025670    -1.287273108863     0.871928438780
    H            1.462204654183     0.900856649823    -1.604524220771
    H            1.441855989087    -0.851485524155    -1.651404397586
    H            2.497846620002    -0.017260920333    -0.517700361380
    H            0.386004796538     2.130130630132     0.344489296267
    H            1.478931864211     1.262679524820     1.411599555220
    H           -0.240348177893     1.226668442950     1.715350579305
    H            0.348054583315    -2.156928542506     0.240914662990
    H            1.456934544500    -1.361950863811     1.347600588358
    H           -0.261038137292    -1.310661181493     1.655137464567

  Mulliken Charges: (a.u.)
   Center  Symbol    Alpha    Beta     Spin     Total
       1     H     0.46956  0.46956  0.00000  0.06088
       2     C     3.04426  3.04426  0.00000 -0.08852
       3     O     4.18983  4.18983  0.00000 -0.37965
       4     H     0.44023  0.44023  0.00000  0.11953
       5     H     0.47001  0.47001  0.00000  0.05998
       6     C     2.87280  2.87280  0.00000  0.25439
       7     C     3.14153  3.14153  0.00000 -0.28306
       8     C     3.16501  3.16501  0.00000 -0.33002
       9     C     3.16389  3.16389  0.00000 -0.32779
      10     H     0.44893  0.44893  0.00000  0.10213
      11     H     0.44870  0.44870  0.00000  0.10261
      12     H     0.45938  0.45938  0.00000  0.08124
      13     H     0.44506  0.44506  0.00000  0.10989
      14     H     0.44817  0.44817  0.00000  0.10366
      15     H     0.44941  0.44941  0.00000  0.10118
      16     H     0.44518  0.44518  0.00000  0.10963
      17     H     0.44861  0.44861  0.00000  0.10277
      18     H     0.44943  0.44943  0.00000  0.10114

   Total alpha = 25.00000, Total beta = 25.00000, Total charge =  0.00000

*** Psi4 exiting successfully. Buy a developer a beer!
