  ==> Input File <==

--------------------------------------------------------------------------
set {
	reference rhf
	basis 6-31G*
}

set_num_threads( 4 )
memory 2 gb

molecule MOL {
0 1

H	 -2.520069	 -0.158526	 -0.706361
O	 -2.035884	 -0.060112	 0.102722
C	 -0.955155	 0.788182	 -0.092531
C	 0.353668	 0.040312	 -0.004810
H	 -0.985057	 1.290372	 -1.054184
H	 -0.974469	 1.533190	 0.688632
F	 0.394464	 -0.937475	 -0.903053
F	 1.368604	 0.853376	 -0.249821
F	 0.546173	 -0.502608	 1.179981

	symmetry c1
}
set optking {
	frozen_dihedral = ("
		1 2 3 5
	")
}

ee = optimize('scf')
oeprop('DIPOLE', 'QUADRUPOLE', 'MULLIKEN_CHARGES')
f=open( 'psi4out.xyz', 'w' )
f.write( "9  " )
f.write( str(ee) + "\n" )
f.write( MOL.save_string_xyz() )
f.close()
--------------------------------------------------------------------------

    Molecular point group: c1
  Charge       = 0
  Multiplicity = 1
  Basis Set: 6-31G*
  Basis Set:
  @DF-RHF Final Energy:  -450.66000856897165
    Total Energy =                       -450.6600085689716479
    Molecular point group: c1
  Basis Set: 6-31G*
  Basis Set:
  Basis Set: 6-31G*
  Basis Set:
  @DF-RHF Final Energy:  -450.66042331903873
    Total Energy =                       -450.6604233190387276
  Basis Set: 6-31G*
  Basis Set:
  Basis Set: 6-31G*
  Basis Set:
  @DF-RHF Final Energy:  -450.66053727815569
    Total Energy =                       -450.6605372781561414
  Basis Set: 6-31G*
  Basis Set:
  Basis Set: 6-31G*
  Basis Set:
  @DF-RHF Final Energy:  -450.66054146735763
    Total Energy =                       -450.6605414673573478
  Basis Set: 6-31G*
  Basis Set:
  Charge       = 0
  Multiplicity = 1
  Basis Set: 6-31G*
  Basis Set:

    Orbital Energies (a.u.)
    -----------------------

    Doubly Occupied:

       1A    -26.337505     2A    -26.335318     3A    -26.333457
       4A    -20.589630     5A    -11.494705     6A    -11.310122
       7A     -1.733957     8A     -1.632161     9A     -1.630718
      10A     -1.401298    11A     -1.047104    12A     -0.918522
      13A     -0.825051    14A     -0.823384    15A     -0.790318
      16A     -0.736366    17A     -0.706074    18A     -0.696057
      19A     -0.661607    20A     -0.651500    21A     -0.635971
      22A     -0.631858    23A     -0.598441    24A     -0.533736
      25A     -0.478777

  @DF-RHF Final Energy:  -450.66054193045039

   => Energetics <=

    Nuclear Repulsion Energy =            276.8208226859764522
    One-Electron Energy =               -1175.8954532101531640
    Two-Electron Energy =                 448.4140885937263761
    DFT Exchange-Correlation Energy =       0.0000000000000000
    Empirical Dispersion Energy =           0.0000000000000000
    PCM Polarization Energy =               0.0000000000000000
    EFP Energy =                            0.0000000000000000
    Total Energy =                       -450.6605419304502789
    Molecular point group: c1
  Basis Set: 6-31G*
  Basis Set:

  -Total Gradient:
     Atom            X                  Y                   Z
    ------   -----------------  -----------------  -----------------
       1       -0.001296303569     0.001701996194     0.000451087305
       2        0.001906972681    -0.002538502663    -0.000816395411
       3       -0.001640263414     0.002279036391     0.001095575183
       4        0.000042685695     0.000127819495     0.000097641301
       5        0.001007052552    -0.001466532785    -0.000738139314
       6        0.000005700211    -0.000009307559    -0.000012590463
       7        0.000012060598    -0.000009204823    -0.000025432102
       8       -0.000036313367    -0.000075037972    -0.000028089982
       9       -0.000001591388    -0.000010266282    -0.000023656518

  **** Optimization is complete! (in 5 steps) ****
    Final optimized geometry and variables:
    Molecular point group: c1

    Geometry (in Angstrom), charge = 0, multiplicity = 1:

    H           -2.499028279946    -0.205737522071    -0.676073610456
    O           -2.017280110367    -0.062467388070     0.124466579326
    C           -0.945714211115     0.796649232979    -0.095496231348
    C            0.352288953459     0.029711689899    -0.011165070949
    H           -0.973123692331     1.261842803149    -1.073817867991
    H           -0.932371937486     1.568064056873     0.662300047547
    F            0.415676378192    -0.913467534596    -0.936912264088
    F            1.375154462997     0.851407688893    -0.205234350619
    F            0.516011220999    -0.546510987683     1.162422275901

  Mulliken Charges: (a.u.)
   Center  Symbol    Alpha    Beta     Spin     Total
       1     H     0.27079  0.27079  0.00000  0.45843
       2     O     4.36242  4.36242  0.00000 -0.72485
       3     C     3.05776  3.05776  0.00000 -0.11552
       4     C     2.45629  2.45629  0.00000  1.08743
       5     H     0.40960  0.40960  0.00000  0.18081
       6     H     0.40014  0.40014  0.00000  0.19971
       7     F     4.68224  4.68224  0.00000 -0.36449
       8     F     4.68471  4.68471  0.00000 -0.36942
       9     F     4.67605  4.67605  0.00000 -0.35210

   Total alpha = 25.00000, Total beta = 25.00000, Total charge = -0.00000
