  ==> Input File <==

--------------------------------------------------------------------------
set {
	reference rhf
	basis 6-31G*
}

set_num_threads( 1 )
memory 2 gb

molecule MOL {
0 1

O	 1.846825	 1.296220	 0.000415
C	 1.705091	 0.115954	 0.001797
C	 0.381791	 -0.609817	 0.001258
O	 2.721346	 -0.737485	 -0.000216
C	 -0.823008	 0.326187	 0.001381
H	 0.371250	 -1.265087	 -0.865474
H	 0.370908	 -1.265746	 0.867490
C	 -1.382381	 0.552038	 1.406783
H	 -1.595108	 -0.084732	 -0.641422
H	 -0.537799	 1.276281	 -0.439397
C	 -2.592122	 1.488009	 1.425358
H	 -1.663192	 -0.404691	 1.844745
H	 -0.602758	 0.961934	 2.047139
C	 -3.149834	 1.714254	 2.830001
H	 -3.372843	 1.078650	 0.788145
H	 -2.312958	 2.444448	 0.988977
H	 -3.470304	 0.778972	 3.280291
H	 -4.005762	 2.381671	 2.810156
H	 -2.401779	 2.155237	 3.482885
C	 4.024888	 -0.184556	 -0.001949
H	 4.179030	 0.422472	 -0.882452
H	 4.701782	 -1.024608	 -0.003642
H	 4.181981	 0.421185	 0.878906

	symmetry c1
}
set optking {
	frozen_dihedral = ("
		15 11 8 12,
		9 5 8 12,
		1 2 3 6,
		1 2 4 20
	")
}

ee = energy('scf')
oeprop('DIPOLE', 'QUADRUPOLE', 'MULLIKEN_CHARGES')
f=open( 'psi4out.xyz', 'w' )
f.write( "23  " )
f.write( str(ee) + "\n" )
f.write( MOL.save_string_xyz() )
f.close()
--------------------------------------------------------------------------

    Molecular point group: c1

    Geometry (in Angstrom), charge = 0, multiplicity = 1:

       Center              X                  Y                   Z               Mass
    ------------   -----------------  -----------------  -----------------  -----------------
           O          1.502204832109     0.852717789603    -0.631762125321    15.994914619560
           C          1.360470832109    -0.327548210397    -0.630380125321    12.000000000000
           C          0.037170832109    -1.053319210397    -0.630919125321    12.000000000000
           O          2.376725832109    -1.180987210397    -0.632393125321    15.994914619560
           C         -1.167628167891    -0.117315210397    -0.630796125321    12.000000000000
           H          0.026629832109    -1.708589210397    -1.497651125321     1.007825032070
           H          0.026287832109    -1.709248210397     0.235312874679     1.007825032070
           C         -1.727001167891     0.108535789603     0.774605874679    12.000000000000
           H         -1.939728167891    -0.528234210397    -1.273599125321     1.007825032070
           H         -0.882419167891     0.832778789603    -1.071574125321     1.007825032070
           C         -2.936742167891     1.044506789603     0.793180874679    12.000000000000
           H         -2.007812167891    -0.848193210397     1.212567874679     1.007825032070
           H         -0.947378167891     0.518431789603     1.414961874679     1.007825032070
           C         -3.494454167891     1.270751789603     2.197823874679    12.000000000000
           H         -3.717463167891     0.635147789603     0.155967874679     1.007825032070
           H         -2.657578167891     2.000945789603     0.356799874679     1.007825032070
           H         -3.814924167891     0.335469789603     2.648113874679     1.007825032070
           H         -4.350382167891     1.938168789603     2.177978874679     1.007825032070
           H         -2.746399167891     1.711734789603     2.850707874679     1.007825032070
           C          3.680267832109    -0.628058210397    -0.634126125321    12.000000000000
           H          3.834409832109    -0.021030210397    -1.514629125321     1.007825032070
           H          4.357161832109    -1.468110210397    -0.635819125321     1.007825032070
           H          3.837360832109    -0.022317210397     0.246728874679     1.007825032070

  Charge       = 0
  Multiplicity = 1
  Basis Set: 6-31G*
  Basis Set:

    Orbital Energies (a.u.)
    -----------------------

    Doubly Occupied:

       1A    -20.604384     2A    -20.546462     3A    -11.372968
       4A    -11.281292     5A    -11.234475     6A    -11.216617
       7A    -11.214327     8A    -11.213270     9A    -11.207044
      10A     -1.470118    11A     -1.363853    12A     -1.091487
      13A     -1.041750    14A     -0.986229    15A     -0.930210
      16A     -0.843215    17A     -0.794207    18A     -0.766526
      19A     -0.703761    20A     -0.680875    21A     -0.672485
      22A     -0.639187    23A     -0.613794    24A     -0.599313
      25A     -0.569266    26A     -0.556389    27A     -0.552686
      28A     -0.531233    29A     -0.523043    30A     -0.500066
      31A     -0.488162    32A     -0.467576    33A     -0.463437
      34A     -0.456216    35A     -0.450008    36A     -0.439358

  @DF-RHF Final Energy:  -422.97339906898253

   => Energetics <=

    Nuclear Repulsion Energy =            459.2570521766512002
    One-Electron Energy =               -1486.2904424668477077
    Two-Electron Energy =                 604.0599912212177287
    DFT Exchange-Correlation Energy =       0.0000000000000000
    Empirical Dispersion Energy =           0.0000000000000000
    PCM Polarization Energy =               0.0000000000000000
    EFP Energy =                            0.0000000000000000
    Total Energy =                       -422.9733990689788925

  Mulliken Charges: (a.u.)
   Center  Symbol    Alpha    Beta     Spin     Total
       1     O     4.28567  4.28567  0.00000 -0.57135
       2     C     2.60851  2.60851  0.00000  0.78298
       3     C     3.21055  3.21055  0.00000 -0.42110
       4     O     4.30630  4.30630  0.00000 -0.61260
       5     C     3.16023  3.16023  0.00000 -0.32046
       6     H     0.39745  0.39745  0.00000  0.20510
       7     H     0.39874  0.39874  0.00000  0.20252
       8     C     3.15444  3.15444  0.00000 -0.30889
       9     H     0.41940  0.41940  0.00000  0.16120
      10     H     0.39859  0.39859  0.00000  0.20282
      11     C     3.15254  3.15254  0.00000 -0.30508
      12     H     0.42545  0.42545  0.00000  0.14909
      13     H     0.41780  0.41780  0.00000  0.16440
      14     C     3.23959  3.23959  0.00000 -0.47917
      15     H     0.42387  0.42387  0.00000  0.15225
      16     H     0.41936  0.41936  0.00000  0.16127
      17     H     0.42272  0.42272  0.00000  0.15457
      18     H     0.41925  0.41925  0.00000  0.16149
      19     H     0.42074  0.42074  0.00000  0.15853
      20     C     3.09233  3.09233  0.00000 -0.18466
      21     H     0.40899  0.40899  0.00000  0.18202
      22     H     0.40837  0.40837  0.00000  0.18326
      23     H     0.40910  0.40910  0.00000  0.18181

   Total alpha = 36.00000, Total beta = 36.00000, Total charge =  0.00000
