  ==> Input File <==

--------------------------------------------------------------------------
set {
	reference rhf
	basis 6-31G*
}

set_num_threads( 4 )
memory 2 gb

molecule MOL {
0 1

O	 0.557120	 1.273517	 0.435775
C	 0.486307	 0.169203	 0.000779
C	 1.608116	 -0.841643	 0.000302
O	 -0.610159	 -0.328094	 -0.554256
C	 2.990107	 -0.200498	 -0.000684
H	 1.468623	 -1.481519	 -0.865924
H	 1.469683	 -1.481289	 0.866878
H	 3.129736	 0.423364	 -0.875135
H	 3.757882	 -0.966877	 -0.001197
H	 3.130964	 0.423383	 0.873533
C	 -1.753700	 0.517390	 -0.624058
C	 -2.860268	 -0.270235	 -1.292985
H	 -1.500797	 1.406796	 -1.184933
H	 -2.028455	 0.822220	 0.376532
H	 -2.567484	 -0.572742	 -2.291948
H	 -3.754910	 0.339496	 -1.367099
H	 -3.098154	 -1.160524	 -0.721976

	symmetry c1
}
set optking {
	frozen_dihedral = ("
		4 2 3 6
	")
}

ee = optimize('scf')
oeprop('DIPOLE', 'QUADRUPOLE', 'MULLIKEN_CHARGES')
f=open( 'psi4out.xyz', 'w' )
f.write( "17  " )
f.write( str(ee) + "\n" )
f.write( MOL.save_string_xyz() )
f.close()
--------------------------------------------------------------------------

    Molecular point group: c1
  Charge       = 0
  Multiplicity = 1
  Basis Set: 6-31G*
  Basis Set:
  @DF-RHF Final Energy:  -344.91120587240192
    Total Energy =                       -344.9112058724020926
    Molecular point group: c1
  Basis Set: 6-31G*
  Basis Set:
  Basis Set: 6-31G*
  Basis Set:
  @DF-RHF Final Energy:  -344.91122661481307
    Total Energy =                       -344.9112266148129038
  Basis Set: 6-31G*
  Basis Set:
  Basis Set: 6-31G*
  Basis Set:
  @DF-RHF Final Energy:  -344.91134117011524
    Total Energy =                       -344.9113411701153495
  Basis Set: 6-31G*
  Basis Set:
  Basis Set: 6-31G*
  Basis Set:
  @DF-RHF Final Energy:  -344.91139997765231
    Total Energy =                       -344.9113999776520814
  Basis Set: 6-31G*
  Basis Set:
  Basis Set: 6-31G*
  Basis Set:
  @DF-RHF Final Energy:  -344.91141089633982
    Total Energy =                       -344.9114108963398166
  Basis Set: 6-31G*
  Basis Set:
  Charge       = 0
  Multiplicity = 1
  Basis Set: 6-31G*
  Basis Set:

    Orbital Energies (a.u.)
    -----------------------

    Doubly Occupied:

       1A    -20.601982     2A    -20.543084     3A    -11.371300
       4A    -11.284826     5A    -11.237159     6A    -11.222420
       7A    -11.217249     8A     -1.467835     9A     -1.361462
      10A     -1.069846    11A     -1.032051    12A     -0.910536
      13A     -0.848368    14A     -0.773733    15A     -0.694935
      16A     -0.688813    17A     -0.665030    18A     -0.627136
      19A     -0.584634    20A     -0.573737    21A     -0.557572
      22A     -0.524798    23A     -0.522735    24A     -0.512148
      25A     -0.504122    26A     -0.491547    27A     -0.452597
      28A     -0.435122

  @DF-RHF Final Energy:  -344.91141130522607

   => Energetics <=

    Nuclear Repulsion Energy =            314.7101026856999511
    One-Electron Energy =               -1093.6894730504052404
    Two-Electron Energy =                 434.0679590594789374
    DFT Exchange-Correlation Energy =       0.0000000000000000
    Empirical Dispersion Energy =           0.0000000000000000
    PCM Polarization Energy =               0.0000000000000000
    EFP Energy =                            0.0000000000000000
    Total Energy =                       -344.9114113052264088
    Molecular point group: c1
  Basis Set: 6-31G*
  Basis Set:

  -Total Gradient:
     Atom            X                  Y                   Z
    ------   -----------------  -----------------  -----------------
       1        0.000014198879    -0.000008591067    -0.000008083009
       2       -0.000497493321    -0.000522636118     0.001276312385
       3        0.000890261599     0.000973071409    -0.001029340569
       4        0.000272100208     0.000288197134    -0.000917699985
       5       -0.000021967816    -0.000005591604    -0.000004174764
       6       -0.000657166445    -0.000689977520     0.000618763642
       7        0.000002485968    -0.000020852844    -0.000002126332
       8        0.000000143093    -0.000007350010    -0.000002213124
       9       -0.000012400526     0.000002959829     0.000003617843
      10        0.000007243802     0.000013713150     0.000007616696
      11       -0.000017386915    -0.000046418190     0.000117154940
      12        0.000012088346     0.000005742200    -0.000022013571
      13        0.000023346992    -0.000009066722    -0.000014131918
      14       -0.000020199455     0.000023725548    -0.000015756772
      15       -0.000008128872    -0.000008135171    -0.000010052617
      16        0.000003803405     0.000002426590    -0.000000957209
      17        0.000009071055     0.000008783386     0.000003084363

  **** Optimization is complete! (in 6 steps) ****
    Final optimized geometry and variables:
    Molecular point group: c1

    Geometry (in Angstrom), charge = 0, multiplicity = 1:

    O            0.519273410830     1.217745693422     0.711440767696
    C            0.443886550635     0.115797361843     0.269922172024
    C            1.564242339552    -0.897524776861     0.283129003770
    O           -0.656951247567    -0.375836772322    -0.279335010155
    C            2.945644044075    -0.252869079117     0.323237273486
    H            1.446027951144    -1.558128847615    -0.567079076197
    H            1.409327919390    -1.513274521823     1.166607182369
    H            3.126526652788     0.339641911705    -0.566935294242
    H            3.713937465328    -1.016244120606     0.381690129618
    H            3.041680474164     0.399790553561     1.181099335196
    C           -1.807345132850     0.462921659474    -0.309798153283
    C           -2.920533660645    -0.317900530875    -0.975718489816
    H           -1.569875867168     1.365638978276    -0.855677374222
    H           -2.065830210624     0.744467654160     0.701913384063
    H           -2.643772832573    -0.596866300135    -1.986073583130
    H           -3.820274283621     0.287140655231    -1.020799557536
    H           -3.142382924213    -1.221850020191    -0.419967093191

  Mulliken Charges: (a.u.)
   Center  Symbol    Alpha    Beta     Spin     Total
       1     O     4.28693  4.28693  0.00000 -0.57386
       2     C     2.60407  2.60407  0.00000  0.79186
       3     C     3.20651  3.20651  0.00000 -0.41303
       4     O     4.31276  4.31276  0.00000 -0.62553
       5     C     3.24159  3.24159  0.00000 -0.48318
       6     H     0.40074  0.40074  0.00000  0.19852
       7     H     0.40039  0.40039  0.00000  0.19921
       8     H     0.41449  0.41449  0.00000  0.17103
       9     H     0.41717  0.41717  0.00000  0.16567
      10     H     0.40405  0.40405  0.00000  0.19189
      11     C     3.00277  3.00277  0.00000 -0.00555
      12     C     3.24850  3.24850  0.00000 -0.49699
      13     H     0.40965  0.40965  0.00000  0.18070
      14     H     0.41047  0.41047  0.00000  0.17907
      15     H     0.41178  0.41178  0.00000  0.17644
      16     H     0.41625  0.41625  0.00000  0.16751
      17     H     0.41188  0.41188  0.00000  0.17624

   Total alpha = 28.00000, Total beta = 28.00000, Total charge = -0.00000
