  ==> Input File <==

--------------------------------------------------------------------------
set {
	reference rhf
	basis 6-31G*
}

set_num_threads( 1 )
memory 2 gb

molecule MOL {
0 1

O	 -2.439739	 -0.935931	 -0.423848
C	 -1.921153	 0.064240	 -0.045697
C	 -2.624470	 1.379923	 0.150949
O	 -0.632575	 0.154573	 0.251549
H	 -2.168117	 2.136577	 -0.476876
H	 -3.669540	 1.273223	 -0.098610
H	 -2.519365	 1.700893	 1.180846
C	 0.160891	 -1.019931	 0.106212
C	 1.589627	 -0.672828	 0.480843
H	 0.089836	 -1.367806	 -0.916050
H	 -0.238459	 -1.792301	 0.749618
C	 2.597830	 -0.887363	 -0.649600
H	 1.862323	 -1.289100	 1.335114
H	 1.623447	 0.360274	 0.816720
C	 4.028797	 -0.553928	 -0.229891
H	 2.550024	 -1.922837	 -0.980673
H	 2.317095	 -0.276861	 -1.501559
H	 4.723851	 -0.713080	 -1.048184
H	 4.350020	 -1.174167	 0.602213
H	 4.114704	 0.483852	 0.079484

	symmetry c1
}
set optking {
	frozen_dihedral = ("
		16 12 9 8,
		2 4 8 10,
		1 2 4 8
	")
}

ee = energy('scf')
oeprop('DIPOLE', 'QUADRUPOLE', 'MULLIKEN_CHARGES')
f=open( 'psi4out.xyz', 'w' )
f.write( "20  " )
f.write( str(ee) + "\n" )
f.write( MOL.save_string_xyz() )
f.close()
--------------------------------------------------------------------------

    Molecular point group: c1

    Geometry (in Angstrom), charge = 0, multiplicity = 1:

       Center              X                  Y                   Z               Mass
    ------------   -----------------  -----------------  -----------------  -----------------
           O         -2.525665672235    -0.631168819930    -0.378517863444    15.994914619560
           C         -2.007079672235     0.369002180070    -0.000366863444    12.000000000000
           C         -2.710396672235     1.684685180070     0.196279136556    12.000000000000
           O         -0.718501672235     0.459335180070     0.296879136556    15.994914619560
           H         -2.254043672235     2.441339180070    -0.431545863444     1.007825032070
           H         -3.755466672235     1.577985180070    -0.053279863444     1.007825032070
           H         -2.605291672235     2.005655180070     1.226176136556     1.007825032070
           C          0.074964327765    -0.715168819930     0.151542136556    12.000000000000
           C          1.503700327765    -0.368065819930     0.526173136556    12.000000000000
           H          0.003909327765    -1.063043819930    -0.870719863444     1.007825032070
           H         -0.324385672235    -1.487538819930     0.794948136556     1.007825032070
           C          2.511903327765    -0.582600819930    -0.604269863444    12.000000000000
           H          1.776396327765    -0.984337819930     1.380444136556     1.007825032070
           H          1.537520327765     0.665036180070     0.862050136556     1.007825032070
           C          3.942870327765    -0.249165819930    -0.184560863444    12.000000000000
           H          2.464097327765    -1.618074819930    -0.935342863444     1.007825032070
           H          2.231168327765     0.027901180070    -1.456228863444     1.007825032070
           H          4.637924327765    -0.408317819930    -1.002853863444     1.007825032070
           H          4.264093327765    -0.869404819930     0.647543136556     1.007825032070
           H          4.028777327765     0.788614180070     0.124814136556     1.007825032070

  Charge       = 0
  Multiplicity = 1
  Basis Set: 6-31G*
  Basis Set:

    Orbital Energies (a.u.)
    -----------------------

    Doubly Occupied:

       1A    -20.600922     2A    -20.543380     3A    -11.373473
       4A    -11.280667     5A    -11.232914     6A    -11.224649
       7A    -11.222499     8A    -11.214796     9A     -1.467141
      10A     -1.361457    11A     -1.086928    12A     -1.029103
      13A     -0.980898    14A     -0.880729    15A     -0.807630
      16A     -0.780527    17A     -0.689227    18A     -0.681834
      19A     -0.667549    20A     -0.633514    21A     -0.601190
      22A     -0.592951    23A     -0.570439    24A     -0.555017
      25A     -0.544601    26A     -0.521852    27A     -0.512973
      28A     -0.481694    29A     -0.480093    30A     -0.476108
      31A     -0.446757    32A     -0.436514

  @DF-RHF Final Energy:  -383.93945801189392

   => Energetics <=

    Nuclear Repulsion Energy =            380.4790455161834757
    One-Electron Energy =               -1276.8766340122115253
    Two-Electron Energy =                 512.4581304841346991
    DFT Exchange-Correlation Energy =       0.0000000000000000
    Empirical Dispersion Energy =           0.0000000000000000
    PCM Polarization Energy =               0.0000000000000000
    EFP Energy =                            0.0000000000000000
    Total Energy =                       -383.9394580118932936

  Mulliken Charges: (a.u.)
   Center  Symbol    Alpha    Beta     Spin     Total
       1     O     4.28358  4.28358  0.00000 -0.56716
       2     C     2.61989  2.61989  0.00000  0.76023
       3     C     3.28156  3.28156  0.00000 -0.56312
       4     O     4.30982  4.30982  0.00000 -0.61964
       5     H     0.40074  0.40074  0.00000  0.19851
       6     H     0.39701  0.39701  0.00000  0.20598
       7     H     0.40073  0.40073  0.00000  0.19855
       8     C     3.00133  3.00133  0.00000 -0.00266
       9     C     3.16971  3.16971  0.00000 -0.33943
      10     H     0.40783  0.40783  0.00000  0.18433
      11     H     0.40906  0.40906  0.00000  0.18187
      12     C     3.15863  3.15863  0.00000 -0.31726
      13     H     0.41772  0.41772  0.00000  0.16457
      14     H     0.40490  0.40490  0.00000  0.19020
      15     C     3.24083  3.24083  0.00000 -0.48167
      16     H     0.42082  0.42082  0.00000  0.15836
      17     H     0.41817  0.41817  0.00000  0.16366
      18     H     0.41722  0.41722  0.00000  0.16555
      19     H     0.42042  0.42042  0.00000  0.15916
      20     H     0.42001  0.42001  0.00000  0.15997

   Total alpha = 32.00000, Total beta = 32.00000, Total charge =  0.00000
