                              Psi4 1.0.54 Driver

  ==> Input File <==

--------------------------------------------------------------------------
set {
	reference rhf
	basis cc-pvtz
}

set_num_threads( 4 )
memory 2 gb

molecule MOL {
0 1

H	 -3.246047	 -0.431224	 -0.689220
O	 -2.658848	 -0.704215	 -0.000460
C	 -1.605397	 0.107680	 0.001145
C	 -0.310616	 -0.658853	 0.000791
O	 -1.718351	 1.284629	 -0.000627
C	 0.926581	 0.227233	 0.000178
H	 -0.327628	 -1.313681	 -0.864448
H	 -0.327041	 -1.313334	 0.866298
C	 2.220156	 -0.582071	 -0.000088
H	 0.899945	 0.878221	 -0.866390
H	 0.900542	 0.878581	 0.866486
C	 3.466689	 0.296012	 -0.000457
H	 2.239073	 -1.234095	 -0.869382
H	 2.239505	 -1.233985	 0.869270
H	 3.493549	 0.935857	 -0.875887
H	 4.368821	 -0.304526	 -0.001199
H	 3.494559	 0.935166	 0.875458

	symmetry c1
}
set optking {
	frozen_dihedral = ("
		1 2 3 5
	")
}

ee,wfn = optimize('scf', return_wfn=True)
oeprop( wfn, 'DIPOLE', 'QUADRUPOLE', 'MULLIKEN_CHARGES')
f=open( 'psi4out.xyz', 'w' )
f.write( "17  " )
f.write( str(ee) + "\n" )
f.write( MOL.save_string_xyz() )
f.close()
--------------------------------------------------------------------------

    Molecular point group: c1
  Charge       = 0
  Multiplicity = 1
  Basis Set: CC-PVTZ
  Basis Set:
  @DF-RHF Final Energy:  -345.03704838032832
    Total Energy =                       -345.0370483803284287
    Molecular point group: c1
  Basis Set: CC-PVTZ
  Basis Set:
  Basis Set: CC-PVTZ
  Basis Set:
  @DF-RHF Final Energy:  -345.03488465206556
    Total Energy =                       -345.0348846520655570
  Basis Set: CC-PVTZ
  Basis Set:
  Basis Set: CC-PVTZ
  Basis Set:
  @DF-RHF Final Energy:  -345.03805872486873
    Total Energy =                       -345.0380587248685060
  Basis Set: CC-PVTZ
  Basis Set:
  Basis Set: CC-PVTZ
  Basis Set:
  @DF-RHF Final Energy:  -345.03814688565376
    Total Energy =                       -345.0381468856538731
  Basis Set: CC-PVTZ
  Basis Set:
  Basis Set: CC-PVTZ
  Basis Set:
  @DF-RHF Final Energy:  -345.03815606009027
    Total Energy =                       -345.0381560600902731
  Basis Set: CC-PVTZ
  Basis Set:
  Basis Set: CC-PVTZ
  Basis Set:
  @DF-RHF Final Energy:  -345.03815830487696
    Total Energy =                       -345.0381583048770722
  Basis Set: CC-PVTZ
  Basis Set:
  Charge       = 0
  Multiplicity = 1
  Basis Set: CC-PVTZ
  Basis Set:

    Orbital Energies (a.u.)
    -----------------------

    Doubly Occupied:

       1A    -20.594255     2A    -20.546049     3A    -11.374107
       4A    -11.239248     5A    -11.221444     6A    -11.220815
       7A    -11.210912     8A     -1.468811     9A     -1.370283
      10A     -1.092631    11A     -1.018879    12A     -0.912666
      13A     -0.824377    14A     -0.792362    15A     -0.706794
      16A     -0.682839    17A     -0.667958    18A     -0.637380
      19A     -0.592253    20A     -0.587091    21A     -0.554713
      22A     -0.538635    23A     -0.511695    24A     -0.493724
      25A     -0.480834    26A     -0.475867    27A     -0.473090
      28A     -0.445788

  @DF-RHF Final Energy:  -345.03815841871665

   => Energetics <=

    Nuclear Repulsion Energy =            304.3321334535410188
    One-Electron Energy =               -1073.2695835041058672
    Two-Electron Energy =                 423.8992916318484276
    DFT Exchange-Correlation Energy =       0.0000000000000000
    Empirical Dispersion Energy =           0.0000000000000000
    PCM Polarization Energy =               0.0000000000000000
    EFP Energy =                            0.0000000000000000
    Total Energy =                       -345.0381584187164208
    Molecular point group: c1
  Basis Set: CC-PVTZ
  Basis Set:

  -Total Gradient:
     Atom            X                  Y                   Z
    ------   -----------------  -----------------  -----------------
       1        0.004306563946    -0.007091015281    -0.007422778875
       2       -0.004889248255     0.009068004116     0.013888241957
       3       -0.000351691464    -0.002332676808    -0.016441326847
       4        0.000017878300    -0.000088658944     0.000043105215
       5        0.000967160819     0.000475816509     0.009909757406
       6       -0.000019599661     0.000007243077     0.000020084694
       7        0.000009891207    -0.000023557132     0.000000684402
       8        0.000013133985    -0.000003831303     0.000012444125
       9       -0.000014993968    -0.000028223859    -0.000008517430
      10       -0.000004585228     0.000001920751    -0.000009285911
      11       -0.000002623843     0.000008493963     0.000005304134
      12       -0.000025219694     0.000015319341     0.000004388693
      13        0.000001607330    -0.000004202049    -0.000002807769
      14       -0.000000307937    -0.000002755254     0.000000368532
      15        0.000002344163     0.000001192237    -0.000002313213
      16       -0.000012994788    -0.000006851028     0.000001217465
      17        0.000002685083     0.000003781667     0.000001433420

  **** Optimization is complete! (in 7 steps) ****
    Final optimized geometry and variables:
    Molecular point group: c1

    Geometry (in Angstrom), charge = 0, multiplicity = 1:

    H           -3.352460963433    -0.479741679825    -0.469994481234
    O           -2.668267636180    -0.701888418729     0.140774446927
    C           -1.607483518460     0.113009804508    -0.019518638000
    C           -0.311112180888    -0.649902557233    -0.018749600965
    O           -1.715951543656     1.285385330451    -0.056972692722
    C            0.928429450841     0.231997880619    -0.011082917780
    H           -0.326568411978    -1.301665300481    -0.887580369825
    H           -0.334874620914    -1.311465825571     0.841195705401
    C            2.220146763472    -0.580275254363    -0.011972752635
    H            0.906282813206     0.888551059363    -0.873597431423
    H            0.901373344239     0.878159754084     0.859367085150
    C            3.468743984827     0.294740672243    -0.002982330420
    H            2.240362660961    -1.227077182329    -0.885211712399
    H            2.235036732687    -1.237444112964     0.853434144683
    H            3.500341196416     0.939429095590    -0.874723751214
    H            4.369396012611    -0.308011946533    -0.003788375628
    H            3.494943518763     0.928889077637     0.876587914418

  Mulliken Charges: (a.u.)
   Center  Symbol    Alpha    Beta     Spin     Total
       1     H     0.38143  0.38143  0.00000  0.23715
       2     O     4.17235  4.17235  0.00000 -0.34470
       3     C     2.80416  2.80416  0.00000  0.39168
       4     C     3.11084  3.11084  0.00000 -0.22168
       5     O     4.17528  4.17528  0.00000 -0.35056
       6     C     3.08370  3.08370  0.00000 -0.16739
       7     H     0.44294  0.44294  0.00000  0.11413
       8     H     0.43711  0.43711  0.00000  0.12578
       9     C     3.08570  3.08570  0.00000 -0.17141
      10     H     0.44638  0.44638  0.00000  0.10725
      11     H     0.44599  0.44599  0.00000  0.10803
      12     C     3.14917  3.14917  0.00000 -0.29834
      13     H     0.45521  0.45521  0.00000  0.08957
      14     H     0.45445  0.45445  0.00000  0.09109
      15     H     0.45383  0.45383  0.00000  0.09233
      16     H     0.44800  0.44800  0.00000  0.10401
      17     H     0.45347  0.45347  0.00000  0.09306

   Total alpha = 28.00000, Total beta = 28.00000, Total charge = -0.00000

*** Psi4 exiting successfully. Buy a developer a beer!
