  ==> Input File <==

--------------------------------------------------------------------------
set {
	reference rhf
	basis cc-pvtz
}

set_num_threads( 4 )
memory 2 gb

molecule MOL {
0 1

H	 -0.000342	 -0.223902	 -3.352295
C	 -0.027146	 0.371068	 -2.446756
C	 0.024493	 -0.518541	 -1.216015
H	 -0.932586	 0.964979	 -2.449855
H	 0.819708	 1.049865	 -2.473332
N	 -0.042516	 0.263377	 -0.000000
H	 -0.822211	 -1.197105	 -1.225584
H	 0.921114	 -1.142847	 -1.255206
C	 0.024493	 -0.518541	 1.216015
H	 0.682568	 0.950412	 -0.000000
C	 -0.525568	 0.257284	 2.401057
H	 -0.564166	 -1.418193	 1.069200
H	 1.042905	 -0.848538	 1.437740
H	 -1.551104	 0.553714	 2.219488
H	 -0.493427	 -0.343975	 3.302257
H	 0.056292	 1.155529	 2.583344

	symmetry c1
}
set optking {
	frozen_dihedral = ("
		12 9 6 3
	")
}

ee = optimize('scf')
oeprop('DIPOLE', 'QUADRUPOLE', 'MULLIKEN_CHARGES')
f=open( 'psi4out.xyz', 'w' )
f.write( "16  " )
f.write( str(ee) + "\n" )
f.write( MOL.save_string_xyz() )
f.close()
--------------------------------------------------------------------------

    Molecular point group: c1
  Charge       = 0
  Multiplicity = 1
  Basis Set: CC-PVTZ
  Basis Set:
  @DF-RHF Final Energy:  -212.39333233995478
    Total Energy =                       -212.3933323399546680
    Molecular point group: c1
  Basis Set: CC-PVTZ
  Basis Set:
  Basis Set: CC-PVTZ
  Basis Set:
  @DF-RHF Final Energy:  -212.39346869217837
    Total Energy =                       -212.3934686921783168
  Basis Set: CC-PVTZ
  Basis Set:
  Basis Set: CC-PVTZ
  Basis Set:
  @DF-RHF Final Energy:  -212.39348934585760
    Total Energy =                       -212.3934893458576880
  Basis Set: CC-PVTZ
  Basis Set:
  Charge       = 0
  Multiplicity = 1
  Basis Set: CC-PVTZ
  Basis Set:

    Orbital Energies (a.u.)
    -----------------------

    Doubly Occupied:

       1A    -15.527685     2A    -11.239439     3A    -11.239028
       4A    -11.206695     5A    -11.203746     6A     -1.205828
       7A     -1.028385     8A     -0.963874     9A     -0.833071
      10A     -0.821067    11A     -0.663918    12A     -0.628771
      13A     -0.602289    14A     -0.581067    15A     -0.556251
      16A     -0.522527    17A     -0.507821    18A     -0.489813
      19A     -0.481242    20A     -0.476467    21A     -0.358762

  @DF-RHF Final Energy:  -212.39349053661257

   => Energetics <=

    Nuclear Repulsion Energy =            189.3128850965152594
    One-Electron Energy =                -661.1372619743973473
    Two-Electron Energy =                 259.4308863412694564
    DFT Exchange-Correlation Energy =       0.0000000000000000
    Empirical Dispersion Energy =           0.0000000000000000
    PCM Polarization Energy =               0.0000000000000000
    EFP Energy =                            0.0000000000000000
    Total Energy =                       -212.3934905366126031
    Molecular point group: c1
  Basis Set: CC-PVTZ
  Basis Set:

  -Total Gradient:
     Atom            X                  Y                   Z
    ------   -----------------  -----------------  -----------------
       1        0.000003232444     0.000004221801    -0.000024583757
       2       -0.000018804135     0.000005019844    -0.000005724361
       3       -0.002335102621    -0.000292691901    -0.000083642285
       4        0.000006702026     0.000000555593     0.000002042820
       5       -0.000007339969    -0.000012201149     0.000006480002
       6        0.003937452196     0.000104989552    -0.000234519789
       7        0.000011513827     0.000042487389     0.000032303003
       8       -0.000015260204     0.000019986325     0.000022007964
       9       -0.004095884822     0.001589318233     0.001420528763
      10       -0.000002440232    -0.000018387544    -0.000009958510
      11        0.000024458413     0.000015704815    -0.000037030692
      12        0.002490682973    -0.001436298162    -0.001036145703
      13       -0.000010548066     0.000011815727    -0.000006674308
      14        0.000008943269    -0.000004891729    -0.000010713583
      15        0.000006491805    -0.000015201299    -0.000013970273
      16       -0.000004096904    -0.000014427495    -0.000020399291

  **** Optimization is complete! (in 4 steps) ****
    Final optimized geometry and variables:
    Molecular point group: c1

    Geometry (in Angstrom), charge = 0, multiplicity = 1:

    H            0.115372765826    -0.187997441575    -3.347487837007
    C            0.087300016272     0.400376240074    -2.437704700889
    C            0.128775816196    -0.498622348657    -1.213370571107
    H           -0.815410196267     0.998588167886    -2.440191076077
    H            0.937644139590     1.075033525768    -2.455570973613
    N            0.049155951734     0.276163283580     0.005815846749
    H           -0.718203221370    -1.175751502726    -1.234925981963
    H            1.026083012666    -1.122442562724    -1.253474132291
    C            0.115607183253    -0.496118581505     1.229890934164
    H            0.742226177894     0.994019326752     0.009144011944
    C           -0.415465936673     0.287798583165     2.417750301258
    H           -0.464123264531    -1.401058968579     1.086204117111
    H            1.132707178857    -0.834348672987     1.443885094526
    H           -1.447012182131     0.573124581214     2.254528482344
    H           -0.355477765332    -0.300536363491     3.326821874660
    H            0.160792230032     1.194490632506     2.571147493715

  Mulliken Charges: (a.u.)
   Center  Symbol    Alpha    Beta     Spin     Total
       1     H     0.45391  0.45391  0.00000  0.09218
       2     C     3.14299  3.14299  0.00000 -0.28598
       3     C     3.02055  3.02055  0.00000 -0.04110
       4     H     0.44959  0.44959  0.00000  0.10081
       5     H     0.45934  0.45934  0.00000  0.08132
       6     N     3.64023  3.64023  0.00000 -0.28045
       7     H     0.45870  0.45870  0.00000  0.08260
       8     H     0.47509  0.47509  0.00000  0.04982
       9     C     3.02808  3.02808  0.00000 -0.05616
      10     H     0.44243  0.44243  0.00000  0.11513
      11     C     3.13614  3.13614  0.00000 -0.27228
      12     H     0.45771  0.45771  0.00000  0.08458
      13     H     0.46850  0.46850  0.00000  0.06300
      14     H     0.45150  0.45150  0.00000  0.09699
      15     H     0.45667  0.45667  0.00000  0.08667
      16     H     0.45857  0.45857  0.00000  0.08286

   Total alpha = 21.00000, Total beta = 21.00000, Total charge = -0.00000
