  ==> Input File <==

--------------------------------------------------------------------------
set {
	reference rhf
	basis 6-31G*
}

set_num_threads( 4 )
memory 2 gb

molecule MOL {
0 1

H	 4.738664	 -0.524504	 2.882328
C	 4.248167	 -1.087041	 2.093983
C	 2.760847	 -0.745282	 2.014874
H	 4.751165	 -0.854906	 1.159934
H	 4.399429	 -2.143559	 2.298160
C	 2.036720	 -1.527119	 0.916611
H	 2.646749	 0.319032	 1.836493
H	 2.292090	 -0.955689	 2.974920
C	 0.542007	 -1.219308	 0.825221
H	 2.498368	 -1.319593	 -0.042273
H	 2.155597	 -2.592346	 1.101544
C	 0.219052	 0.162428	 0.275906
H	 0.058963	 -1.936532	 0.163383
H	 0.060156	 -1.341520	 1.792723
C	 -1.181045	 0.701995	 0.511084
O	 1.025697	 0.797316	 -0.334542
C	 -2.285934	 -0.139295	 -0.145128
H	 -1.200098	 1.713320	 0.123047
H	 -1.356408	 0.752884	 1.584090
C	 -3.651768	 0.085446	 0.506485
H	 -2.346596	 0.110469	 -1.202272
H	 -2.034737	 -1.195320	 -0.088721
C	 -4.759797	 -0.746382	 -0.137905
H	 -3.908762	 1.140117	 0.445781
H	 -3.588286	 -0.154158	 1.565709
H	 -4.868882	 -0.505166	 -1.191300
H	 -4.548009	 -1.809175	 -0.062213
H	 -5.715422	 -0.564821	 0.343442

	symmetry c1
}
set optking {
	frozen_dihedral = ("
		12 15 17 21
	")
}

ee = optimize('scf')
oeprop('DIPOLE', 'QUADRUPOLE', 'MULLIKEN_CHARGES')
f=open( 'psi4out.xyz', 'w' )
f.write( "28  " )
f.write( str(ee) + "\n" )
f.write( MOL.save_string_xyz() )
f.close()
--------------------------------------------------------------------------

    Molecular point group: c1
  Charge       = 0
  Multiplicity = 1
  Basis Set: 6-31G*
  Basis Set:
  @DF-RHF Final Energy:  -426.16691538522161
    Total Energy =                       -426.1669153852217278
    Molecular point group: c1
  Basis Set: 6-31G*
  Basis Set:
  Basis Set: 6-31G*
  Basis Set:
  @DF-RHF Final Energy:  -426.16557549391007
    Total Energy =                       -426.1655754939099552
  Basis Set: 6-31G*
  Basis Set:
  Basis Set: 6-31G*
  Basis Set:
  @DF-RHF Final Energy:  -426.16642408077996
    Total Energy =                       -426.1664240807801889
  Basis Set: 6-31G*
  Basis Set:
  Basis Set: 6-31G*
  Basis Set:
  @DF-RHF Final Energy:  -426.16724893794014
    Total Energy =                       -426.1672489379402577
  Basis Set: 6-31G*
  Basis Set:
  @DF-RHF Final Energy:  -426.16724765964955
    Total Energy =                       -426.1672476596493198
  @DF-RHF Final Energy:  -426.16729745777070
    Total Energy =                       -426.1672974577703599
  Basis Set: 6-31G*
  Basis Set:
  @DF-RHF Final Energy:  -426.16730842840389
    Total Energy =                       -426.1673084284036577
  Basis Set: 6-31G*
  Basis Set:
  Basis Set: 6-31G*
  Basis Set:
  @DF-RHF Final Energy:  -426.16731386623110
    Total Energy =                       -426.1673138662315523
  Basis Set: 6-31G*
  Basis Set:
  Basis Set: 6-31G*
  Basis Set:
  @DF-RHF Final Energy:  -426.16731495259069
    Total Energy =                       -426.1673149525911413
  Basis Set: 6-31G*
  Basis Set:
  Charge       = 0
  Multiplicity = 1
  Basis Set: 6-31G*
  Basis Set:

    Orbital Energies (a.u.)
    -----------------------

    Doubly Occupied:

       1A    -20.547413     2A    -11.322188     3A    -11.232126
       4A    -11.229960     5A    -11.229184     6A    -11.226435
       7A    -11.217076     8A    -11.216592     9A    -11.213652
      10A    -11.206550    11A     -1.392661    12A     -1.095086
      13A     -1.077806    14A     -1.022382    15A     -0.991003
      16A     -0.907502    17A     -0.874352    18A     -0.809881
      19A     -0.800299    20A     -0.722379    21A     -0.664965
      22A     -0.658546    23A     -0.624754    24A     -0.619828
      25A     -0.610860    26A     -0.588743    27A     -0.576986
      28A     -0.575512    29A     -0.543757    30A     -0.534060
      31A     -0.520516    32A     -0.508801    33A     -0.497312
      34A     -0.485074    35A     -0.478519    36A     -0.475453
      37A     -0.472281    38A     -0.466145    39A     -0.455250
      40A     -0.391943

  @DF-RHF Final Energy:  -426.16731518916049

   => Energetics <=

    Nuclear Repulsion Energy =            532.1656175999371499
    One-Electron Energy =               -1632.4982011114905163
    Two-Electron Energy =                 674.1652683223928761
    DFT Exchange-Correlation Energy =       0.0000000000000000
    Empirical Dispersion Energy =           0.0000000000000000
    PCM Polarization Energy =               0.0000000000000000
    EFP Energy =                            0.0000000000000000
    Total Energy =                       -426.1673151891604903
    Molecular point group: c1
  Basis Set: 6-31G*
  Basis Set:

  -Total Gradient:
     Atom            X                  Y                   Z
    ------   -----------------  -----------------  -----------------
       1       -0.000003526998    -0.000003213166     0.000003200594
       2        0.000001184668    -0.000007425550     0.000001443777
       3        0.000001633651    -0.000012034562     0.000005002469
       4       -0.000004942707     0.000002403740     0.000002410910
       5        0.000001281082    -0.000001869433    -0.000001689038
       6        0.000026298928    -0.000003142217     0.000003056261
       7        0.000013047212     0.000009721807    -0.000000095185
       8       -0.000006414214     0.000007338590    -0.000005214028
       9       -0.000027202079    -0.000005946634     0.000045984532
      10       -0.000014199463     0.000005593498     0.000002100386
      11        0.000010616275    -0.000000702867    -0.000000443363
      12       -0.000145502378    -0.001531988998     0.002402445801
      13        0.000001149863     0.000006718062    -0.000012379116
      14        0.000014864423    -0.000004423252    -0.000001105053
      15       -0.000425450672     0.002809882860    -0.003274360949
      16        0.000015031169     0.000016864307    -0.000011271172
      17        0.003026735531    -0.004081893914    -0.000041327493
      18        0.000012517791     0.000005808217     0.000010185230
      19       -0.000000683103    -0.000002164393     0.000011418792
      20        0.000009611447    -0.000007209197    -0.000011293828
      21       -0.002496796970     0.002811154836     0.000880505737
      22        0.000001527630    -0.000012643932    -0.000004400858
      23       -0.000012335028     0.000006271825    -0.000002252567
      24       -0.000000602618    -0.000005661398     0.000001203912
      25        0.000005262455    -0.000001359500    -0.000002167121
      26        0.000000177629    -0.000001691134    -0.000000887351
      27        0.000001614487     0.000002955611     0.000002805608
      28       -0.000004898021    -0.000001343207    -0.000002876884

  **** Optimization is complete! (in 10 steps) ****
    Final optimized geometry and variables:
    Molecular point group: c1

    Geometry (in Angstrom), charge = 0, multiplicity = 1:

    H            4.681118915621    -0.074487523206     2.422218828364
    C            4.278502324518    -0.636654052249     1.585357819068
    C            2.787768631314    -0.357546205814     1.398415867476
    H            4.840729826082    -0.358680669936     0.698843115344
    H            4.460782117377    -1.690681147644     1.776468759034
    C            2.186262985588    -1.139466545902     0.228561386264
    H            2.640716819556     0.705912827041     1.236991927082
    H            2.256379646715    -0.612909024833     2.313849675519
    C            0.688597325021    -0.898614008443     0.032770041830
    H            2.705890478986    -0.881722342354    -0.687231646392
    H            2.342517885092    -2.203024486688     0.393748539279
    C            0.348594830166     0.493444950606    -0.483320154865
    H            0.300559630759    -1.604506766402    -0.699445309031
    H            0.141138746275    -1.091702077793     0.952031481820
    C           -1.040568650038     1.034896275951    -0.194592233308
    O            1.146725526971     1.139094028499    -1.093856153307
    C           -2.194474000254     0.190346469945    -0.763108456294
    H           -1.085912149667     2.047584887981    -0.574620311767
    H           -1.139042335640     1.085268515078     0.889174750964
    C           -3.524924426907     0.483474398381    -0.063277321596
    H           -2.308827337068     0.418739039192    -1.819560018309
    H           -1.979056806782    -0.870571607885    -0.682291620928
    C           -4.696965228039    -0.285607178423    -0.670833768762
    H           -3.728198578593     1.550885770159    -0.111578661393
    H           -3.437327283781     0.236179431437     0.992414724920
    H           -4.834379672133    -0.029242970427    -1.717291500204
    H           -4.535371397073    -1.358334967482    -0.612062432064
    H           -5.623360412242    -0.062198637681    -0.151356705586

  Mulliken Charges: (a.u.)
   Center  Symbol    Alpha    Beta     Spin     Total
       1     H     0.41923  0.41923  0.00000  0.16154
       2     C     3.24005  3.24005  0.00000 -0.48010
       3     C     3.15666  3.15666  0.00000 -0.31332
       4     H     0.41811  0.41811  0.00000  0.16379
       5     H     0.42332  0.42332  0.00000  0.15337
       6     C     3.14957  3.14957  0.00000 -0.29914
       7     H     0.41202  0.41202  0.00000  0.17596
       8     H     0.42738  0.42738  0.00000  0.14524
       9     C     3.21146  3.21146  0.00000 -0.42293
      10     H     0.40543  0.40543  0.00000  0.18915
      11     H     0.42172  0.42172  0.00000  0.15656
      12     C     2.73068  2.73068  0.00000  0.53864
      13     H     0.40282  0.40282  0.00000  0.19436
      14     H     0.41415  0.41415  0.00000  0.17171
      15     C     3.20371  3.20371  0.00000 -0.40743
      16     O     4.26710  4.26710  0.00000 -0.53420
      17     C     3.16333  3.16333  0.00000 -0.32665
      18     H     0.39855  0.39855  0.00000  0.20290
      19     H     0.41300  0.41300  0.00000  0.17401
      20     C     3.15297  3.15297  0.00000 -0.30593
      21     H     0.41249  0.41249  0.00000  0.17502
      22     H     0.41689  0.41689  0.00000  0.16621
      23     C     3.24044  3.24044  0.00000 -0.48088
      24     H     0.41924  0.41924  0.00000  0.16153
      25     H     0.42196  0.42196  0.00000  0.15608
      26     H     0.41964  0.41964  0.00000  0.16072
      27     H     0.42115  0.42115  0.00000  0.15769
      28     H     0.41695  0.41695  0.00000  0.16609

   Total alpha = 40.00000, Total beta = 40.00000, Total charge = -0.00000
