                              Psi4 1.0.54 Driver

  ==> Input File <==

--------------------------------------------------------------------------
set {
	reference rhf
	basis cc-pvtz
}

set_num_threads( 4 )
memory 2 gb

molecule MOL {
0 1

H	 -2.698799	 -0.000846	 0.036018
C	 -1.694291	 -0.000483	 0.434279
O	 -0.828718	 -0.000608	 -0.655022
H	 -1.576855	 0.881100	 1.056504
H	 -1.576401	 -0.881658	 1.057001
C	 -1.312588	 -0.422393	 -1.906359
C	 -1.728077	 -1.889236	 -1.909465
C	 -2.406473	 0.490281	 -2.449213
H	 -0.448997	 -0.322642	 -2.552021
H	 -0.944636	 -2.503839	 -1.483387
H	 -1.904031	 -2.219152	 -2.926786
H	 -2.640410	 -2.058055	 -1.349349
H	 -2.093477	 1.525852	 -2.397527
H	 -2.607186	 0.246808	 -3.486136
H	 -3.336755	 0.384676	 -1.903353

	symmetry c1
}
set optking {
	frozen_dihedral = ("
		6 3 2 1
	")
}

ee,wfn = optimize('scf', return_wfn=True)
oeprop( wfn, 'DIPOLE', 'QUADRUPOLE', 'MULLIKEN_CHARGES')
f=open( 'psi4out.xyz', 'w' )
f.write( "15  " )
f.write( str(ee) + "\n" )
f.write( MOL.save_string_xyz() )
f.close()
--------------------------------------------------------------------------

    Molecular point group: c1
  Charge       = 0
  Multiplicity = 1
  Basis Set: CC-PVTZ
  Basis Set:
  @DF-RHF Final Energy:  -232.22209067277737
    Total Energy =                       -232.2220906727771990
    Molecular point group: c1
  Basis Set: CC-PVTZ
  Basis Set:
  Basis Set: CC-PVTZ
  Basis Set:
  @DF-RHF Final Energy:  -232.22358513572829
    Total Energy =                       -232.2235851357285128
  Basis Set: CC-PVTZ
  Basis Set:
  Basis Set: CC-PVTZ
  Basis Set:
  @DF-RHF Final Energy:  -232.22430151786230
    Total Energy =                       -232.2243015178620453
  Basis Set: CC-PVTZ
  Basis Set:
  Basis Set: CC-PVTZ
  Basis Set:
  @DF-RHF Final Energy:  -232.22447889081849
    Total Energy =                       -232.2244788908183182
  Basis Set: CC-PVTZ
  Basis Set:
  Basis Set: CC-PVTZ
  Basis Set:
  @DF-RHF Final Energy:  -232.22445330321381
    Total Energy =                       -232.2244533032138065
  Basis Set: CC-PVTZ
  Basis Set:
  Basis Set: CC-PVTZ
  Basis Set:
  @DF-RHF Final Energy:  -232.22449179977309
    Total Energy =                       -232.2244917997730909
  Basis Set: CC-PVTZ
  Basis Set:
  Charge       = 0
  Multiplicity = 1
  Basis Set: CC-PVTZ
  Basis Set:

    Orbital Energies (a.u.)
    -----------------------

    Doubly Occupied:

       1A    -20.539975     2A    -11.273140     3A    -11.258953
       4A    -11.209083     5A    -11.208222     6A     -1.371722
       7A     -1.051052     8A     -0.940490     9A     -0.931601
      10A     -0.781774    11A     -0.677169    12A     -0.640659
      13A     -0.633809    14A     -0.570882    15A     -0.563668
      16A     -0.552902    17A     -0.537242    18A     -0.501013
      19A     -0.498438    20A     -0.443923    21A     -0.406470

  @DF-RHF Final Energy:  -232.22449207633397

   => Energetics <=

    Nuclear Repulsion Energy =            198.9391383076569753
    One-Electron Energy =                -709.1428914589855594
    Two-Electron Energy =                 277.9792610749944402
    DFT Exchange-Correlation Energy =       0.0000000000000000
    Empirical Dispersion Energy =           0.0000000000000000
    PCM Polarization Energy =               0.0000000000000000
    EFP Energy =                            0.0000000000000000
    Total Energy =                       -232.2244920763341156
    Molecular point group: c1
  Basis Set: CC-PVTZ
  Basis Set:

  -Total Gradient:
     Atom            X                  Y                   Z
    ------   -----------------  -----------------  -----------------
       1       -0.000170417686    -0.001768753898     0.000123435750
       2        0.000022379824     0.003022762163    -0.000339931745
       3        0.000424056821    -0.002593947746     0.000608011061
       4        0.000000833276    -0.000013828519     0.000008846429
       5        0.000007741884     0.000003609079     0.000001788930
       6       -0.000246605248     0.001388519506    -0.000316086024
       7       -0.000013942495    -0.000027674156    -0.000034256544
       8       -0.000012660300    -0.000002484851    -0.000019747178
       9        0.000001392680     0.000003160872    -0.000013254757
      10        0.000012326295    -0.000005031358    -0.000013242603
      11       -0.000009782556    -0.000007504442    -0.000002415562
      12       -0.000008323858    -0.000003453908     0.000006243888
      13        0.000009793249     0.000004697882    -0.000012773911
      14       -0.000008883501    -0.000003203669    -0.000004925997
      15       -0.000007908386     0.000003133046     0.000008308264

  **** Optimization is complete! (in 7 steps) ****
    Final optimized geometry and variables:
    Molecular point group: c1

    Geometry (in Angstrom), charge = 0, multiplicity = 1:

    H           -1.094495542698     0.515954214715     1.410823245424
    C           -0.051565710816     0.448186465112     1.694652368746
    O            0.804527373583     0.312935198004     0.601773852923
    H            0.217598229383     1.348964248297     2.230083723866
    H            0.052310257910    -0.396280745080     2.369330803094
    C            0.285776392417    -0.140359655426    -0.623719707819
    C           -0.345461209271    -1.523492012005    -0.513233737138
    C           -0.643080843618     0.880300955472    -1.271781790030
    H            1.164588666427    -0.227362138948    -1.250493930354
    H            0.348059413227    -2.217506703560    -0.054309766900
    H           -0.599131241449    -1.897287772059    -1.498486984765
    H           -1.254847829839    -1.509208294072     0.076917011156
    H           -0.158750003353     1.847681541048    -1.319018705446
    H           -0.886298348609     0.570513285157    -2.281835368789
    H           -1.575772442236     0.991148314541    -0.731135415425

  Mulliken Charges: (a.u.)
   Center  Symbol    Alpha    Beta     Spin     Total
       1     H     0.46955  0.46955  0.00000  0.06091
       2     C     3.03941  3.03941  0.00000 -0.07882
       3     O     4.18674  4.18674  0.00000 -0.37348
       4     H     0.44736  0.44736  0.00000  0.10529
       5     H     0.46011  0.46011  0.00000  0.07979
       6     C     2.93906  2.93906  0.00000  0.12187
       7     C     3.15603  3.15603  0.00000 -0.31206
       8     C     3.15428  3.15428  0.00000 -0.30856
       9     H     0.44626  0.44626  0.00000  0.10749
      10     H     0.44479  0.44479  0.00000  0.11042
      11     H     0.44945  0.44945  0.00000  0.10110
      12     H     0.45564  0.45564  0.00000  0.08872
      13     H     0.44479  0.44479  0.00000  0.11042
      14     H     0.45106  0.45106  0.00000  0.09789
      15     H     0.45548  0.45548  0.00000  0.08903

   Total alpha = 21.00000, Total beta = 21.00000, Total charge = -0.00000

*** Psi4 exiting successfully. Buy a developer a beer!
