  ==> Input File <==

--------------------------------------------------------------------------
set {
	reference rhf
	basis 6-31G*
}

set_num_threads( 1 )
memory 2 gb

molecule MOL {
0 1

O	 3.225979	 0.970355	 -0.599647
C	 2.701189	 0.057885	 -0.047330
C	 1.245376	 -0.013843	 0.345420
O	 3.347903	 -1.046386	 0.304773
C	 0.455112	 1.231400	 -0.050772
H	 0.838542	 -0.913825	 -0.103701
H	 1.208210	 -0.175333	 1.419774
C	 -0.998893	 1.219485	 0.433193
H	 0.482531	 1.345121	 -1.130325
H	 0.957290	 2.103070	 0.354729
C	 -1.883438	 0.145884	 -0.207175
H	 -1.431207	 2.195402	 0.224832
H	 -1.019646	 1.105716	 1.516076
C	 -3.347647	 0.245583	 0.225435
H	 -1.822183	 0.231698	 -1.291012
H	 -1.510341	 -0.844814	 0.042401
C	 -3.657920	 -0.540983	 1.500259
H	 -3.986087	 -0.111884	 -0.580697
H	 -3.607699	 1.291952	 0.377695
C	 -5.122977	 -0.439334	 1.923313
H	 -3.397701	 -1.586644	 1.350187
H	 -3.023797	 -0.182138	 2.308280
H	 -5.311476	 -1.006852	 2.829403
H	 -5.781954	 -0.823209	 1.149631
H	 -5.405227	 0.592201	 2.114481
C	 4.728119	 -1.109107	 -0.004993
H	 4.882018	 -1.033965	 -1.071845
H	 5.068212	 -2.067527	 0.355250
H	 5.265056	 -0.311663	 0.488280

	symmetry c1
}
set optking {
	frozen_dihedral = ("
		21 17 14 11,
		15 11 8 5,
		6 3 5 9,
		11 8 5 9,
		2 4 26 27,
		1 2 4 26,
		6 3 2 1
	")
}

ee = energy('scf')
oeprop('DIPOLE', 'QUADRUPOLE', 'MULLIKEN_CHARGES')
f=open( 'psi4out.xyz', 'w' )
f.write( "29  " )
f.write( str(ee) + "\n" )
f.write( MOL.save_string_xyz() )
f.close()
--------------------------------------------------------------------------

    Molecular point group: c1

    Geometry (in Angstrom), charge = 0, multiplicity = 1:

       Center              X                  Y                   Z               Mass
    ------------   -----------------  -----------------  -----------------  -----------------
           O          3.119468427240     0.918794298311    -0.948258481356    15.994914619560
           C          2.594678427240     0.006324298311    -0.395941481356    12.000000000000
           C          1.138865427240    -0.065403701689    -0.003191481356    12.000000000000
           O          3.241392427240    -1.097946701689    -0.043838481356    15.994914619560
           C          0.348601427240     1.179839298311    -0.399383481356    12.000000000000
           H          0.732031427240    -0.965385701689    -0.452312481356     1.007825032070
           H          1.101699427240    -0.226893701689     1.071162518644     1.007825032070
           C         -1.105403572760     1.167924298311     0.084581518644    12.000000000000
           H          0.376020427240     1.293560298311    -1.478936481356     1.007825032070
           H          0.850779427240     2.051509298311     0.006117518644     1.007825032070
           C         -1.989948572760     0.094323298311    -0.555786481356    12.000000000000
           H         -1.537717572760     2.143841298311    -0.123779481356     1.007825032070
           H         -1.126156572760     1.054155298311     1.167464518644     1.007825032070
           C         -3.454157572760     0.194022298311    -0.123176481356    12.000000000000
           H         -1.928693572760     0.180137298311    -1.639623481356     1.007825032070
           H         -1.616851572760    -0.896374701689    -0.306210481356     1.007825032070
           C         -3.764430572760    -0.592543701689     1.151647518644    12.000000000000
           H         -4.092597572760    -0.163444701689    -0.929308481356     1.007825032070
           H         -3.714209572760     1.240391298311     0.029083518644     1.007825032070
           C         -5.229487572760    -0.490894701689     1.574701518644    12.000000000000
           H         -3.504211572760    -1.638204701689     1.001575518644     1.007825032070
           H         -3.130307572760    -0.233698701689     1.959668518644     1.007825032070
           H         -5.417986572760    -1.058412701689     2.480791518644     1.007825032070
           H         -5.888464572760    -0.874769701689     0.801019518644     1.007825032070
           H         -5.511737572760     0.540640298311     1.765869518644     1.007825032070
           C          4.621608427240    -1.160667701689    -0.353604481356    12.000000000000
           H          4.775507427240    -1.085525701689    -1.420456481356     1.007825032070
           H          4.961701427240    -2.119087701689     0.006638518644     1.007825032070
           H          5.158545427240    -0.363223701689     0.139668518644     1.007825032070

  Charge       = 0
  Multiplicity = 1
  Basis Set: 6-31G*
  Basis Set:

    Orbital Energies (a.u.)
    -----------------------

    Doubly Occupied:

       1A    -20.603329     2A    -20.545139     3A    -11.371958
       4A    -11.280636     5A    -11.234701     6A    -11.218910
       7A    -11.217520     8A    -11.216124     9A    -11.215179
      10A    -11.213632    11A    -11.209099    12A     -1.469028
      13A     -1.362465    14A     -1.098746    15A     -1.066582
      16A     -1.018415    17A     -0.977204    18A     -0.928630
      19A     -0.861376    20A     -0.809336    21A     -0.783589
      22A     -0.763146    23A     -0.700505    24A     -0.682285
      25A     -0.671824    26A     -0.637443    27A     -0.630818
      28A     -0.613425    29A     -0.596597    30A     -0.580395
      31A     -0.561465    32A     -0.557528    33A     -0.540990
      34A     -0.524919    35A     -0.514451    36A     -0.510075
      37A     -0.495226    38A     -0.481797    39A     -0.472972
      40A     -0.460408    41A     -0.456522    42A     -0.446884
      43A     -0.444377    44A     -0.436055

  @DF-RHF Final Energy:  -501.04091027302820

   => Energetics <=

    Nuclear Repulsion Energy =            615.3754811325779883
    One-Electron Energy =               -1901.8693331340473378
    Two-Electron Energy =                 785.4529417284386454
    DFT Exchange-Correlation Energy =       0.0000000000000000
    Empirical Dispersion Energy =           0.0000000000000000
    PCM Polarization Energy =               0.0000000000000000
    EFP Energy =                            0.0000000000000000
    Total Energy =                       -501.0409102730307040

  Mulliken Charges: (a.u.)
   Center  Symbol    Alpha    Beta     Spin     Total
       1     O     4.28598  4.28598  0.00000 -0.57195
       2     C     2.60487  2.60487  0.00000  0.79027
       3     C     3.20967  3.20967  0.00000 -0.41934
       4     O     4.30745  4.30745  0.00000 -0.61491
       5     C     3.15361  3.15361  0.00000 -0.30721
       6     H     0.39883  0.39883  0.00000  0.20234
       7     H     0.40130  0.40130  0.00000  0.19741
       8     C     3.15801  3.15801  0.00000 -0.31602
       9     H     0.41306  0.41306  0.00000  0.17388
      10     H     0.40889  0.40889  0.00000  0.18222
      11     C     3.15790  3.15790  0.00000 -0.31580
      12     H     0.41789  0.41789  0.00000  0.16422
      13     H     0.42322  0.42322  0.00000  0.15357
      14     C     3.15296  3.15296  0.00000 -0.30592
      15     H     0.42034  0.42034  0.00000  0.15933
      16     H     0.42260  0.42260  0.00000  0.15479
      17     C     3.15290  3.15290  0.00000 -0.30580
      18     H     0.42102  0.42102  0.00000  0.15796
      19     H     0.42263  0.42263  0.00000  0.15473
      20     C     3.23933  3.23933  0.00000 -0.47865
      21     H     0.42299  0.42299  0.00000  0.15403
      22     H     0.42286  0.42286  0.00000  0.15428
      23     H     0.41946  0.41946  0.00000  0.16108
      24     H     0.42157  0.42157  0.00000  0.15687
      25     H     0.42154  0.42154  0.00000  0.15693
      26     C     3.09240  3.09240  0.00000 -0.18481
      27     H     0.40909  0.40909  0.00000  0.18183
      28     H     0.40852  0.40852  0.00000  0.18295
      29     H     0.40913  0.40913  0.00000  0.18173

   Total alpha = 44.00000, Total beta = 44.00000, Total charge =  0.00000
