                              Psi4 1.0.54 Driver

  ==> Input File <==

--------------------------------------------------------------------------
set {
	reference rhf
	basis cc-pvtz
}

set_num_threads( 4 )
memory 2 gb

molecule MOL {
0 1

H	 -1.360140	 -0.000178	 1.242184
C	 -1.134054	 -0.000108	 0.175623
H	 -2.047861	 -0.000171	 -0.397433
O	 -0.374562	 1.108266	 -0.158799
O	 -0.374346	 -1.108321	 -0.158899
C	 0.967470	 0.770185	 0.064549
C	 0.967619	 -0.770018	 0.064441
H	 1.308977	 1.171502	 1.012400
H	 1.566449	 1.193441	 -0.727887
H	 1.566652	 -1.193087	 -0.728045
H	 1.309263	 -1.171352	 1.012237

	symmetry c1
}
ee,wfn = energy('scf', return_wfn=True)
oeprop( wfn, 'DIPOLE', 'QUADRUPOLE', 'MULLIKEN_CHARGES')
oeprop( wfn, 'GRID_ESP')
f=open( 'psi4out.xyz', 'w' )
f.write( "11  " )
f.write( str(ee) + "\n" )
f.write( MOL.save_string_xyz() )
f.close()
--------------------------------------------------------------------------

    Molecular point group: c1

    Geometry (in Angstrom), charge = 0, multiplicity = 1:

       Center              X                  Y                   Z               Mass
    ------------   -----------------  -----------------  -----------------  -----------------
           H         -1.360077560665    -0.000177790544     1.242206692050     1.007825032070
           C         -1.133991560665    -0.000107790544     0.175645692050    12.000000000000
           H         -2.047798560665    -0.000170790544    -0.397410307950     1.007825032070
           O         -0.374499560665     1.108266209456    -0.158776307950    15.994914619560
           O         -0.374283560665    -1.108320790544    -0.158876307950    15.994914619560
           C          0.967532439335     0.770185209456     0.064571692050    12.000000000000
           C          0.967681439335    -0.770017790544     0.064463692050    12.000000000000
           H          1.309039439335     1.171502209456     1.012422692050     1.007825032070
           H          1.566511439335     1.193441209456    -0.727864307950     1.007825032070
           H          1.566714439335    -1.193086790544    -0.728022307950     1.007825032070
           H          1.309325439335    -1.171351790544     1.012259692050     1.007825032070

  Charge       = 0
  Multiplicity = 1
  Basis Set: CC-PVTZ
  Basis Set:

    Orbital Energies (a.u.)
    -----------------------

    Doubly Occupied:

       1A    -20.561167     2A    -20.561141     3A    -11.321145
       4A    -11.279091     5A    -11.278495     6A     -1.455742
       7A     -1.342605     8A     -1.036139     9A     -0.869930
      10A     -0.859766    11A     -0.724126    12A     -0.714110
      13A     -0.635384    14A     -0.628130    15A     -0.589558
      16A     -0.566624    17A     -0.516627    18A     -0.492625
      19A     -0.439625    20A     -0.424802

  @DF-RHF Final Energy:  -266.89430809319470

   => Energetics <=

    Nuclear Repulsion Energy =            196.5882515471859051
    One-Electron Energy =                -754.3714877128148828
    Two-Electron Energy =                 290.8889280724341688
    DFT Exchange-Correlation Energy =       0.0000000000000000
    Empirical Dispersion Energy =           0.0000000000000000
    PCM Polarization Energy =               0.0000000000000000
    EFP Energy =                            0.0000000000000000
    Total Energy =                       -266.8943080931948089

  Mulliken Charges: (a.u.)
   Center  Symbol    Alpha    Beta     Spin     Total
       1     H     0.48455  0.48455  0.00000  0.03089
       2     C     2.88774  2.88774  0.00000  0.22452
       3     H     0.45113  0.45113  0.00000  0.09775
       4     O     4.18041  4.18041  0.00000 -0.36082
       5     O     4.18041  4.18041  0.00000 -0.36083
       6     C     2.98930  2.98930  0.00000  0.02139
       7     C     2.98930  2.98930  0.00000  0.02140
       8     H     0.46384  0.46384  0.00000  0.07232
       9     H     0.45473  0.45473  0.00000  0.09053
      10     H     0.45473  0.45473  0.00000  0.09053
      11     H     0.46384  0.46384  0.00000  0.07231

   Total alpha = 20.00000, Total beta = 20.00000, Total charge = -0.00000

*** Psi4 exiting successfully. Buy a developer a beer!
