  ==> Input File <==

--------------------------------------------------------------------------
set {
	reference rhf
	basis 6-31G*
}

set_num_threads( 4 )
memory 2 gb

molecule MOL {
0 1

O	 -2.821601	 1.309235	 -0.001213
C	 -2.668563	 0.129746	 -0.000350
C	 -3.801572	 -0.864014	 -0.000442
O	 -1.481751	 -0.454642	 0.000584
H	 -4.417280	 -0.689587	 -0.874708
H	 -3.443784	 -1.883046	 -0.000565
H	 -4.417179	 -0.689832	 0.873954
C	 -0.334255	 0.388708	 0.000906
C	 0.891947	 -0.504646	 0.000751
H	 -0.365390	 1.025305	 -0.873475
H	 -0.365484	 1.024911	 0.875569
C	 1.876526	 -0.131415	 1.110603
H	 1.378482	 -0.432948	 -0.968054
H	 0.574193	 -1.537141	 0.116717
C	 3.121105	 -1.020842	 1.127047
H	 2.180595	 0.907241	 0.993036
H	 1.377867	 -0.195960	 2.076137
C	 4.105093	 -0.647156	 2.234744
H	 3.620837	 -0.957257	 0.163045
H	 2.819226	 -2.058919	 1.246779
H	 4.451713	 0.376227	 2.122694
H	 4.976202	 -1.294618	 2.220615
H	 3.644204	 -0.734037	 3.214562

	symmetry c1
}
set optking {
	frozen_dihedral = ("
		13 9 8 10
	")
}

ee = optimize('scf')
oeprop('DIPOLE', 'QUADRUPOLE', 'MULLIKEN_CHARGES')
f=open( 'psi4out.xyz', 'w' )
f.write( "23  " )
f.write( str(ee) + "\n" )
f.write( MOL.save_string_xyz() )
f.close()
--------------------------------------------------------------------------

    Molecular point group: c1
  Charge       = 0
  Multiplicity = 1
  Basis Set: 6-31G*
  Basis Set:
  @DF-RHF Final Energy:  -422.97364878943227
    Total Energy =                       -422.9736487894319907
    Molecular point group: c1
  Basis Set: 6-31G*
  Basis Set:
  Basis Set: 6-31G*
  Basis Set:
  @DF-RHF Final Energy:  -422.97393175918785
    Total Energy =                       -422.9739317591879626
  Basis Set: 6-31G*
  Basis Set:
  Basis Set: 6-31G*
  Basis Set:
  @DF-RHF Final Energy:  -422.97402550239900
    Total Energy =                       -422.9740255023996269
  Basis Set: 6-31G*
  Basis Set:
  Basis Set: 6-31G*
  Basis Set:
  @DF-RHF Final Energy:  -422.97380852185142
    Total Energy =                       -422.9738085218515380
  Basis Set: 6-31G*
  Basis Set:
  Basis Set: 6-31G*
  Basis Set:
  @DF-RHF Final Energy:  -422.97405942287770
    Total Energy =                       -422.9740594228780992
  Basis Set: 6-31G*
  Basis Set:
  Charge       = 0
  Multiplicity = 1
  Basis Set: 6-31G*
  Basis Set:

    Orbital Energies (a.u.)
    -----------------------

    Doubly Occupied:

       1A    -20.602520     2A    -20.540197     3A    -11.373552
       4A    -11.281928     5A    -11.232247     6A    -11.224160
       7A    -11.222746     8A    -11.220824     9A    -11.212638
      10A     -1.467210    11A     -1.359999    12A     -1.091986
      13A     -1.040823    14A     -1.002399    15A     -0.930582
      16A     -0.842482    17A     -0.801062    18A     -0.777906
      19A     -0.688456    20A     -0.681921    21A     -0.666667
      22A     -0.645900    23A     -0.607142    24A     -0.583873
      25A     -0.581588    26A     -0.570667    27A     -0.558328
      28A     -0.535049    29A     -0.525036    30A     -0.502818
      31A     -0.497222    32A     -0.474997    33A     -0.470985
      34A     -0.464433    35A     -0.446170    36A     -0.435014

  @DF-RHF Final Energy:  -422.97405959069050

   => Energetics <=

    Nuclear Repulsion Energy =            450.6005368751364699
    One-Electron Energy =               -1468.8261387680418011
    Two-Electron Energy =                 595.2515423022151708
    DFT Exchange-Correlation Energy =       0.0000000000000000
    Empirical Dispersion Energy =           0.0000000000000000
    PCM Polarization Energy =               0.0000000000000000
    EFP Energy =                            0.0000000000000000
    Total Energy =                       -422.9740595906902172
    Molecular point group: c1
  Basis Set: 6-31G*
  Basis Set:

  -Total Gradient:
     Atom            X                  Y                   Z
    ------   -----------------  -----------------  -----------------
       1        0.000019746796    -0.000040539266    -0.000007612254
       2       -0.000073140960     0.000065319483    -0.000018337611
       3        0.000003293990    -0.000006187892     0.000017130869
       4        0.000162795502     0.000046400313    -0.000026249050
       5        0.000001179307    -0.000000440863     0.000000402241
       6        0.000001335103     0.000005016150    -0.000000412497
       7       -0.000008762942    -0.000003076223    -0.000000692278
       8        0.001477285641     0.002196412089     0.001547844651
       9       -0.001615971482    -0.002331446512    -0.001131428767
      10       -0.001087092375    -0.001486195353    -0.001054764048
      11        0.000029294628     0.000008833996    -0.000012222572
      12       -0.000024462164    -0.000024063564     0.000010333683
      13        0.001134660559     0.001575149228     0.000660965724
      14       -0.000007012514     0.000009634112     0.000000838419
      15       -0.000023770427    -0.000006985379     0.000002006092
      16        0.000003733287    -0.000003808564     0.000019878916
      17       -0.000018880792    -0.000005236976    -0.000000508876
      18        0.000016251703     0.000013097878    -0.000014672146
      19       -0.000016452834    -0.000015572432    -0.000006639521
      20        0.000013585005    -0.000004045116     0.000020629091
      21        0.000003061651     0.000003439992     0.000004335036
      22        0.000011167455     0.000005874293     0.000002058138
      23       -0.000001844140    -0.000001579396    -0.000012883238

  **** Optimization is complete! (in 6 steps) ****
    Final optimized geometry and variables:
    Molecular point group: c1

    Geometry (in Angstrom), charge = 0, multiplicity = 1:

    O           -2.686191406488     1.510904023071    -0.527656128415
    C           -2.542778708792     0.329985048818    -0.515347493269
    C           -3.684674968930    -0.653680767901    -0.528966227858
    O           -1.361963090967    -0.264686961588    -0.487562668335
    H           -4.282699158418    -0.480252998953    -1.415618346425
    H           -3.336279852989    -1.675886158444    -0.515252377708
    H           -4.314619593485    -0.467643478996     0.332696601962
    C           -0.205501609242     0.572456553170    -0.474001416452
    C            1.034575434049    -0.327265447408    -0.462792038388
    H           -0.242772733717     1.204689651574    -1.349462566353
    H           -0.253928271406     1.207506906996     0.399897296360
    C            2.034520577127     0.051455720480     0.633538318447
    H            1.534427744916    -0.271959610984    -1.425547373970
    H            0.714664712348    -1.354234920520    -0.328171642317
    C            3.289344499801    -0.822112409067     0.626339257646
    H            2.323682185977     1.094926693080     0.517265195783
    H            1.546943737890    -0.023450472556     1.603825966199
    C            4.286803031069    -0.441565162019     1.719783275055
    H            3.773470016044    -0.749011536929    -0.345167041018
    H            3.001865840973    -1.864473413025     0.746081070917
    H            4.619235679788     0.586439759315     1.606878729841
    H            5.165341656967    -1.078319315377     1.688789947033
    H            3.842822963476    -0.538241344861     2.706436028391

  Mulliken Charges: (a.u.)
   Center  Symbol    Alpha    Beta     Spin     Total
       1     O     4.28449  4.28449  0.00000 -0.56898
       2     C     2.61538  2.61538  0.00000  0.76924
       3     C     3.28750  3.28750  0.00000 -0.57500
       4     O     4.31193  4.31193  0.00000 -0.62385
       5     H     0.39754  0.39754  0.00000  0.20492
       6     H     0.40022  0.40022  0.00000  0.19957
       7     H     0.39760  0.39760  0.00000  0.20480
       8     C     3.00231  3.00231  0.00000 -0.00462
       9     C     3.17045  3.17045  0.00000 -0.34090
      10     H     0.40776  0.40776  0.00000  0.18448
      11     H     0.40725  0.40725  0.00000  0.18550
      12     C     3.15914  3.15914  0.00000 -0.31829
      13     H     0.41614  0.41614  0.00000  0.16772
      14     H     0.40490  0.40490  0.00000  0.19021
      15     C     3.15267  3.15267  0.00000 -0.30534
      16     H     0.42168  0.42168  0.00000  0.15664
      17     H     0.41991  0.41991  0.00000  0.16017
      18     C     3.23964  3.23964  0.00000 -0.47929
      19     H     0.42203  0.42203  0.00000  0.15593
      20     H     0.42145  0.42145  0.00000  0.15710
      21     H     0.42097  0.42097  0.00000  0.15806
      22     H     0.41819  0.41819  0.00000  0.16362
      23     H     0.42084  0.42084  0.00000  0.15831

   Total alpha = 36.00000, Total beta = 36.00000, Total charge =  0.00000
