  ==> Input File <==

--------------------------------------------------------------------------
set {
	reference rhf
	basis 6-31G*
}

set_num_threads( 4 )
memory 2 gb

molecule MOL {
0 1

H	 3.463771	 0.168298	 -0.756243
C	 2.752674	 -0.045734	 0.033351
C	 1.322923	 0.120767	 -0.479465
H	 2.934561	 -1.059086	 0.377456
H	 2.958358	 0.631174	 0.856809
C	 0.306652	 -0.176050	 0.621399
H	 1.144658	 -0.551717	 -1.312180
H	 1.166477	 1.131798	 -0.836680
N	 -1.068537	 -0.011044	 0.085269
H	 0.372515	 -1.192590	 0.973735
H	 0.391664	 0.520566	 1.441230
O	 -1.658904	 -0.997631	 -0.230143
O	 -1.476687	 1.105078	 -0.022945

	symmetry c1
}
set optking {
	frozen_dihedral = ("
		12 9 6 3
	")
}

ee = optimize('scf')
oeprop('DIPOLE', 'QUADRUPOLE', 'MULLIKEN_CHARGES')
f=open( 'psi4out.xyz', 'w' )
f.write( "13  " )
f.write( str(ee) + "\n" )
f.write( MOL.save_string_xyz() )
f.close()
--------------------------------------------------------------------------

    Molecular point group: c1
  Charge       = 0
  Multiplicity = 1
  Basis Set: 6-31G*
  Basis Set:
  @DF-RHF Final Energy:  -321.73558425644910
    Total Energy =                       -321.7355842564492150
    Molecular point group: c1
  Basis Set: 6-31G*
  Basis Set:
  Basis Set: 6-31G*
  Basis Set:
  @DF-RHF Final Energy:  -321.73547161176253
    Total Energy =                       -321.7354716117623639
  Basis Set: 6-31G*
  Basis Set:
  Basis Set: 6-31G*
  Basis Set:
  @DF-RHF Final Energy:  -321.73558377491042
    Total Energy =                       -321.7355837749105945
  Basis Set: 6-31G*
  Basis Set:
  Charge       = 0
  Multiplicity = 1
  Basis Set: 6-31G*
  Basis Set:

    Orbital Energies (a.u.)
    -----------------------

    Doubly Occupied:

       1A    -20.601625     2A    -20.599328     3A    -15.846867
       4A    -11.299200     5A    -11.257176     6A    -11.240101
       7A     -1.630454     8A     -1.415947     9A     -1.135485
      10A     -1.028546    11A     -0.884198    12A     -0.833179
      13A     -0.758300    14A     -0.734549    15A     -0.722912
      16A     -0.672336    17A     -0.604621    18A     -0.588838
      19A     -0.550958    20A     -0.521685    21A     -0.515038
      22A     -0.483544    23A     -0.473684    24A     -0.447734

  @DF-RHF Final Energy:  -321.73558446876422

   => Energetics <=

    Nuclear Repulsion Energy =            247.4137747691333402
    One-Electron Energy =                -928.6061135576218248
    Two-Electron Energy =                 359.4567543197243822
    DFT Exchange-Correlation Energy =       0.0000000000000000
    Empirical Dispersion Energy =           0.0000000000000000
    PCM Polarization Energy =               0.0000000000000000
    EFP Energy =                            0.0000000000000000
    Total Energy =                       -321.7355844687641593
    Molecular point group: c1
  Basis Set: 6-31G*
  Basis Set:

  -Total Gradient:
     Atom            X                  Y                   Z
    ------   -----------------  -----------------  -----------------
       1        0.000000636338     0.000001073588     0.000000848363
       2       -0.000000620800    -0.000001172860    -0.000006115483
       3        0.000014150535     0.000020424302     0.000000277178
       4        0.000003609573    -0.000002324472    -0.000000728686
       5       -0.000005038748    -0.000001469840    -0.000000798209
       6       -0.000007227220    -0.000017465378     0.000001496296
       7        0.000001597902    -0.000002799948     0.000003045950
       8        0.000001334333    -0.000004340405    -0.000002888999
       9        0.000019139241     0.000014876884     0.000010528791
      10       -0.000003427123     0.000005873560     0.000000895343
      11       -0.000000901251     0.000004727059     0.000000734692
      12       -0.000019777769     0.000002407625    -0.000005110561
      13       -0.000003475004    -0.000019810117    -0.000002184675

  **** Optimization is complete! (in 4 steps) ****
    Final optimized geometry and variables:
    Molecular point group: c1

    Geometry (in Angstrom), charge = 0, multiplicity = 1:

    H            3.464133149264     0.168161836417    -0.756225678736
    C            2.752924705919    -0.045967121710     0.033237603186
    C            1.323291304625     0.122147849702    -0.479291772992
    H            2.934134234207    -1.059705044843     0.376591924236
    H            2.959108320722     0.630181538658     0.857187003034
    C            0.306841644080    -0.174801941147     0.621359759277
    H            1.144636488740    -0.549653621952    -1.312506765129
    H            1.167590558984     1.133466678966    -0.835838190275
    N           -1.068606111801    -0.011432940220     0.085209381189
    H            0.373395461362    -1.190827727152     0.974968511913
    H            0.390930568488     0.522775183179     1.440557218851
    O           -1.658445452123    -0.998488313964    -0.229665675857
    O           -1.477810492743     1.104262955652    -0.023378621792

  Mulliken Charges: (a.u.)
   Center  Symbol    Alpha    Beta     Spin     Total
       1     H     0.40727  0.40727  0.00000  0.18546
       2     C     3.24811  3.24811  0.00000 -0.49622
       3     C     3.17312  3.17312  0.00000 -0.34625
       4     H     0.41462  0.41462  0.00000  0.17077
       5     H     0.41462  0.41462  0.00000  0.17076
       6     C     3.08277  3.08277  0.00000 -0.16554
       7     H     0.40123  0.40123  0.00000  0.19754
       8     H     0.39669  0.39669  0.00000  0.20662
       9     N     3.22391  3.22391  0.00000  0.55217
      10     H     0.38775  0.38775  0.00000  0.22451
      11     H     0.38899  0.38899  0.00000  0.22203
      12     O     4.22951  4.22951  0.00000 -0.45902
      13     O     4.23142  4.23142  0.00000 -0.46284

   Total alpha = 24.00000, Total beta = 24.00000, Total charge =  0.00000
