  ==> Input File <==

--------------------------------------------------------------------------
set {
	reference rhf
	basis 6-31G*
}

set_num_threads( 1 )
memory 2 gb

molecule MOL {
0 1

H	 -4.237249	 0.533851	 0.047188
O	 -3.517110	 -0.026191	 -0.205115
C	 -2.306886	 0.532354	 0.237577
C	 -1.177863	 -0.397191	 -0.171080
H	 -2.156308	 1.517575	 -0.201710
H	 -2.315015	 0.655684	 1.319734
C	 0.198102	 0.111031	 0.262842
H	 -1.208843	 -0.518759	 -1.250427
H	 -1.368741	 -1.376554	 0.258909
C	 1.331804	 -0.827780	 -0.158768
H	 0.361943	 1.100838	 -0.156218
H	 0.217265	 0.229072	 1.345532
C	 2.723619	 -0.410569	 0.329459
H	 1.342964	 -0.912588	 -1.244120
H	 1.116806	 -1.824343	 0.220779
C	 3.243875	 0.895854	 -0.272975
H	 3.424222	 -1.207124	 0.091250
H	 2.714788	 -0.329854	 1.414619
H	 3.251977	 0.848779	 -1.358681
H	 2.637085	 1.747371	 0.016682
H	 4.259473	 1.094070	 0.055697

	symmetry c1
}
set optking {
	frozen_dihedral = ("
		2 3 4 8,
		8 4 7 10,
		4 7 10 14,
		16 13 10 14
	")
}

ee = energy('scf')
oeprop('DIPOLE', 'QUADRUPOLE', 'MULLIKEN_CHARGES')
f=open( 'psi4out.xyz', 'w' )
f.write( "21  " )
f.write( str(ee) + "\n" )
f.write( MOL.save_string_xyz() )
f.close()
--------------------------------------------------------------------------

    Molecular point group: c1

    Geometry (in Angstrom), charge = 0, multiplicity = 1:

       Center              X                  Y                   Z               Mass
    ------------   -----------------  -----------------  -----------------  -----------------
           H         -4.237241370285     0.533893361203     0.047114809158     1.007825032070
           O         -3.517102370285    -0.026148638797    -0.205188190842    15.994914619560
           C         -2.306878370285     0.532396361203     0.237503809158    12.000000000000
           C         -1.177855370285    -0.397148638797    -0.171153190842    12.000000000000
           H         -2.156300370285     1.517617361203    -0.201783190842     1.007825032070
           H         -2.315007370285     0.655726361203     1.319660809158     1.007825032070
           C          0.198109629715     0.111073361203     0.262768809158    12.000000000000
           H         -1.208835370285    -0.518716638797    -1.250500190842     1.007825032070
           H         -1.368733370285    -1.376511638797     0.258835809158     1.007825032070
           C          1.331811629715    -0.827737638797    -0.158841190842    12.000000000000
           H          0.361950629715     1.100880361203    -0.156291190842     1.007825032070
           H          0.217272629715     0.229114361203     1.345458809158     1.007825032070
           C          2.723626629715    -0.410526638797     0.329385809158    12.000000000000
           H          1.342971629715    -0.912545638797    -1.244193190842     1.007825032070
           H          1.116813629715    -1.824300638797     0.220705809158     1.007825032070
           C          3.243882629715     0.895896361203    -0.273048190842    12.000000000000
           H          3.424229629715    -1.207081638797     0.091176809158     1.007825032070
           H          2.714795629715    -0.329811638797     1.414545809158     1.007825032070
           H          3.251984629715     0.848821361203    -1.358754190842     1.007825032070
           H          2.637092629715     1.747413361203     0.016608809158     1.007825032070
           H          4.259480629715     1.094112361203     0.055623809158     1.007825032070

  Charge       = 0
  Multiplicity = 1
  Basis Set: 6-31G*
  Basis Set:

    Orbital Energies (a.u.)
    -----------------------

    Doubly Occupied:

       1A    -20.551845     2A    -11.267061     3A    -11.215699
       4A    -11.215155     5A    -11.213596     6A    -11.210676
       7A    -11.208203     8A     -1.358669     9A     -1.086256
      10A     -1.033211    11A     -0.954424    12A     -0.875666
      13A     -0.807204    14A     -0.779053    15A     -0.692445
      16A     -0.661480    17A     -0.622118    18A     -0.607351
      19A     -0.586494    20A     -0.569419    21A     -0.536409
      22A     -0.519881    23A     -0.510805    24A     -0.486850
      25A     -0.479533    26A     -0.460630    27A     -0.455887
      28A     -0.443150    29A     -0.433982

  @DF-RHF Final Energy:  -310.21283741884776

   => Energetics <=

    Nuclear Repulsion Energy =            312.4453781662382994
    One-Electron Energy =               -1039.6301325849203749
    Two-Electron Energy =                 416.9719169998335246
    DFT Exchange-Correlation Energy =       0.0000000000000000
    Empirical Dispersion Energy =           0.0000000000000000
    PCM Polarization Energy =               0.0000000000000000
    EFP Energy =                            0.0000000000000000
    Total Energy =                       -310.2128374188486077

  Mulliken Charges: (a.u.)
   Center  Symbol    Alpha    Beta     Spin     Total
       1     H     0.28118  0.28118  0.00000  0.43765
       2     O     4.37179  4.37179  0.00000 -0.74358
       3     C     2.98973  2.98973  0.00000  0.02055
       4     C     3.15897  3.15897  0.00000 -0.31793
       5     H     0.43290  0.43290  0.00000  0.13420
       6     H     0.43291  0.43291  0.00000  0.13418
       7     C     3.16188  3.16188  0.00000 -0.32376
       8     H     0.41475  0.41475  0.00000  0.17050
       9     H     0.41484  0.41484  0.00000  0.17032
      10     C     3.15178  3.15178  0.00000 -0.30357
      11     H     0.42153  0.42153  0.00000  0.15694
      12     H     0.42410  0.42410  0.00000  0.15181
      13     C     3.15252  3.15252  0.00000 -0.30503
      14     H     0.42299  0.42299  0.00000  0.15403
      15     H     0.42097  0.42097  0.00000  0.15806
      16     C     3.24117  3.24117  0.00000 -0.48234
      17     H     0.42062  0.42062  0.00000  0.15876
      18     H     0.42355  0.42355  0.00000  0.15290
      19     H     0.42196  0.42196  0.00000  0.15607
      20     H     0.42064  0.42064  0.00000  0.15873
      21     H     0.41924  0.41924  0.00000  0.16152

   Total alpha = 29.00000, Total beta = 29.00000, Total charge = -0.00000
