  ==> Input File <==

--------------------------------------------------------------------------
set {
	reference rhf
	basis cc-pvtz
}

set_num_threads( 4 )
memory 2 gb

molecule MOL {
0 1

H	 -1.235131	 -0.655031	 -1.031400
N	 -1.173824	 -0.310545	 -0.096857
C	 -0.022588	 0.563366	 0.065815
H	 -2.022847	 0.180078	 0.093041
C	 1.270420	 -0.230572	 -0.014245
H	 -0.045354	 1.293678	 -0.735129
H	 -0.043155	 1.123061	 1.001180
H	 1.336273	 -0.754933	 -0.959364
H	 2.130728	 0.422015	 0.082222
H	 1.323344	 -0.967006	 0.781773

	symmetry c1
}
set optking {
	frozen_dihedral = ("
		1 2 3 6
	")
}

ee = optimize('scf')
oeprop('DIPOLE', 'QUADRUPOLE', 'MULLIKEN_CHARGES')
f=open( 'psi4out.xyz', 'w' )
f.write( "10  " )
f.write( str(ee) + "\n" )
f.write( MOL.save_string_xyz() )
f.close()
--------------------------------------------------------------------------

    Molecular point group: c1
  Charge       = 0
  Multiplicity = 1
  Basis Set: CC-PVTZ
  Basis Set:
  @DF-RHF Final Energy:  -134.30269540873201
    Total Energy =                       -134.3026954087319496
    Molecular point group: c1
  Basis Set: CC-PVTZ
  Basis Set:
  Basis Set: CC-PVTZ
  Basis Set:
  @DF-RHF Final Energy:  -134.30435493418514
    Total Energy =                       -134.3043549341851985
  Basis Set: CC-PVTZ
  Basis Set:
  Basis Set: CC-PVTZ
  Basis Set:
  @DF-RHF Final Energy:  -134.30459506519830
    Total Energy =                       -134.3045950651983560
  Basis Set: CC-PVTZ
  Basis Set:
  Basis Set: CC-PVTZ
  Basis Set:
  @DF-RHF Final Energy:  -134.30459743423276
    Total Energy =                       -134.3045974342327895
  Basis Set: CC-PVTZ
  Basis Set:
  Charge       = 0
  Multiplicity = 1
  Basis Set: CC-PVTZ
  Basis Set:

    Orbital Energies (a.u.)
    -----------------------

    Doubly Occupied:

       1A    -15.527516     2A    -11.241192     3A    -11.203622
       4A     -1.178106     5A     -0.988278     6A     -0.823293
       7A     -0.665429     8A     -0.630804     9A     -0.580145
      10A     -0.516039    11A     -0.511121    12A     -0.485969
      13A     -0.386024

  @DF-RHF Final Energy:  -134.30459776271908

   => Energetics <=

    Nuclear Repulsion Energy =             83.4075510272404728
    One-Electron Energy =                -345.9492251129597662
    Two-Electron Energy =                 128.2370763230002240
    DFT Exchange-Correlation Energy =       0.0000000000000000
    Empirical Dispersion Energy =           0.0000000000000000
    PCM Polarization Energy =               0.0000000000000000
    EFP Energy =                            0.0000000000000000
    Total Energy =                       -134.3045977627190837
    Molecular point group: c1
  Basis Set: CC-PVTZ
  Basis Set:

  -Total Gradient:
     Atom            X                  Y                   Z
    ------   -----------------  -----------------  -----------------
       1       -0.000755465807     0.001043433456    -0.000313891872
       2        0.001118187820    -0.001514449504     0.000183146358
       3       -0.000990198213     0.001205317785     0.000848916776
       4       -0.000017882763     0.000001776393     0.000000225834
       5       -0.000001062498     0.000019873271    -0.000000837958
       6        0.000649582531    -0.000765922300    -0.000723533987
       7        0.000004543384    -0.000003771075     0.000003294249
       8       -0.000007509620     0.000005967324     0.000003379307
       9        0.000008244836     0.000000511645     0.000000811407
      10       -0.000008439670     0.000007263006    -0.000001510113

  **** Optimization is complete! (in 5 steps) ****
    Final optimized geometry and variables:
    Molecular point group: c1

    Geometry (in Angstrom), charge = 0, multiplicity = 1:

    H           -1.262492104275    -0.670282773622    -0.975573478457
    N           -1.174362480255    -0.321093522816    -0.043873301526
    C           -0.021803718363     0.560595884330     0.071045408984
    H           -2.019132817800     0.170424244315     0.158724383980
    C            1.272367719820    -0.235262689828     0.020903208438
    H            0.003510172525     1.325909897030    -0.704595702963
    H           -0.090368856980     1.075787879510     1.022023142104
    H            1.364755783936    -0.763604978886    -0.922849533057
    H            2.132311930174     0.418011989373     0.119960595444
    H            1.298168211737    -0.968546994868     0.817085176426

  Mulliken Charges: (a.u.)
   Center  Symbol    Alpha    Beta     Spin     Total
       1     H     0.43069  0.43069  0.00000  0.13862
       2     N     3.68936  3.68936  0.00000 -0.37871
       3     C     3.02203  3.02203  0.00000 -0.04406
       4     H     0.42931  0.42931  0.00000  0.14138
       5     C     3.13598  3.13598  0.00000 -0.27196
       6     H     0.46857  0.46857  0.00000  0.06287
       7     H     0.45718  0.45718  0.00000  0.08564
       8     H     0.45966  0.45966  0.00000  0.08068
       9     H     0.45686  0.45686  0.00000  0.08627
      10     H     0.45036  0.45036  0.00000  0.09927

   Total alpha = 13.00000, Total beta = 13.00000, Total charge = -0.00000
