  ==> Input File <==

--------------------------------------------------------------------------
set {
	reference rhf
	basis cc-pvtz
}

set_num_threads( 4 )
memory 2 gb

molecule MOL {
0 1

H	 2.596254	 -1.006988	 -1.824889
C	 1.876324	 -1.206664	 -1.041875
C	 1.322304	 0.099773	 -0.484271
H	 1.088696	 -1.820486	 -1.464053
H	 2.375344	 -1.783842	 -0.271690
C	 0.308557	 -0.162619	 0.622645
H	 0.842996	 0.667883	 -1.271829
H	 2.126674	 0.706455	 -0.086950
N	 -1.069352	 -0.004081	 0.085342
H	 0.371632	 -1.172932	 0.991288
H	 0.400391	 0.548875	 1.426218
O	 -1.584901	 -0.965470	 -0.377818
O	 -1.548033	 1.079343	 0.130056

	symmetry c1
}
set optking {
	frozen_dihedral = ("
		7 3 6 9
	")
}

ee = optimize('scf')
oeprop('DIPOLE', 'QUADRUPOLE', 'MULLIKEN_CHARGES')
f=open( 'psi4out.xyz', 'w' )
f.write( "13  " )
f.write( str(ee) + "\n" )
f.write( MOL.save_string_xyz() )
f.close()
--------------------------------------------------------------------------

    Molecular point group: c1
  Charge       = 0
  Multiplicity = 1
  Basis Set: CC-PVTZ
  Basis Set:
  @DF-RHF Final Energy:  -321.85671864923438
    Total Energy =                       -321.8567186492340966
    Molecular point group: c1
  Basis Set: CC-PVTZ
  Basis Set:
  Basis Set: CC-PVTZ
  Basis Set:
  @DF-RHF Final Energy:  -321.85534093007033
    Total Energy =                       -321.8553409300705539
  Basis Set: CC-PVTZ
  Basis Set:
  Basis Set: CC-PVTZ
  Basis Set:
  @DF-RHF Final Energy:  -321.85246152201114
    Total Energy =                       -321.8524615220109695
  Basis Set: CC-PVTZ
  Basis Set:
  Basis Set: CC-PVTZ
  Basis Set:
  @DF-RHF Final Energy:  -321.85704940990496
    Total Energy =                       -321.8570494099047323
  Basis Set: CC-PVTZ
  Basis Set:
  @DF-RHF Final Energy:  -321.85713849708418
    Total Energy =                       -321.8571384970842360
  @DF-RHF Final Energy:  -321.85718423336192
    Total Energy =                       -321.8571842333619202
  Basis Set: CC-PVTZ
  Basis Set:
  @DF-RHF Final Energy:  -321.85718733141681
    Total Energy =                       -321.8571873314168670
  Basis Set: CC-PVTZ
  Basis Set:
  Basis Set: CC-PVTZ
  Basis Set:
  @DF-RHF Final Energy:  -321.85718926304071
    Total Energy =                       -321.8571892630409366
  Basis Set: CC-PVTZ
  Basis Set:
  Basis Set: CC-PVTZ
  Basis Set:
  @DF-RHF Final Energy:  -321.85719279517423
    Total Energy =                       -321.8571927951740008
  Basis Set: CC-PVTZ
  Basis Set:
  Charge       = 0
  Multiplicity = 1
  Basis Set: CC-PVTZ
  Basis Set:

    Orbital Energies (a.u.)
    -----------------------

    Doubly Occupied:

       1A    -20.591591     2A    -20.590011     3A    -15.837229
       4A    -11.297598     5A    -11.255485     6A    -11.229710
       7A     -1.636352     8A     -1.420526     9A     -1.131688
      10A     -1.024421    11A     -0.886279    12A     -0.832381
      13A     -0.763638    14A     -0.737740    15A     -0.727180
      16A     -0.651581    17A     -0.623629    18A     -0.592086
      19A     -0.531517    20A     -0.522611    21A     -0.515296
      22A     -0.484076    23A     -0.473892    24A     -0.454460

  @DF-RHF Final Energy:  -321.85719287815749

   => Energetics <=

    Nuclear Repulsion Energy =            250.5450971955577302
    One-Electron Energy =                -935.1826295990900917
    Two-Electron Energy =                 362.7803395253749272
    DFT Exchange-Correlation Energy =       0.0000000000000000
    Empirical Dispersion Energy =           0.0000000000000000
    PCM Polarization Energy =               0.0000000000000000
    EFP Energy =                            0.0000000000000000
    Total Energy =                       -321.8571928781573774
    Molecular point group: c1
  Basis Set: CC-PVTZ
  Basis Set:

  -Total Gradient:
     Atom            X                  Y                   Z
    ------   -----------------  -----------------  -----------------
       1        0.000002560521    -0.000004939554    -0.000000900507
       2       -0.000060708855    -0.000007503937    -0.000002507002
       3        0.001199643192     0.004354884930     0.001949372619
       4        0.000003121479    -0.000008292846    -0.000003549386
       5       -0.000002267153     0.000007409131     0.000006855567
       6       -0.000443552854    -0.004129920993    -0.001107322663
       7       -0.000884267733    -0.002758806846    -0.001384334716
       8        0.000014941990    -0.000004513035    -0.000042896823
       9        0.000045092348     0.002454161416     0.000596245578
      10        0.000082391608     0.000049401000     0.000115722807
      11       -0.000007144798     0.000074335507    -0.000090343524
      12        0.000020321121    -0.000029502888    -0.000029575091
      13        0.000029869130     0.000003288117    -0.000006766862

  **** Optimization is complete! (in 10 steps) ****
    Final optimized geometry and variables:
    Molecular point group: c1

    Geometry (in Angstrom), charge = 0, multiplicity = 1:

    H            2.752864037299    -0.817894257337    -1.670011192813
    C            2.046725300431    -1.028665738283    -0.876427363539
    C            1.476517221583     0.268271567885    -0.310189812144
    H            1.260646164297    -1.653488722144    -1.281165798946
    H            2.566585626100    -1.593841341078    -0.110632525067
    C            0.448233583409     0.037784600754     0.809835750780
    H            1.006126290918     0.826297045199    -1.110046266843
    H            2.273076955760     0.885258831262     0.083604795535
    N           -0.929061672145     0.200634341466     0.273174574301
    H            0.499123096214    -0.959312723748     1.213934043454
    H            0.534649233935     0.770402860333     1.592699553904
    O           -1.408377202202    -0.732390520779    -0.281254849925
    O           -1.444173438915     1.259076131110     0.405528061374

  Mulliken Charges: (a.u.)
   Center  Symbol    Alpha    Beta     Spin     Total
       1     H     0.44627  0.44627  0.00000  0.10747
       2     C     3.14662  3.14662  0.00000 -0.29324
       3     C     3.09106  3.09106  0.00000 -0.18211
       4     H     0.44222  0.44222  0.00000  0.11556
       5     H     0.45535  0.45535  0.00000  0.08931
       6     C     3.04651  3.04651  0.00000 -0.09303
       7     H     0.44088  0.44088  0.00000  0.11824
       8     H     0.44351  0.44351  0.00000  0.11298
       9     N     3.27817  3.27817  0.00000  0.44366
      10     H     0.43621  0.43621  0.00000  0.12757
      11     H     0.42757  0.42757  0.00000  0.14486
      12     O     4.17510  4.17510  0.00000 -0.35020
      13     O     4.17053  4.17053  0.00000 -0.34106

   Total alpha = 24.00000, Total beta = 24.00000, Total charge = -0.00000
