  ==> Input File <==

--------------------------------------------------------------------------
set {
	reference rhf
	basis 6-31G*
}

set_num_threads( 1 )
memory 2 gb

molecule MOL {
0 1

H	 1.136379	 0.211822	 1.465562
C	 1.135357	 0.094285	 0.374742
C	 0.065331	 0.871482	 -0.349150
O	 1.941633	 -0.601957	 -0.151457
C	 -0.445389	 0.140437	 -1.599037
H	 0.461204	 1.849845	 -0.596137
H	 -0.759899	 1.009660	 0.348032
C	 0.607798	 0.019370	 -2.701109
H	 -1.309428	 0.674637	 -1.981239
H	 -0.800243	 -0.849203	 -1.319157
H	 0.950599	 0.998832	 -3.019965
H	 0.201988	 -0.490780	 -3.568509
H	 1.477530	 -0.538894	 -2.367496

	symmetry c1
}
set optking {
	frozen_dihedral = ("
		6 3 5 9
	")
}

ee = energy('scf')
oeprop('DIPOLE', 'QUADRUPOLE', 'MULLIKEN_CHARGES')
f=open( 'psi4out.xyz', 'w' )
f.write( "13  " )
f.write( str(ee) + "\n" )
f.write( MOL.save_string_xyz() )
f.close()
--------------------------------------------------------------------------

    Molecular point group: c1

    Geometry (in Angstrom), charge = 0, multiplicity = 1:

       Center              X                  Y                   Z               Mass
    ------------   -----------------  -----------------  -----------------  -----------------
           H          0.459389576313     0.117911155308     2.365433147540     1.007825032070
           C          0.458367576313     0.000374155308     1.274613147540    12.000000000000
           C         -0.611658423687     0.777571155308     0.550721147540    12.000000000000
           O          1.264643576313    -0.695867844692     0.748414147540    15.994914619560
           C         -1.122378423687     0.046526155308    -0.699165852460    12.000000000000
           H         -0.215785423687     1.755934155308     0.303734147540     1.007825032070
           H         -1.436888423687     0.915749155308     1.247903147540     1.007825032070
           C         -0.069191423687    -0.074540844692    -1.801237852460    12.000000000000
           H         -1.986417423687     0.580726155308    -1.081367852460     1.007825032070
           H         -1.477232423687    -0.943113844692    -0.419285852460     1.007825032070
           H          0.273609576313     0.904921155308    -2.120093852460     1.007825032070
           H         -0.475001423687    -0.584690844692    -2.668637852460     1.007825032070
           H          0.800540576313    -0.632804844692    -1.467624852460     1.007825032070

  Charge       = 0
  Multiplicity = 1
  Basis Set: 6-31G*
  Basis Set:

    Orbital Energies (a.u.)
    -----------------------

    Doubly Occupied:

       1A    -20.565278     2A    -11.330197     3A    -11.237260
       4A    -11.227511     5A    -11.200856     6A     -1.407322
       7A     -1.076412     8A     -0.969353     9A     -0.843060
      10A     -0.773298    11A     -0.684786    12A     -0.650800
      13A     -0.605918    14A     -0.579834    15A     -0.565531
      16A     -0.521649    17A     -0.496446    18A     -0.482863
      19A     -0.480423    20A     -0.405158

  @DF-RHF Final Energy:  -230.98119939939858

   => Energetics <=

    Nuclear Repulsion Energy =            177.8621849918413886
    One-Electron Energy =                -665.4789004468843814
    Two-Electron Energy =                 256.6355160556441319
    DFT Exchange-Correlation Energy =       0.0000000000000000
    Empirical Dispersion Energy =           0.0000000000000000
    PCM Polarization Energy =               0.0000000000000000
    EFP Energy =                            0.0000000000000000
    Total Energy =                       -230.9811993993988608

  Mulliken Charges: (a.u.)
   Center  Symbol    Alpha    Beta     Spin     Total
       1     H     0.42712  0.42712  0.00000  0.14576
       2     C     2.83997  2.83997  0.00000  0.32006
       3     C     3.20879  3.20879  0.00000 -0.41758
       4     O     4.23550  4.23550  0.00000 -0.47100
       5     C     3.15389  3.15389  0.00000 -0.30778
       6     H     0.40048  0.40048  0.00000  0.19903
       7     H     0.41243  0.41243  0.00000  0.17514
       8     C     3.24759  3.24759  0.00000 -0.49518
       9     H     0.41725  0.41725  0.00000  0.16549
      10     H     0.41667  0.41667  0.00000  0.16666
      11     H     0.42647  0.42647  0.00000  0.14706
      12     H     0.42223  0.42223  0.00000  0.15555
      13     H     0.39160  0.39160  0.00000  0.21680

   Total alpha = 20.00000, Total beta = 20.00000, Total charge = -0.00000
