                              Psi4 1.0.54 Driver

  ==> Input File <==

--------------------------------------------------------------------------
set {
	reference rhf
	basis cc-pvtz
}

set_num_threads( 4 )
memory 2 gb

molecule MOL {
0 1

H	 -0.000105	 1.988529	 0.748933
O	 -0.000098	 1.879786	 -0.188206
C	 -0.000014	 0.545691	 -0.532416
C	 1.039375	 -0.213044	 0.294488
C	 0.159655	 0.390710	 -2.045777
H	 -0.965863	 0.136425	 -0.274933
F	 0.754609	 -0.089075	 1.567437
F	 1.064737	 -1.490783	 0.010851
F	 2.247805	 0.272564	 0.106720
F	 -0.830909	 0.999047	 -2.650399
F	 0.150467	 -0.863308	 -2.421367
F	 1.280184	 0.936653	 -2.467364

	symmetry c1
}
set optking {
	frozen_dihedral = ("
		6 3 2 1
	")
}

ee,wfn = optimize('scf', return_wfn=True)
oeprop( wfn, 'DIPOLE', 'QUADRUPOLE', 'MULLIKEN_CHARGES')
f=open( 'psi4out.xyz', 'w' )
f.write( "12  " )
f.write( str(ee) + "\n" )
f.write( MOL.save_string_xyz() )
f.close()
--------------------------------------------------------------------------

    Molecular point group: c1
  Charge       = 0
  Multiplicity = 1
  Basis Set: CC-PVTZ
  Basis Set:
  @DF-RHF Final Energy:  -786.58534709682169
    Total Energy =                       -786.5853470968220336
    Molecular point group: c1
  Basis Set: CC-PVTZ
  Basis Set:
  Basis Set: CC-PVTZ
  Basis Set:
  @DF-RHF Final Energy:  -786.56606200257886
    Total Energy =                       -786.5660620025787466
  Basis Set: CC-PVTZ
  Basis Set:
  Basis Set: CC-PVTZ
  Basis Set:
  @DF-RHF Final Energy:  -786.58682789625459
    Total Energy =                       -786.5868278962541353
  Basis Set: CC-PVTZ
  Basis Set:
  Basis Set: CC-PVTZ
  Basis Set:
  @DF-RHF Final Energy:  -786.58760751949546
    Total Energy =                       -786.5876075194950090
  Basis Set: CC-PVTZ
  Basis Set:
  Basis Set: CC-PVTZ
  Basis Set:
  @DF-RHF Final Energy:  -786.58772320646995
    Total Energy =                       -786.5877232064697182
  Basis Set: CC-PVTZ
  Basis Set:
  Basis Set: CC-PVTZ
  Basis Set:
  @DF-RHF Final Energy:  -786.58774916579205
    Total Energy =                       -786.5877491657919336
  Basis Set: CC-PVTZ
  Basis Set:
  Basis Set: CC-PVTZ
  Basis Set:
  @DF-RHF Final Energy:  -786.58775446590391
    Total Energy =                       -786.5877544659043679
  Basis Set: CC-PVTZ
  Basis Set:
  Charge       = 0
  Multiplicity = 1
  Basis Set: CC-PVTZ
  Basis Set:

    Orbital Energies (a.u.)
    -----------------------

    Doubly Occupied:

       1A    -26.362331     2A    -26.359049     3A    -26.357194
       4A    -26.351832     5A    -26.348288     6A    -26.348046
       7A    -20.608531     8A    -11.522118     9A    -11.516001
      10A    -11.351510    11A     -1.772698    12A     -1.762306
      13A     -1.667661    14A     -1.666402    15A     -1.657701
      16A     -1.655954    17A     -1.439065    18A     -1.104432
      19A     -1.001354    20A     -0.941706    21A     -0.874845
      22A     -0.865364    23A     -0.860907    24A     -0.849247
      25A     -0.838615    26A     -0.792031    27A     -0.759158
      28A     -0.738512    29A     -0.727437    30A     -0.724397
      31A     -0.720426    32A     -0.692028    33A     -0.688633
      34A     -0.674906    35A     -0.674114    36A     -0.668927
      37A     -0.658964    38A     -0.645116    39A     -0.622262
      40A     -0.550168    41A     -0.509652

  @DF-RHF Final Energy:  -786.58775536669384

   => Energetics <=

    Nuclear Repulsion Energy =            671.1198337362033044
    One-Electron Energy =               -2429.5554137746175911
    Two-Electron Energy =                 971.8478246717204456
    DFT Exchange-Correlation Energy =       0.0000000000000000
    Empirical Dispersion Energy =           0.0000000000000000
    PCM Polarization Energy =               0.0000000000000000
    EFP Energy =                            0.0000000000000000
    Total Energy =                       -786.5877553666937274
    Molecular point group: c1
  Basis Set: CC-PVTZ
  Basis Set:

  -Total Gradient:
     Atom            X                  Y                   Z
    ------   -----------------  -----------------  -----------------
       1        0.001464258909     0.000125986254    -0.000261742260
       2       -0.001947339042    -0.000143283631     0.000021957239
       3        0.001181614852     0.000077590245     0.001429155708
       4        0.000101375659    -0.000055185251    -0.000143836367
       5        0.000131399917     0.000058071631    -0.000067623023
       6       -0.000677804011    -0.000124538769    -0.001081938215
       7       -0.000038795477     0.000095818555    -0.000051999110
       8       -0.000099099880    -0.000108794090    -0.000010077002
       9       -0.000062926494     0.000081864369     0.000051577165
      10       -0.000011521096    -0.000036808884     0.000023954827
      11       -0.000029999580    -0.000006754954     0.000088117714
      12       -0.000011163757     0.000036034531     0.000002453318

  **** Optimization is complete! (in 8 steps) ****
    Final optimized geometry and variables:
    Molecular point group: c1

    Geometry (in Angstrom), charge = 0, multiplicity = 1:

    H           -0.498941864002     2.086950949507     1.186254400054
    O           -0.655164221462     1.718079052585     0.334289093056
    C           -0.572896619272     0.342512840866     0.366450315068
    C            0.706194448225    -0.118278918288     1.065824059432
    C           -0.695505224082    -0.136861025658    -1.078416758583
    H           -1.400339935161    -0.110339668871     0.902613270917
    F            0.763309770522     0.472889174640     2.246938735742
    F            0.705218951288    -1.410784670914     1.270581396079
    F            1.793793087403     0.197961742548     0.415257218514
    F           -1.874813044305     0.194573367084    -1.545104250356
    F           -0.591657947034    -1.444693562021    -1.142815753967
    F            0.211598494581     0.383546260294    -1.860615938049

  Mulliken Charges: (a.u.)
   Center  Symbol    Alpha    Beta     Spin     Total
       1     H     0.38372  0.38372  0.00000  0.23257
       2     O     4.18509  4.18509  0.00000 -0.37019
       3     C     2.99718  2.99718  0.00000  0.00565
       4     C     2.68393  2.68393  0.00000  0.63214
       5     C     2.67703  2.67703  0.00000  0.64595
       6     H     0.44510  0.44510  0.00000  0.10979
       7     F     4.61472  4.61472  0.00000 -0.22944
       8     F     4.60231  4.60231  0.00000 -0.20462
       9     F     4.59950  4.59950  0.00000 -0.19900
      10     F     4.60391  4.60391  0.00000 -0.20782
      11     F     4.60618  4.60618  0.00000 -0.21237
      12     F     4.60133  4.60133  0.00000 -0.20266

   Total alpha = 41.00000, Total beta = 41.00000, Total charge = -0.00000

*** Psi4 exiting successfully. Buy a developer a beer!
