  ==> Input File <==

--------------------------------------------------------------------------
set {
	reference rhf
	basis 6-31G*
}

set_num_threads( 4 )
memory 2 gb

molecule MOL {
0 1

O	 1.846825	 1.296220	 0.000415
C	 1.705091	 0.115954	 0.001797
C	 0.381791	 -0.609817	 0.001258
O	 2.721346	 -0.737485	 -0.000216
C	 -0.823008	 0.326187	 0.001381
H	 0.371250	 -1.265087	 -0.865474
H	 0.370908	 -1.265746	 0.867490
C	 -2.149452	 -0.435131	 -0.000098
H	 -0.770201	 0.977095	 -0.865636
H	 -0.771220	 0.975655	 0.869608
C	 -3.368779	 0.488503	 -0.000883
H	 -2.193746	 -1.087250	 -0.871175
H	 -2.195311	 -1.087803	 0.870418
C	 -4.076843	 0.542897	 1.352239
H	 -4.070441	 0.156481	 -0.762836
H	 -3.059623	 1.491190	 -0.287554
H	 -4.428881	 -0.440569	 1.650699
H	 -4.936109	 1.205509	 1.319743
H	 -3.409825	 0.904343	 2.129899
C	 4.024888	 -0.184556	 -0.001949
H	 4.179030	 0.422472	 -0.882452
H	 4.701782	 -1.024608	 -0.003642
H	 4.181981	 0.421185	 0.878906

	symmetry c1
}
set optking {
	frozen_dihedral = ("
		15 11 8 12
	")
}

ee = optimize('scf')
oeprop('DIPOLE', 'QUADRUPOLE', 'MULLIKEN_CHARGES')
f=open( 'psi4out.xyz', 'w' )
f.write( "23  " )
f.write( str(ee) + "\n" )
f.write( MOL.save_string_xyz() )
f.close()
--------------------------------------------------------------------------

    Molecular point group: c1
  Charge       = 0
  Multiplicity = 1
  Basis Set: 6-31G*
  Basis Set:
  @DF-RHF Final Energy:  -422.97107803450717
    Total Energy =                       -422.9710780345075136
    Molecular point group: c1
  Basis Set: 6-31G*
  Basis Set:
  Basis Set: 6-31G*
  Basis Set:
  @DF-RHF Final Energy:  -422.97132059070594
    Total Energy =                       -422.9713205907060001
  Basis Set: 6-31G*
  Basis Set:
  Basis Set: 6-31G*
  Basis Set:
  @DF-RHF Final Energy:  -422.97118513980507
    Total Energy =                       -422.9711851398050158
  Basis Set: 6-31G*
  Basis Set:
  Basis Set: 6-31G*
  Basis Set:
  @DF-RHF Final Energy:  -422.97144307598387
    Total Energy =                       -422.9714430759843253
  Basis Set: 6-31G*
  Basis Set:
  Basis Set: 6-31G*
  Basis Set:
  @DF-RHF Final Energy:  -422.97144654819061
    Total Energy =                       -422.9714465481904426
  Basis Set: 6-31G*
  Basis Set:
  Basis Set: 6-31G*
  Basis Set:
  @DF-RHF Final Energy:  -422.97144761795829
    Total Energy =                       -422.9714476179581197
  Basis Set: 6-31G*
  Basis Set:
  Charge       = 0
  Multiplicity = 1
  Basis Set: 6-31G*
  Basis Set:

    Orbital Energies (a.u.)
    -----------------------

    Doubly Occupied:

       1A    -20.603683     2A    -20.545490     3A    -11.372349
       4A    -11.280882     5A    -11.235422     6A    -11.219775
       7A    -11.217549     8A    -11.216093     9A    -11.209675
      10A     -1.469383    11A     -1.362834    12A     -1.092131
      13A     -1.041960    14A     -0.986403    15A     -0.931493
      16A     -0.847899    17A     -0.792451    18A     -0.767704
      19A     -0.696729    20A     -0.683462    21A     -0.672066
      22A     -0.642736    23A     -0.613755    24A     -0.597702
      25A     -0.582691    26A     -0.564114    27A     -0.538415
      28A     -0.528182    29A     -0.521788    30A     -0.503586
      31A     -0.495258    32A     -0.468093    33A     -0.460699
      34A     -0.459137    35A     -0.454119    36A     -0.435465

  @DF-RHF Final Energy:  -422.97144782111400

   => Energetics <=

    Nuclear Repulsion Energy =            454.4926274867475513
    One-Electron Energy =               -1476.7058093054715755
    Two-Electron Energy =                 599.2417339976097992
    DFT Exchange-Correlation Energy =       0.0000000000000000
    Empirical Dispersion Energy =           0.0000000000000000
    PCM Polarization Energy =               0.0000000000000000
    EFP Energy =                            0.0000000000000000
    Total Energy =                       -422.9714478211142250
    Molecular point group: c1
  Basis Set: 6-31G*
  Basis Set:

  -Total Gradient:
     Atom            X                  Y                   Z
    ------   -----------------  -----------------  -----------------
       1       -0.000006870683     0.000000615631    -0.000005003497
       2        0.000004248822     0.000008564069     0.000009834958
       3       -0.000003194968    -0.000003047082     0.000011759542
       4       -0.000004595554    -0.000008831771     0.000003497406
       5        0.000005037320     0.000013135767    -0.000001762057
       6       -0.000002620841     0.000000305815    -0.000005357183
       7        0.000003750558    -0.000001221208    -0.000003552311
       8        0.002029501806     0.002805530250    -0.002335243817
       9        0.000000098218    -0.000001314766    -0.000005244720
      10       -0.000002089221     0.000003947443    -0.000004248112
      11       -0.001844384904    -0.002581072236     0.002732429489
      12       -0.001394034518    -0.001930403671     0.001514774090
      13       -0.000005593201    -0.000011665670    -0.000002052917
      14        0.000002678088    -0.000008361822     0.000008938643
      15        0.001213500490     0.001709892286    -0.001900924519
      16        0.000004753168     0.000002464529    -0.000009182287
      17        0.000000543653    -0.000000142544     0.000001945245
      18        0.000004144200     0.000000902153    -0.000006498700
      19        0.000000667806    -0.000000574590    -0.000000910985
      20       -0.000003852372     0.000002406943    -0.000003870802
      21        0.000001669073     0.000000455854     0.000000148789
      22       -0.000001564780    -0.000001132946     0.000000152878
      23       -0.000001792161    -0.000000452438     0.000000370869

  **** Optimization is complete! (in 7 steps) ****
    Final optimized geometry and variables:
    Molecular point group: c1

    Geometry (in Angstrom), charge = 0, multiplicity = 1:

    O            1.771470933778     1.203238593462    -0.167379445443
    C            1.632078595060     0.022754036766    -0.155897751596
    C            0.310134386553    -0.705460606859    -0.160052599751
    O            2.649827680779    -0.828640488289    -0.137049866476
    C           -0.895935768118     0.227961015915    -0.184207735347
    H            0.308836787635    -1.371896352465    -1.018400258543
    H            0.291874944200    -1.350267062490     0.714369561530
    C           -2.221588201733    -0.534950265158    -0.195980998854
    H           -0.834383824835     0.870839383410    -1.056458255855
    H           -0.857132103976     0.886221911392     0.678510731089
    C           -3.458683894978     0.386819083973    -0.151558516351
    H           -2.268885906485    -1.181140333977    -1.069190163658
    H           -2.249728791491    -1.210389244061     0.657632982730
    C           -4.120978528067     0.454520381432     1.224040811363
    H           -4.184547366786     0.070278649630    -0.894915299052
    H           -3.165856745810     1.390730194825    -0.450335229008
    H           -4.493400707551    -0.519697314934     1.527550596759
    H           -4.958697673986     1.145067338191     1.224142754672
    H           -3.417191376574     0.789181491237     1.981280678864
    C            3.952312209862    -0.273170422082    -0.130747231957
    H            4.115171929723     0.323855291169    -1.016495441568
    H            4.630732596085    -1.111899020571    -0.115181531858
    H            4.098454920616     0.343018407977     0.744733743372

  Mulliken Charges: (a.u.)
   Center  Symbol    Alpha    Beta     Spin     Total
       1     O     4.28611  4.28611  0.00000 -0.57222
       2     C     2.60517  2.60517  0.00000  0.78966
       3     C     3.20858  3.20858  0.00000 -0.41716
       4     O     4.30722  4.30722  0.00000 -0.61444
       5     C     3.15374  3.15374  0.00000 -0.30748
       6     H     0.40060  0.40060  0.00000  0.19881
       7     H     0.40051  0.40051  0.00000  0.19898
       8     C     3.15781  3.15781  0.00000 -0.31562
       9     H     0.41103  0.41103  0.00000  0.17794
      10     H     0.41162  0.41162  0.00000  0.17677
      11     C     3.15585  3.15585  0.00000 -0.31171
      12     H     0.42080  0.42080  0.00000  0.15841
      13     H     0.42231  0.42231  0.00000  0.15537
      14     C     3.23980  3.23980  0.00000 -0.47959
      15     H     0.41943  0.41943  0.00000  0.16114
      16     H     0.41835  0.41835  0.00000  0.16330
      17     H     0.42158  0.42158  0.00000  0.15683
      18     H     0.41928  0.41928  0.00000  0.16144
      19     H     0.42120  0.42120  0.00000  0.15759
      20     C     3.09245  3.09245  0.00000 -0.18489
      21     H     0.40907  0.40907  0.00000  0.18187
      22     H     0.40842  0.40842  0.00000  0.18316
      23     H     0.40907  0.40907  0.00000  0.18185

   Total alpha = 36.00000, Total beta = 36.00000, Total charge = -0.00000
