  ==> Input File <==

--------------------------------------------------------------------------
set {
	reference rhf
	basis 6-31G*
}

set_num_threads( 4 )
memory 2 gb

molecule MOL {
0 1

H	 2.418836	 -1.702661	 0.789816
O	 2.826016	 -1.159218	 0.122261
C	 2.077727	 -0.067559	 -0.035091
C	 0.624473	 -0.343591	 0.253101
O	 2.542965	 0.974826	 -0.363729
C	 -0.265902	 0.883932	 0.072916
H	 0.324016	 -1.163849	 -0.390541
H	 0.565024	 -0.726111	 1.268924
C	 -1.728698	 0.646073	 0.462102
H	 -0.209144	 1.219470	 -0.958188
H	 0.135059	 1.692851	 0.673903
C	 -2.482460	 -0.343073	 -0.431425
H	 -2.245265	 1.602650	 0.432430
H	 -1.779332	 0.308348	 1.496285
C	 -3.960546	 -0.461025	 -0.060175
H	 -2.395034	 -0.026811	 -1.468912
H	 -2.024850	 -1.327147	 -0.371646
H	 -4.472726	 -1.168004	 -0.705284
H	 -4.465146	 0.496508	 -0.151489
H	 -4.081218	 -0.800940	 0.964585

	symmetry c1
}
set optking {
	frozen_dihedral = ("
		1 2 3 5
	")
}

ee = optimize('scf')
oeprop('DIPOLE', 'QUADRUPOLE', 'MULLIKEN_CHARGES')
f=open( 'psi4out.xyz', 'w' )
f.write( "20  " )
f.write( str(ee) + "\n" )
f.write( MOL.save_string_xyz() )
f.close()
--------------------------------------------------------------------------

    Molecular point group: c1
  Charge       = 0
  Multiplicity = 1
  Basis Set: 6-31G*
  Basis Set:
  @DF-RHF Final Energy:  -383.93318873403285
    Total Energy =                       -383.9331887340329672
    Molecular point group: c1
  Basis Set: 6-31G*
  Basis Set:
  Basis Set: 6-31G*
  Basis Set:
  @DF-RHF Final Energy:  -383.93457523352157
    Total Energy =                       -383.9345752335219686
  Basis Set: 6-31G*
  Basis Set:
  Basis Set: 6-31G*
  Basis Set:
  @DF-RHF Final Energy:  -383.93472162897513
    Total Energy =                       -383.9347216289755238
  Basis Set: 6-31G*
  Basis Set:
  Basis Set: 6-31G*
  Basis Set:
  @DF-RHF Final Energy:  -383.93457140465659
    Total Energy =                       -383.9345714046565945
  Basis Set: 6-31G*
  Basis Set:
  Basis Set: 6-31G*
  Basis Set:
  @DF-RHF Final Energy:  -383.93474761670518
    Total Energy =                       -383.9347476167051809
  Basis Set: 6-31G*
  Basis Set:
  Charge       = 0
  Multiplicity = 1
  Basis Set: 6-31G*
  Basis Set:

    Orbital Energies (a.u.)
    -----------------------

    Doubly Occupied:

       1A    -20.608126     2A    -20.550801     3A    -11.380500
       4A    -11.250749     5A    -11.228223     6A    -11.225408
       7A    -11.224760     8A    -11.216151     9A     -1.465758
      10A     -1.369835    11A     -1.100838    12A     -1.043761
      13A     -0.960496    14A     -0.866070    15A     -0.827968
      16A     -0.792451    17A     -0.719585    18A     -0.669412
      19A     -0.658670    20A     -0.635582    21A     -0.617227
      22A     -0.596228    23A     -0.565113    24A     -0.560371
      25A     -0.548743    26A     -0.515340    27A     -0.501348
      28A     -0.479996    29A     -0.473369    30A     -0.471357
      31A     -0.462289    32A     -0.440458

  @DF-RHF Final Energy:  -383.93474743471222

   => Energetics <=

    Nuclear Repulsion Energy =            375.7107327113641304
    One-Electron Energy =               -1267.2369911611872340
    Two-Electron Energy =                 507.5915110151109957
    DFT Exchange-Correlation Energy =       0.0000000000000000
    Empirical Dispersion Energy =           0.0000000000000000
    PCM Polarization Energy =               0.0000000000000000
    EFP Energy =                            0.0000000000000000
    Total Energy =                       -383.9347474347121079
    Molecular point group: c1
  Basis Set: 6-31G*
  Basis Set:

  -Total Gradient:
     Atom            X                  Y                   Z
    ------   -----------------  -----------------  -----------------
       1        0.003211917522     0.003108732961     0.004332687316
       2       -0.003757374066    -0.003222875573    -0.003190962002
       3       -0.000248854730    -0.001271747146    -0.006319103110
       4        0.000025450096    -0.000000322273    -0.000018990234
       5        0.000821106657     0.001388961532     0.005173368287
       6        0.000001375104    -0.000011713492    -0.000019899056
       7        0.000027463168     0.000029459335     0.000032709083
       8       -0.000002930256     0.000001932764     0.000012181663
       9       -0.000007212335    -0.000017789033     0.000009591957
      10        0.000001008608    -0.000027028865    -0.000001979574
      11       -0.000014319095     0.000006461336    -0.000019242448
      12       -0.000022582213     0.000010689378     0.000011214911
      13       -0.000011616881     0.000004813362     0.000023820564
      14        0.000014175060    -0.000025878496    -0.000009991664
      15       -0.000000970530     0.000013905393    -0.000012452925
      16        0.000008289308    -0.000005721262    -0.000012659690
      17       -0.000045498126     0.000017098602     0.000011767235
      18       -0.000001796497     0.000002203971    -0.000002974601
      19       -0.000001720653    -0.000000530533     0.000003246648
      20        0.000004089846    -0.000000651963    -0.000002332359

  **** Optimization is complete! (in 6 steps) ****
    Final optimized geometry and variables:
    Molecular point group: c1

    Geometry (in Angstrom), charge = 0, multiplicity = 1:

    H            2.581911063892    -1.726559524513     0.778589196046
    O            2.901669129122    -1.130449659766     0.114252645447
    C            2.089809898272    -0.070802085354    -0.039489783955
    C            0.628581484817    -0.343901375465     0.253975886853
    O            2.526627095254     0.972357955312    -0.378898120839
    C           -0.262207997821     0.882777811683     0.068541022279
    H            0.321165599264    -1.165461931939    -0.386405808582
    H            0.552733946363    -0.713928666173     1.276644597800
    C           -1.726006126116     0.649169153641     0.456237055667
    H           -0.200787658826     1.211313265420    -0.963978738505
    H            0.140989294774     1.692950881575     0.665714264773
    C           -2.483718922890    -0.335074204402    -0.439430142868
    H           -2.238091571783     1.607988902210     0.427249801885
    H           -1.779859538206     0.311054760561     1.490329510807
    C           -3.963757550746    -0.442602516873    -0.072962213476
    H           -2.390461002178    -0.019944223605    -1.476592880003
    H           -2.033517545066    -1.322748631456    -0.378232773604
    H           -4.478594583658    -1.146189547734    -0.719534864294
    H           -4.461109519158     0.518376282045    -0.166593868217
    H           -4.090476503499    -0.780985006978     0.951603357381

  Mulliken Charges: (a.u.)
   Center  Symbol    Alpha    Beta     Spin     Total
       1     H     0.26946  0.26946  0.00000  0.46108
       2     O     4.35579  4.35579  0.00000 -0.71158
       3     C     2.61030  2.61030  0.00000  0.77941
       4     C     3.23351  3.23351  0.00000 -0.46701
       5     O     4.25867  4.25867  0.00000 -0.51733
       6     C     3.15258  3.15258  0.00000 -0.30516
       7     H     0.39761  0.39761  0.00000  0.20478
       8     H     0.41164  0.41164  0.00000  0.17672
       9     C     3.15634  3.15634  0.00000 -0.31268
      10     H     0.40895  0.40895  0.00000  0.18211
      11     H     0.40619  0.40619  0.00000  0.18761
      12     C     3.15469  3.15469  0.00000 -0.30937
      13     H     0.41634  0.41634  0.00000  0.16731
      14     H     0.42464  0.42464  0.00000  0.15073
      15     C     3.23933  3.23933  0.00000 -0.47867
      16     H     0.42008  0.42008  0.00000  0.15985
      17     H     0.42477  0.42477  0.00000  0.15045
      18     H     0.41775  0.41775  0.00000  0.16450
      19     H     0.41977  0.41977  0.00000  0.16046
      20     H     0.42160  0.42160  0.00000  0.15681

   Total alpha = 32.00000, Total beta = 32.00000, Total charge = -0.00000
