                              Psi4 1.0.54 Driver

  ==> Input File <==

--------------------------------------------------------------------------
set {
	reference rhf
	basis cc-pvtz
}

set_num_threads( 4 )
memory 2 gb

molecule MOL {
0 1

O	 -1.294715	 0.625942	 2.662785
C	 -0.583500	 1.260856	 1.953920
C	 0.681191	 0.659316	 1.373616
C	 -0.908086	 2.687266	 1.578734
C	 0.376695	 -0.140025	 0.100361
H	 1.104983	 0.002185	 2.122408
H	 1.403191	 1.439136	 1.155759
C	 1.630207	 -0.772146	 -0.501001
H	 -0.352844	 -0.901990	 0.344106
H	 -0.084570	 0.510178	 -0.639078
C	 2.907848	 -0.545876	 0.309149
H	 1.772784	 -0.391628	 -1.509394
H	 1.468529	 -1.842059	 -0.599744
C	 3.373802	 0.906639	 0.372125
H	 3.699140	 -1.146831	 -0.127906
H	 2.764321	 -0.923458	 1.318191
H	 3.519798	 1.311927	 -0.623875
H	 4.316899	 0.983758	 0.900700
H	 2.661122	 1.540651	 0.885346
H	 -0.178019	 3.350297	 2.031933
H	 -1.895931	 2.947804	 1.926372
H	 -0.842887	 2.825180	 0.505273

	symmetry c1
}
set optking {
	frozen_dihedral = ("
		3 5 8 12
	")
}

ee,wfn = optimize('scf', return_wfn=True)
oeprop( wfn, 'DIPOLE', 'QUADRUPOLE', 'MULLIKEN_CHARGES')
f=open( 'psi4out.xyz', 'w' )
f.write( "22  " )
f.write( str(ee) + "\n" )
f.write( MOL.save_string_xyz() )
f.close()
--------------------------------------------------------------------------

    Molecular point group: c1
  Charge       = 0
  Multiplicity = 1
  Basis Set: CC-PVTZ
  Basis Set:
  @DF-RHF Final Energy:  -348.18461908233633
    Total Energy =                       -348.1846190823363258
    Molecular point group: c1
  Basis Set: CC-PVTZ
  Basis Set:
  Basis Set: CC-PVTZ
  Basis Set:
  @DF-RHF Final Energy:  -348.20459232045380
    Total Energy =                       -348.2045923204539122
  Basis Set: CC-PVTZ
  Basis Set:
  Basis Set: CC-PVTZ
  Basis Set:
  @DF-RHF Final Energy:  -348.20929196604203
    Total Energy =                       -348.2092919660421444
  Basis Set: CC-PVTZ
  Basis Set:
  Basis Set: CC-PVTZ
  Basis Set:
  @DF-RHF Final Energy:  -348.21013479212809
    Total Energy =                       -348.2101347921280876
  Basis Set: CC-PVTZ
  Basis Set:
  @DF-RHF Final Energy:  -348.20904965469902
    Total Energy =                       -348.2090496546990721
  @DF-RHF Final Energy:  -348.21091024288404
    Total Energy =                       -348.2109102428839833
  @DF-RHF Final Energy:  -348.20943495555514
    Total Energy =                       -348.2094349555554231
  @DF-RHF Final Energy:  -348.21101639730159
    Total Energy =                       -348.2110163973018189
  @DF-RHF Final Energy:  -348.21113269597402
    Total Energy =                       -348.2111326959737312
  Basis Set: CC-PVTZ
  Basis Set:
  @DF-RHF Final Energy:  -348.21115152525783
    Total Energy =                       -348.2111515252578329
  Basis Set: CC-PVTZ
  Basis Set:
  Basis Set: CC-PVTZ
  Basis Set:
  @DF-RHF Final Energy:  -348.21115926933783
    Total Energy =                       -348.2111592693377133
  Basis Set: CC-PVTZ
  Basis Set:
  Basis Set: CC-PVTZ
  Basis Set:
  @DF-RHF Final Energy:  -348.21116043549409
    Total Energy =                       -348.2111604354943211
  Basis Set: CC-PVTZ
  Basis Set:
  Charge       = 0
  Multiplicity = 1
  Basis Set: CC-PVTZ
  Basis Set:

    Orbital Energies (a.u.)
    -----------------------

    Doubly Occupied:

       1A    -20.536713     2A    -11.319203     3A    -11.228968
       4A    -11.227195     5A    -11.226889     6A    -11.221320
       7A    -11.220190     8A    -11.212897     9A     -1.396940
      10A     -1.092900    11A     -1.043898    12A     -0.999363
      13A     -0.945158    14A     -0.861725    15A     -0.781800
      16A     -0.735001    17A     -0.661840    18A     -0.655696
      19A     -0.622236    20A     -0.611900    21A     -0.605010
      22A     -0.585509    23A     -0.561249    24A     -0.550121
      25A     -0.537248    26A     -0.521867    27A     -0.507770
      28A     -0.492773    29A     -0.465905    30A     -0.457781
      31A     -0.455987    32A     -0.399074

  @DF-RHF Final Energy:  -348.21116069805890

   => Energetics <=

    Nuclear Repulsion Energy =            379.3347974840425536
    One-Electron Energy =               -1223.6076640074088573
    Two-Electron Energy =                 496.0617058253076834
    DFT Exchange-Correlation Energy =       0.0000000000000000
    Empirical Dispersion Energy =           0.0000000000000000
    PCM Polarization Energy =               0.0000000000000000
    EFP Energy =                            0.0000000000000000
    Total Energy =                       -348.2111606980585634
    Molecular point group: c1
  Basis Set: CC-PVTZ
  Basis Set:

  -Total Gradient:
     Atom            X                  Y                   Z
    ------   -----------------  -----------------  -----------------
       1        0.000007142730     0.000017061406    -0.000005665034
       2       -0.000011301222    -0.000016200102     0.000000148926
       3        0.000015440755     0.000479210374    -0.000295299462
       4        0.000006098506    -0.000000930581    -0.000001316827
       5        0.000064059005    -0.000560286389     0.000482908830
       6       -0.000004965231    -0.000000977296    -0.000002573421
       7       -0.000009039116    -0.000007665793    -0.000000901861
       8       -0.000392224423    -0.000504119947    -0.000483315404
       9       -0.000004524353     0.000005442832     0.000004757315
      10       -0.000004501808     0.000000812082     0.000006074188
      11        0.000013197189     0.000018179777     0.000007005150
      12        0.000312969203     0.000593442028     0.000290420798
      13       -0.000000837984     0.000003218706    -0.000001984076
      14       -0.000005050391    -0.000016274665    -0.000005487629
      15        0.000005559107     0.000009281248     0.000002783335
      16        0.000003912644    -0.000001893993    -0.000004227862
      17       -0.000003563318     0.000001817510     0.000021863321
      18       -0.000021131623     0.000005029315    -0.000012810438
      19        0.000030442761    -0.000018586280    -0.000007029453
      20       -0.000003251960    -0.000004576535     0.000000985710
      21        0.000002056771     0.000000025960     0.000000717159
      22       -0.000000487245    -0.000002009653     0.000002946741

  **** Optimization is complete! (in 13 steps) ****
    Final optimized geometry and variables:
    Molecular point group: c1

    Geometry (in Angstrom), charge = 0, multiplicity = 1:

    O           -2.232808968910    -0.429881907365     1.605458879272
    C           -1.627747646483     0.382787607042     0.985340735238
    C           -0.207281641981     0.117759814152     0.523805138441
    C           -2.240400297098     1.712492656727     0.614397728204
    C           -0.229195290473    -0.676652679005    -0.791328540187
    H            0.278662580880    -0.453370292941     1.302305177975
    H            0.319253741437     1.055008244856     0.404247517238
    C            1.134054299281    -1.089791788446    -1.415162224982
    H           -0.810719014553    -1.570865445185    -0.607305773850
    H           -0.787720389107    -0.106964959300    -1.526741677264
    C            2.431328911109    -0.766183211892    -0.659726117457
    H            1.212451352474    -0.649174194962    -2.403554079984
    H            1.102305232749    -2.160964259004    -1.573727505398
    C            2.959452092681     0.651297198931    -0.873979197566
    H            3.192364361630    -1.457975426964    -1.005803408137
    H            2.317079742810    -0.963948184800     0.399865076447
    H            3.169186018671     0.825120592252    -1.924141011892
    H            3.881068670317     0.806819082006    -0.324676289861
    H            2.257222161137     1.410299082787    -0.553398211512
    H           -1.738003877007     2.501141940111     1.165508666782
    H           -3.291818473770     1.718181164540     0.857354591034
    H           -2.100698657991     1.919621133823    -0.440526438145

  Mulliken Charges: (a.u.)
   Center  Symbol    Alpha    Beta     Spin     Total
       1     O     4.17760  4.17760  0.00000 -0.35521
       2     C     2.85381  2.85381  0.00000  0.29238
       3     C     3.10939  3.10939  0.00000 -0.21878
       4     C     3.15766  3.15766  0.00000 -0.31532
       5     C     3.10741  3.10741  0.00000 -0.21482
       6     H     0.43728  0.43728  0.00000  0.12544
       7     H     0.44477  0.44477  0.00000  0.11047
       8     C     3.10154  3.10154  0.00000 -0.20309
       9     H     0.43779  0.43779  0.00000  0.12441
      10     H     0.44766  0.44766  0.00000  0.10469
      11     C     3.10009  3.10009  0.00000 -0.20019
      12     H     0.45185  0.45185  0.00000  0.09630
      13     H     0.44212  0.44212  0.00000  0.11575
      14     C     3.14756  3.14756  0.00000 -0.29513
      15     H     0.44213  0.44213  0.00000  0.11574
      16     H     0.44978  0.44978  0.00000  0.10044
      17     H     0.45343  0.45343  0.00000  0.09314
      18     H     0.44704  0.44704  0.00000  0.10592
      19     H     0.45720  0.45720  0.00000  0.08560
      20     H     0.44841  0.44841  0.00000  0.10319
      21     H     0.43526  0.43526  0.00000  0.12947
      22     H     0.45020  0.45020  0.00000  0.09959

   Total alpha = 32.00000, Total beta = 32.00000, Total charge =  0.00000

*** Psi4 exiting successfully. Buy a developer a beer!
