                              Psi4 1.0.54 Driver

  ==> Input File <==

--------------------------------------------------------------------------
set {
	reference rhf
	basis cc-pvtz
}

set_num_threads( 4 )
memory 2 gb

molecule MOL {
0 1

H	 -1.835082	 1.385983	 0.000069
C	 -1.300516	 0.441153	 -0.000028
O	 -0.006604	 0.654344	 -0.000106
O	 -1.828920	 -0.612308	 0.000113
C	 0.852093	 -0.482521	 -0.000161
C	 1.546496	 -0.535802	 -1.340186
H	 0.258892	 -1.368251	 0.177469
H	 1.558638	 -0.386589	 0.811969
H	 0.827014	 -0.627924	 -2.143822
H	 2.209377	 -1.392165	 -1.373127
H	 2.133276	 0.358689	 -1.506147

	symmetry c1
}
set optking {
	frozen_dihedral = ("
		7 5 3 2
	")
}

ee,wfn = optimize('scf', return_wfn=True)
oeprop( wfn, 'DIPOLE', 'QUADRUPOLE', 'MULLIKEN_CHARGES')
f=open( 'psi4out.xyz', 'w' )
f.write( "11  " )
f.write( str(ee) + "\n" )
f.write( MOL.save_string_xyz() )
f.close()
--------------------------------------------------------------------------

    Molecular point group: c1
  Charge       = 0
  Multiplicity = 1
  Basis Set: CC-PVTZ
  Basis Set:
  @DF-RHF Final Energy:  -266.92909448627142
    Total Energy =                       -266.9290944862715378
    Molecular point group: c1
  Basis Set: CC-PVTZ
  Basis Set:
  Basis Set: CC-PVTZ
  Basis Set:
  @DF-RHF Final Energy:  -266.49462627781992
    Total Energy =                       -266.4946262778199753
  Basis Set: CC-PVTZ
  Basis Set:
  Basis Set: CC-PVTZ
  Basis Set:
  @DF-RHF Final Energy:  -266.67237871321169
    Total Energy =                       -266.6723787132116286
  Basis Set: CC-PVTZ
  Basis Set:
  Basis Set: CC-PVTZ
  Basis Set:
  @DF-RHF Final Energy:  -266.85999181982129
    Total Energy =                       -266.8599918198214027
  Basis Set: CC-PVTZ
  Basis Set:
  @DF-RHF Final Energy:  -266.92406504201875
    Total Energy =                       -266.9240650420186967
  @DF-RHF Final Energy:  -266.92739875133179
    Total Energy =                       -266.9273987513317934
  @DF-RHF Final Energy:  -266.92767631708773
    Total Energy =                       -266.9276763170877302
  Basis Set: CC-PVTZ
  Basis Set:
  @DF-RHF Final Energy:  -266.92923685724134
    Total Energy =                       -266.9292368572413352
  Basis Set: CC-PVTZ
  Basis Set:
  Basis Set: CC-PVTZ
  Basis Set:
  @DF-RHF Final Energy:  -266.93005004521706
    Total Energy =                       -266.9300500452168876
  Basis Set: CC-PVTZ
  Basis Set:
  Basis Set: CC-PVTZ
  Basis Set:
  @DF-RHF Final Energy:  -266.93005484861447
    Total Energy =                       -266.9300548486145885
  Basis Set: CC-PVTZ
  Basis Set:
  Charge       = 0
  Multiplicity = 1
  Basis Set: CC-PVTZ
  Basis Set:

    Orbital Energies (a.u.)
    -----------------------

    Doubly Occupied:

       1A    -20.604570     2A    -20.544853     3A    -11.371434
       4A    -11.288652     5A    -11.224295     6A     -1.477014
       7A     -1.377523     8A     -1.051914     9A     -0.909951
      10A     -0.799387    11A     -0.748868    12A     -0.687551
      13A     -0.664471    14A     -0.618124    15A     -0.573406
      16A     -0.550114    17A     -0.537082    18A     -0.503275
      19A     -0.458787    20A     -0.458523

  @DF-RHF Final Energy:  -266.93005545875667

   => Energetics <=

    Nuclear Repulsion Energy =            180.5096193340636148
    One-Electron Energy =                -721.9797603262843495
    Two-Electron Energy =                 274.5400855334640937
    DFT Exchange-Correlation Energy =       0.0000000000000000
    Empirical Dispersion Energy =           0.0000000000000000
    PCM Polarization Energy =               0.0000000000000000
    EFP Energy =                            0.0000000000000000
    Total Energy =                       -266.9300554587566694
    Molecular point group: c1
  Basis Set: CC-PVTZ
  Basis Set:

  -Total Gradient:
     Atom            X                  Y                   Z
    ------   -----------------  -----------------  -----------------
       1       -0.000024134602     0.000067510062    -0.000021971159
       2        0.000340406673     0.000432777787     0.000370299812
       3       -0.000575055804    -0.000593707278    -0.000790316900
       4       -0.000020992880    -0.000161816927     0.000128936934
       5        0.000746470484     0.000665708772     0.000689625211
       6       -0.000029941843    -0.000023217327     0.000072178687
       7       -0.000448511238    -0.000386702256    -0.000443283313
       8       -0.000015552004    -0.000033134929     0.000011291908
       9        0.000019884669     0.000031393499    -0.000009394183
      10        0.000012333327     0.000015288525    -0.000017678885
      11       -0.000004906784    -0.000014099927     0.000010311888

  **** Optimization is complete! (in 11 steps) ****
    Final optimized geometry and variables:
    Molecular point group: c1

    Geometry (in Angstrom), charge = 0, multiplicity = 1:

    H           -1.501523701552     1.701001230216     0.226393142762
    C           -0.951160351986     0.795020374933     0.460949901278
    O            0.154049328472     0.754674206644    -0.245716647739
    O           -1.321873548618    -0.010363206564     1.237430439440
    C            1.053788353671    -0.342045706389    -0.092736155329
    C            1.074117116515    -1.169574470034    -1.359496416705
    H            0.753730524787    -0.933725110775     0.755507043294
    H            2.022154979758     0.094880538730     0.102842087901
    H            0.103784869774    -1.613468667764    -1.544026020120
    H            1.801108675638    -1.967761005392    -1.263366289270
    H            1.343659967693    -0.561251618359    -2.213534570015

  Mulliken Charges: (a.u.)
   Center  Symbol    Alpha    Beta     Spin     Total
       1     H     0.45012  0.45012  0.00000  0.09977
       2     C     2.83966  2.83966  0.00000  0.32068
       3     O     4.14968  4.14968  0.00000 -0.29937
       4     O     4.19660  4.19660  0.00000 -0.39321
       5     C     2.98125  2.98125  0.00000  0.03751
       6     C     3.13656  3.13656  0.00000 -0.27312
       7     H     0.44392  0.44392  0.00000  0.11215
       8     H     0.44891  0.44891  0.00000  0.10219
       9     H     0.44921  0.44921  0.00000  0.10159
      10     H     0.45339  0.45339  0.00000  0.09323
      11     H     0.45071  0.45071  0.00000  0.09858

   Total alpha = 20.00000, Total beta = 20.00000, Total charge = -0.00000

*** Psi4 exiting successfully. Buy a developer a beer!
