  ==> Input File <==

--------------------------------------------------------------------------
set {
	reference rhf
	basis cc-pvtz
}

set_num_threads( 4 )
memory 2 gb

molecule MOL {
0 1

H	 -3.562218	 0.456093	 -0.264644
O	 -3.096013	 -0.305898	 0.029257
C	 -1.770097	 -0.105146	 0.008227
C	 -1.212328	 1.098235	 -0.405540
C	 -0.958019	 -1.149629	 0.417822
H	 -1.848891	 1.903926	 -0.721888
C	 0.153835	 1.250841	 -0.407580
H	 -1.408431	 -2.069278	 0.733092
C	 0.408147	 -0.980659	 0.409861
H	 0.596482	 2.174271	 -0.724520
C	 0.981121	 0.213562	 0.000000
H	 1.039121	 -1.790315	 0.727426
C	 2.447402	 0.371303	 0.000000
O	 3.227427	 -0.521847	 0.000000
H	 2.796538	 1.409525	 0.000000

	symmetry c1
}
set optking {
	frozen_dihedral = ("
		7 11 13 14
	")
}

ee = optimize('scf')
oeprop('DIPOLE', 'QUADRUPOLE', 'MULLIKEN_CHARGES')
f=open( 'psi4out.xyz', 'w' )
f.write( "15  " )
f.write( str(ee) + "\n" )
f.write( MOL.save_string_xyz() )
f.close()
--------------------------------------------------------------------------

    Molecular point group: c1
  Charge       = 0
  Multiplicity = 1
  Basis Set: CC-PVTZ
  Basis Set:
  @DF-RHF Final Energy:  -418.44059400881105
    Total Energy =                       -418.4405940088109901
    Molecular point group: c1
  Basis Set: CC-PVTZ
  Basis Set:
  Basis Set: CC-PVTZ
  Basis Set:
  @DF-RHF Final Energy:  -418.44014751277109
    Total Energy =                       -418.4401475127709773
  Basis Set: CC-PVTZ
  Basis Set:
  Basis Set: CC-PVTZ
  Basis Set:
  @DF-RHF Final Energy:  -418.44092462143715
    Total Energy =                       -418.4409246214371478
  Basis Set: CC-PVTZ
  Basis Set:
  Basis Set: CC-PVTZ
  Basis Set:
  @DF-RHF Final Energy:  -418.44114712492626
    Total Energy =                       -418.4411471249260330
  Basis Set: CC-PVTZ
  Basis Set:
  Basis Set: CC-PVTZ
  Basis Set:
  @DF-RHF Final Energy:  -418.44115434776330
    Total Energy =                       -418.4411543477626765
  Basis Set: CC-PVTZ
  Basis Set:
  Charge       = 0
  Multiplicity = 1
  Basis Set: CC-PVTZ
  Basis Set:

    Orbital Energies (a.u.)
    -----------------------

    Doubly Occupied:

       1A    -20.604468     2A    -20.546760     3A    -11.323236
       4A    -11.321943     5A    -11.260237     6A    -11.251842
       7A    -11.242273     8A    -11.237366     9A    -11.236080
      10A     -1.437574    11A     -1.402860    12A     -1.175055
      13A     -1.046412    14A     -1.040177    15A     -0.897044
      16A     -0.861667    17A     -0.806120    18A     -0.761360
      19A     -0.699461    20A     -0.691021    21A     -0.643286
      22A     -0.629719    23A     -0.614898    24A     -0.611459
      25A     -0.588820    26A     -0.562065    27A     -0.552792
      28A     -0.509148    29A     -0.490782    30A     -0.421903
      31A     -0.361624    32A     -0.331709

  @DF-RHF Final Energy:  -418.44115637028676

   => Energetics <=

    Nuclear Repulsion Energy =            402.3096046696083476
    One-Electron Energy =               -1367.1791995209405286
    Two-Electron Energy =                 546.4284384810457595
    DFT Exchange-Correlation Energy =       0.0000000000000000
    Empirical Dispersion Energy =           0.0000000000000000
    PCM Polarization Energy =               0.0000000000000000
    EFP Energy =                            0.0000000000000000
    Total Energy =                       -418.4411563702864214
    Molecular point group: c1
  Basis Set: CC-PVTZ
  Basis Set:

  -Total Gradient:
     Atom            X                  Y                   Z
    ------   -----------------  -----------------  -----------------
       1       -0.000014313749     0.000002521890     0.000000556971
       2        0.000004393688     0.000026628409    -0.000000591128
       3        0.000025880515    -0.000020190952    -0.000035087897
       4       -0.000025490323    -0.000001348851     0.000005232866
       5        0.000010328576     0.000030231859    -0.000004774300
       6       -0.000009811307    -0.000004390656     0.000008669091
       7        0.000044701306    -0.001315410511    -0.003258983930
       8        0.000006401573     0.000001864209    -0.000001714382
       9       -0.000027309437     0.000045107722     0.000059462497
      10       -0.000012898823    -0.000004573301     0.000001968715
      11       -0.000052365617     0.001754919331     0.002800503809
      12        0.000006387149    -0.000002396917    -0.000025205765
      13        0.000225417062    -0.000385370738     0.004758578074
      14       -0.000160721402    -0.000128629097    -0.004318858003
      15       -0.000020599219     0.000001037600     0.000010243380

  **** Optimization is complete! (in 6 steps) ****
    Final optimized geometry and variables:
    Molecular point group: c1

    Geometry (in Angstrom), charge = 0, multiplicity = 1:

    H           -3.565269210412     0.471595873345    -0.302620952529
    O           -3.097615056232    -0.287520049848    -0.003250766937
    C           -1.772856628255    -0.077652146113    -0.007612761726
    C           -1.213908666622     1.121496972368    -0.409058539556
    C           -0.960786590865    -1.126787836664     0.412104050095
    H           -1.842344572426     1.927635278486    -0.739540497657
    C            0.159293824759     1.271704779283    -0.379891958305
    H           -1.418406046206    -2.047220154825     0.715350768481
    C            0.400291861811    -0.967074083801     0.420561580031
    H            0.591591260288     2.205823268413    -0.688301238765
    C            0.978285474198     0.241116048894     0.037438637788
    H            1.038199357009    -1.773632333880     0.723817420424
    C            2.445225272571     0.397348547554    -0.017803902402
    O            3.222317004093    -0.497456210322    -0.013490435328
    H            2.793895966340     1.432255102646    -0.106662642780

  Mulliken Charges: (a.u.)
   Center  Symbol    Alpha    Beta     Spin     Total
       1     H     0.38576  0.38576  0.00000  0.22847
       2     O     4.16610  4.16610  0.00000 -0.33219
       3     C     2.84468  2.84468  0.00000  0.31063
       4     C     3.13485  3.13485  0.00000 -0.26969
       5     C     3.10550  3.10550  0.00000 -0.21100
       6     H     0.43222  0.43222  0.00000  0.13555
       7     C     3.07495  3.07495  0.00000 -0.14989
       8     H     0.41564  0.41564  0.00000  0.16873
       9     C     3.06142  3.06142  0.00000 -0.12284
      10     H     0.42140  0.42140  0.00000  0.15719
      11     C     2.99731  2.99731  0.00000  0.00537
      12     H     0.40860  0.40860  0.00000  0.18280
      13     C     2.91492  2.91492  0.00000  0.17016
      14     O     4.17568  4.17568  0.00000 -0.35136
      15     H     0.46097  0.46097  0.00000  0.07806

   Total alpha = 32.00000, Total beta = 32.00000, Total charge = -0.00000
