  ==> Input File <==

--------------------------------------------------------------------------
set {
	reference rhf
	basis cc-pvtz
}

set_num_threads( 4 )
memory 2 gb

molecule MOL {
0 1

H	 -0.627796	 2.995099	 2.331575
O	 -0.492445	 3.275128	 1.444916
C	 -0.308880	 2.166501	 0.609818
C	 1.056580	 1.539586	 0.810537
H	 -1.079240	 1.417847	 0.765356
H	 -0.396372	 2.520005	 -0.407562
O	 1.172093	 0.457955	 -0.054438
H	 1.168318	 1.214719	 1.846333
H	 1.828939	 2.280640	 0.615924
C	 2.395478	 -0.199028	 -0.000366
H	 2.505946	 -0.901710	 -0.823354
H	 3.174616	 0.545641	 -0.071768
H	 2.513730	 -0.742241	 0.934223

	symmetry c1
}
set optking {
	frozen_dihedral = ("
		4 7 10 13
	")
}

ee = optimize('scf')
oeprop('DIPOLE', 'QUADRUPOLE', 'MULLIKEN_CHARGES')
f=open( 'psi4out.xyz', 'w' )
f.write( "13  " )
f.write( str(ee) + "\n" )
f.write( MOL.save_string_xyz() )
f.close()
--------------------------------------------------------------------------

    Molecular point group: c1
  Charge       = 0
  Multiplicity = 1
  Basis Set: CC-PVTZ
  Basis Set:
  @DF-RHF Final Energy:  -268.06104307728651
    Total Energy =                       -268.0610430772866266
    Molecular point group: c1
  Basis Set: CC-PVTZ
  Basis Set:
  Basis Set: CC-PVTZ
  Basis Set:
  @DF-RHF Final Energy:  -268.06189815841287
    Total Energy =                       -268.0618981584127596
  Basis Set: CC-PVTZ
  Basis Set:
  Basis Set: CC-PVTZ
  Basis Set:
  @DF-RHF Final Energy:  -268.06210816909766
    Total Energy =                       -268.0621081690977690
  Basis Set: CC-PVTZ
  Basis Set:
  Charge       = 0
  Multiplicity = 1
  Basis Set: CC-PVTZ
  Basis Set:

    Orbital Energies (a.u.)
    -----------------------

    Doubly Occupied:

       1A    -20.555909     2A    -20.552874     3A    -11.269321
       4A    -11.267738     5A    -11.267469     6A     -1.391896
       7A     -1.369266     8A     -1.019793     9A     -0.914020
      10A     -0.842792    11A     -0.712181    12A     -0.676313
      13A     -0.662686    14A     -0.639884    15A     -0.597456
      16A     -0.571408    17A     -0.547038    18A     -0.491475
      19A     -0.483244    20A     -0.441699    21A     -0.424615

  @DF-RHF Final Energy:  -268.06210917943929

   => Energetics <=

    Nuclear Repulsion Energy =            190.4898746452027183
    One-Electron Energy =                -743.7058171699711693
    Two-Electron Energy =                 285.1538333453290761
    DFT Exchange-Correlation Energy =       0.0000000000000000
    Empirical Dispersion Energy =           0.0000000000000000
    PCM Polarization Energy =               0.0000000000000000
    EFP Energy =                            0.0000000000000000
    Total Energy =                       -268.0621091794394033
    Molecular point group: c1
  Basis Set: CC-PVTZ
  Basis Set:

  -Total Gradient:
     Atom            X                  Y                   Z
    ------   -----------------  -----------------  -----------------
       1        0.000004323120    -0.000014555378    -0.000005495083
       2        0.000081359798    -0.000060895059    -0.000045730009
       3       -0.000052622600    -0.000047350581    -0.000069139246
       4        0.000451681581     0.000601658679    -0.000572242154
       5        0.000001655504    -0.000003029562     0.000004347393
       6       -0.000024290331     0.000023751743    -0.000008339672
       7       -0.000688002379    -0.001184958678     0.000854947564
       8        0.000004335153     0.000013490090     0.000013838751
       9        0.000014648452    -0.000021097401    -0.000031352684
      10        0.000867123037     0.001665451267     0.000413382420
      11       -0.000048767655     0.000007946008    -0.000010609982
      12       -0.000012122635     0.000023269932    -0.000000105633
      13       -0.000599321049    -0.001003681060    -0.000543501668

  **** Optimization is complete! (in 4 steps) ****
    Final optimized geometry and variables:
    Molecular point group: c1

    Geometry (in Angstrom), charge = 0, multiplicity = 1:

    H           -1.400205303197     1.523652948386     1.744468886657
    O           -1.264575980088     1.805305056313     0.858350679156
    C           -1.072080474583     0.698452988034     0.023025765751
    C            0.296222159839     0.079388545407     0.228346487922
    H           -1.838893041267    -0.054525505100     0.175140766915
    H           -1.157631656659     1.052324642330    -0.994424999931
    O            0.422764476744    -0.996716166511    -0.641912646424
    H            0.404259441927    -0.248451828405     1.263788234280
    H            1.065156930248     0.825347441185     0.040194366327
    C            1.646753916766    -1.652491922244    -0.581816763103
    H            1.683686670938    -2.357174229397    -1.399989130711
    H            2.477296587523    -0.958254706389    -0.680356562940
    H            1.756885081448    -2.201498884672     0.350695957986

  Mulliken Charges: (a.u.)
   Center  Symbol    Alpha    Beta     Spin     Total
       1     H     0.39411  0.39411  0.00000  0.21177
       2     O     4.20209  4.20209  0.00000 -0.40419
       3     C     2.97346  2.97346  0.00000  0.05308
       4     C     2.96524  2.96524  0.00000  0.06951
       5     H     0.46670  0.46670  0.00000  0.06660
       6     H     0.45276  0.45276  0.00000  0.09449
       7     O     4.17567  4.17567  0.00000 -0.35134
       8     H     0.48278  0.48278  0.00000  0.03444
       9     H     0.46871  0.46871  0.00000  0.06257
      10     C     3.03174  3.03174  0.00000 -0.06349
      11     H     0.44632  0.44632  0.00000  0.10736
      12     H     0.47112  0.47112  0.00000  0.05776
      13     H     0.46928  0.46928  0.00000  0.06143

   Total alpha = 21.00000, Total beta = 21.00000, Total charge =  0.00000
