                              Psi4 1.0.54 Driver

  ==> Input File <==

--------------------------------------------------------------------------
set {
	reference rhf
	basis cc-pvtz
}

set_num_threads( 4 )
memory 2 gb

molecule MOL {
0 1

O	 0.002935	 -0.261321	 0.000106
C	 1.121787	 0.124983	 0.000110
C	 1.548807	 1.570360	 0.001111
O	 2.167739	 -0.685178	 -0.000678
C	 0.386937	 2.553204	 0.001643
H	 2.186905	 1.715636	 0.866678
H	 2.187122	 1.716829	 -0.864083
C	 0.854357	 4.005728	 0.003265
H	 -0.238625	 2.367750	 0.867565
H	 -0.238043	 2.369457	 -0.865065
C	 -0.302179	 4.999361	 0.006095
H	 1.482784	 4.182860	 0.872141
H	 1.480795	 4.185468	 -0.866507
H	 -0.928003	 4.867760	 0.882229
H	 0.058882	 6.021276	 0.007301
H	 -0.929932	 4.870497	 -0.869064
C	 3.449556	 -0.089977	 -0.000570
H	 3.585694	 0.522473	 -0.879546
H	 4.155805	 -0.904274	 -0.001389
H	 3.586173	 0.521118	 0.879272

	symmetry c1
}
set optking {
	frozen_dihedral = ("
		1 2 4 17
	")
}

ee,wfn = optimize('scf', return_wfn=True)
oeprop( wfn, 'DIPOLE', 'QUADRUPOLE', 'MULLIKEN_CHARGES')
f=open( 'psi4out.xyz', 'w' )
f.write( "20  " )
f.write( str(ee) + "\n" )
f.write( MOL.save_string_xyz() )
f.close()
--------------------------------------------------------------------------

    Molecular point group: c1
  Charge       = 0
  Multiplicity = 1
  Basis Set: CC-PVTZ
  Basis Set:
  @DF-RHF Final Energy:  -384.05716868829364
    Total Energy =                       -384.0571686882932454
    Molecular point group: c1
  Basis Set: CC-PVTZ
  Basis Set:
  Basis Set: CC-PVTZ
  Basis Set:
  @DF-RHF Final Energy:  -384.01620604964916
    Total Energy =                       -384.0162060496492131
  Basis Set: CC-PVTZ
  Basis Set:
  Basis Set: CC-PVTZ
  Basis Set:
  @DF-RHF Final Energy:  -384.06195790595859
    Total Energy =                       -384.0619579059588204
  Basis Set: CC-PVTZ
  Basis Set:
  Basis Set: CC-PVTZ
  Basis Set:
  @DF-RHF Final Energy:  -384.06793663786732
    Total Energy =                       -384.0679366378676605
  Basis Set: CC-PVTZ
  Basis Set:
  @DF-RHF Final Energy:  -384.06905226506478
    Total Energy =                       -384.0690522650648973
  Basis Set: CC-PVTZ
  Basis Set:
  @DF-RHF Final Energy:  -384.06909327371864
    Total Energy =                       -384.0690932737189769
  Basis Set: CC-PVTZ
  Basis Set:
  Basis Set: CC-PVTZ
  Basis Set:
  @DF-RHF Final Energy:  -384.06909985507821
    Total Energy =                       -384.0690998550779796
  Basis Set: CC-PVTZ
  Basis Set:
  Basis Set: CC-PVTZ
  Basis Set:
  @DF-RHF Final Energy:  -384.06909416270486
    Total Energy =                       -384.0690941627044594
  Basis Set: CC-PVTZ
  Basis Set:
  Charge       = 0
  Multiplicity = 1
  Basis Set: CC-PVTZ
  Basis Set:

    Orbital Energies (a.u.)
    -----------------------

    Doubly Occupied:

       1A    -20.595244     2A    -20.527127     3A    -11.366146
       4A    -11.293365     5A    -11.243688     6A    -11.222490
       7A    -11.221280     8A    -11.211549     9A     -1.466009
      10A     -1.367078    11A     -1.093026    12A     -1.017964
      13A     -0.986042    14A     -0.902723    15A     -0.811331
      16A     -0.768207    17A     -0.702373    18A     -0.692685
      19A     -0.675506    20A     -0.650668    21A     -0.601612
      22A     -0.595887    23A     -0.589929    24A     -0.554098
      25A     -0.542335    26A     -0.525449    27A     -0.511452
      28A     -0.483015    29A     -0.476114    30A     -0.474663
      31A     -0.450240    32A     -0.433297

  @DF-RHF Final Energy:  -384.06910064419685

   => Energetics <=

    Nuclear Repulsion Energy =            383.9600990026128784
    One-Electron Energy =               -1283.9532096368766361
    Two-Electron Energy =                 515.9240099900663381
    DFT Exchange-Correlation Energy =       0.0000000000000000
    Empirical Dispersion Energy =           0.0000000000000000
    PCM Polarization Energy =               0.0000000000000000
    EFP Energy =                            0.0000000000000000
    Total Energy =                       -384.0691006441974196
    Molecular point group: c1
  Basis Set: CC-PVTZ
  Basis Set:

  -Total Gradient:
     Atom            X                  Y                   Z
    ------   -----------------  -----------------  -----------------
       1       -0.000050708366    -0.000006548887     0.000006923392
       2        0.000115349190    -0.000044108437    -0.000018959522
       3       -0.000026150603     0.000023173288     0.000005419740
       4       -0.000091372626     0.000021902806     0.000006654071
       5        0.000010941400     0.000001415381     0.000000314617
       6        0.000003328507    -0.000002989220    -0.000001426135
       7        0.000002451503    -0.000005402532     0.000001865005
       8        0.000001521432     0.000002499215     0.000000278344
       9        0.000000949944    -0.000002254285     0.000002128527
      10        0.000000977645    -0.000002376603    -0.000001975089
      11       -0.000000600344    -0.000001541122    -0.000000255969
      12       -0.000001450290    -0.000001452045    -0.000000681977
      13       -0.000001427155    -0.000001428539     0.000000901082
      14        0.000000625305    -0.000000060334    -0.000000112640
      15        0.000001138261    -0.000002127121    -0.000000024488
      16        0.000000261449    -0.000000067064    -0.000000006120
      17       -0.000027231825    -0.000045158500     0.000001726630
      18        0.000024966227     0.000052074214    -0.000049400080
      19        0.000014801846    -0.000035680467    -0.000000125446
      20        0.000021628497     0.000050130248     0.000046756058

  **** Optimization is complete! (in 9 steps) ****
    Final optimized geometry and variables:
    Molecular point group: c1

    Geometry (in Angstrom), charge = 0, multiplicity = 1:

    O           -1.109209649099    -1.688464997881    -0.001054523431
    C            0.009859566236    -1.317052030691    -0.002259295378
    C            0.400188373324     0.145106694380    -0.000371087655
    O            0.986077408159    -2.222531160220    -0.005298564550
    C           -0.800691802981     1.081399235876     0.003085450826
    H            1.027078241671     0.331193842242     0.865852691501
    H            1.024404761577     0.334158439313    -0.867880702723
    C           -0.390064028082     2.551078779008     0.004960812468
    H           -1.415612145258     0.868464058609     0.869351562674
    H           -1.418288707514     0.871422045047    -0.861998536155
    C           -1.585666279193     3.497431097074     0.008386483336
    H            0.230757639279     2.753910227605     0.873946716870
    H            0.228114808139     2.756868975528    -0.865212381823
    H           -2.205196739998     3.340357890031     0.884638990876
    H           -1.265829694649     4.532921685985     0.009653802968
    H           -2.207867638574     3.343325358200    -0.866499820250
    C            2.350989609190    -1.890565553342    -0.006970196655
    H            2.627372813930    -1.330441712005    -0.890397776750
    H            2.882249532487    -2.828417991096    -0.009299811461
    H            2.630196485726    -1.333229471754     0.877323939519

  Mulliken Charges: (a.u.)
   Center  Symbol    Alpha    Beta     Spin     Total
       1     O     4.18181  4.18181  0.00000 -0.36363
       2     C     2.80414  2.80414  0.00000  0.39172
       3     C     3.13620  3.13620  0.00000 -0.27240
       4     O     4.12761  4.12761  0.00000 -0.25521
       5     C     3.08053  3.08053  0.00000 -0.16106
       6     H     0.44080  0.44080  0.00000  0.11840
       7     H     0.44080  0.44080  0.00000  0.11839
       8     C     3.08537  3.08537  0.00000 -0.17073
       9     H     0.44373  0.44373  0.00000  0.11254
      10     H     0.44373  0.44373  0.00000  0.11253
      11     C     3.14989  3.14989  0.00000 -0.29979
      12     H     0.45603  0.45603  0.00000  0.08793
      13     H     0.45603  0.45603  0.00000  0.08793
      14     H     0.45305  0.45305  0.00000  0.09390
      15     H     0.44823  0.44823  0.00000  0.10354
      16     H     0.45305  0.45305  0.00000  0.09390
      17     C     3.04571  3.04571  0.00000 -0.09142
      18     H     0.46075  0.46075  0.00000  0.07850
      19     H     0.43178  0.43178  0.00000  0.13644
      20     H     0.46075  0.46075  0.00000  0.07850

   Total alpha = 32.00000, Total beta = 32.00000, Total charge = -0.00000

*** Psi4 exiting successfully. Buy a developer a beer!
