  ==> Input File <==

--------------------------------------------------------------------------
set {
	reference rhf
	basis 6-31G*
}

set_num_threads( 4 )
memory 2 gb

molecule MOL {
0 1

H	 -2.440463	 1.530224	 -1.739879
C	 -1.707476	 0.888334	 -1.291137
C	 -2.076860	 -0.007332	 -0.404944
H	 -0.680314	 0.998726	 -1.583821
O	 -1.180634	 -0.819263	 0.215062
H	 -3.101127	 -0.138669	 -0.103576
C	 0.051604	 -1.018856	 -0.387932
C	 1.043764	 0.054862	 -0.001873
H	 -0.017620	 -1.041351	 -1.469781
H	 0.437898	 -1.966374	 -0.042284
F	 2.212596	 -0.199467	 -0.571921
F	 0.652529	 1.252447	 -0.405055
F	 1.230877	 0.110694	 1.300533

	symmetry c1
}
set optking {
	frozen_dihedral = ("
		6 3 5 7
	")
}

ee = optimize('scf')
oeprop('DIPOLE', 'QUADRUPOLE', 'MULLIKEN_CHARGES')
f=open( 'psi4out.xyz', 'w' )
f.write( "13  " )
f.write( str(ee) + "\n" )
f.write( MOL.save_string_xyz() )
f.close()
--------------------------------------------------------------------------

    Molecular point group: c1
  Charge       = 0
  Multiplicity = 1
  Basis Set: 6-31G*
  Basis Set:
  @DF-RHF Final Energy:  -527.51796939844007
    Total Energy =                       -527.5179693984396181
    Molecular point group: c1
  Basis Set: 6-31G*
  Basis Set:
  Basis Set: 6-31G*
  Basis Set:
  @DF-RHF Final Energy:  -527.52973971469851
    Total Energy =                       -527.5297397146988487
  Basis Set: 6-31G*
  Basis Set:
  Basis Set: 6-31G*
  Basis Set:
  @DF-RHF Final Energy:  -527.53320514636050
    Total Energy =                       -527.5332051463603875
  Basis Set: 6-31G*
  Basis Set:
  Basis Set: 6-31G*
  Basis Set:
  @DF-RHF Final Energy:  -527.53449501642865
    Total Energy =                       -527.5344950164280817
  Basis Set: 6-31G*
  Basis Set:
  @DF-RHF Final Energy:  -527.53509917987276
    Total Energy =                       -527.5350991798728728
  @DF-RHF Final Energy:  -527.53535370304803
    Total Energy =                       -527.5353537030478037
  Basis Set: 6-31G*
  Basis Set:
  @DF-RHF Final Energy:  -527.53541301761129
    Total Energy =                       -527.5354130176112903
  Basis Set: 6-31G*
  Basis Set:
  Basis Set: 6-31G*
  Basis Set:
  @DF-RHF Final Energy:  -527.53542307927796
    Total Energy =                       -527.5354230792779617
  Basis Set: 6-31G*
  Basis Set:
  Basis Set: 6-31G*
  Basis Set:
  @DF-RHF Final Energy:  -527.53542460148060
    Total Energy =                       -527.5354246014805994
  Basis Set: 6-31G*
  Basis Set:
  Charge       = 0
  Multiplicity = 1
  Basis Set: 6-31G*
  Basis Set:

    Orbital Energies (a.u.)
    -----------------------

    Doubly Occupied:

       1A    -26.342335     2A    -26.341395     3A    -26.338417
       4A    -20.610254     5A    -11.501786     6A    -11.315965
       7A    -11.303374     8A    -11.220853     9A     -1.739753
      10A     -1.637607    11A     -1.636036    12A     -1.437691
      13A     -1.080233    14A     -1.023478    15A     -0.931834
      16A     -0.837076    17A     -0.829541    18A     -0.822012
      19A     -0.772306    20A     -0.729560    21A     -0.707963
      22A     -0.698798    23A     -0.676084    24A     -0.657981
      25A     -0.655013    26A     -0.640881    27A     -0.627378
      28A     -0.604242    29A     -0.546859    30A     -0.531721
      31A     -0.506386    32A     -0.358857

  @DF-RHF Final Energy:  -527.53542511212208

   => Energetics <=

    Nuclear Repulsion Energy =            417.9488863803017580
    One-Electron Energy =               -1559.6412866270889026
    Two-Electron Energy =                 614.1569751346654584
    DFT Exchange-Correlation Energy =       0.0000000000000000
    Empirical Dispersion Energy =           0.0000000000000000
    PCM Polarization Energy =               0.0000000000000000
    EFP Energy =                            0.0000000000000000
    Total Energy =                       -527.5354251121217430
    Molecular point group: c1
  Basis Set: 6-31G*
  Basis Set:

  -Total Gradient:
     Atom            X                  Y                   Z
    ------   -----------------  -----------------  -----------------
       1       -0.000000126657     0.000003068931    -0.000003619863
       2        0.000000635615    -0.000018232231     0.000036790140
       3       -0.000028469189     0.000693722679     0.000723056184
       4        0.000023339715     0.000003236741    -0.000016683234
       5        0.000540639784     0.001018291560     0.000404358766
       6       -0.000167044235    -0.000901872951    -0.000756046674
       7       -0.000406936133    -0.000816970969    -0.000388035246
       8       -0.000022026068     0.000011093674     0.000015439068
       9       -0.000006824094     0.000001049247     0.000001839092
      10        0.000002276552     0.000009461838     0.000001792793
      11        0.000032014032    -0.000022850045     0.000004238720
      12        0.000013143407     0.000025192449    -0.000003172437
      13        0.000019377280    -0.000005190922    -0.000019957315

  **** Optimization is complete! (in 10 steps) ****
    Final optimized geometry and variables:
    Molecular point group: c1

    Geometry (in Angstrom), charge = 0, multiplicity = 1:

    H           -3.034784565677     1.334431147329    -1.758606176427
    C           -2.165263364873     0.851215600962    -1.356712209074
    C           -2.313446096388     0.035371465722    -0.334131168322
    H           -1.220586432040     1.085064229787    -1.806983517488
    O           -1.372435687968    -0.693376070228     0.314078449178
    H           -3.273355876105    -0.148524203821     0.108600010757
    C           -0.148235578886    -0.970252140258    -0.283253950456
    C            0.939218282237    -0.047300233793     0.217485362262
    H           -0.193575763602    -0.907376601004    -1.361721562279
    H            0.132453610677    -1.974537690711     0.001017978576
    F            2.093047781985    -0.396970954728    -0.334455845626
    F            0.715600537941     1.217458611731    -0.090871483025
    F            1.078728514475    -0.121597421740     1.526002855603

  Mulliken Charges: (a.u.)
   Center  Symbol    Alpha    Beta     Spin     Total
       1     H     0.40449  0.40449  0.00000  0.19103
       2     C     3.24140  3.24140  0.00000 -0.48280
       3     C     2.89959  2.89959  0.00000  0.20082
       4     H     0.40402  0.40402  0.00000  0.19196
       5     O     4.30776  4.30776  0.00000 -0.61552
       6     H     0.39783  0.39783  0.00000  0.20433
       7     C     3.05822  3.05822  0.00000 -0.11645
       8     C     2.45722  2.45722  0.00000  1.08557
       9     H     0.40092  0.40092  0.00000  0.19816
      10     H     0.39242  0.39242  0.00000  0.21515
      11     F     4.68357  4.68357  0.00000 -0.36714
      12     F     4.67683  4.67683  0.00000 -0.35366
      13     F     4.67573  4.67573  0.00000 -0.35145

   Total alpha = 32.00000, Total beta = 32.00000, Total charge = -0.00000
