                              Psi4 1.0.54 Driver

  ==> Input File <==

--------------------------------------------------------------------------
set {
	reference rhf
	basis cc-pvtz
}

set_num_threads( 4 )
memory 2 gb

molecule MOL {
0 1

H	 2.902289	 1.490736	 1.199620
O	 3.625533	 1.175683	 0.690219
C	 3.690602	 -0.224688	 0.753470
C	 2.593535	 -0.919225	 -0.039466
H	 4.656330	 -0.494141	 0.347581
H	 3.671776	 -0.559049	 1.788988
C	 1.184322	 -0.681404	 0.498501
H	 2.651526	 -0.588457	 -1.072126
H	 2.804054	 -1.986031	 -0.037307
C	 0.113298	 -1.420414	 -0.302504
H	 0.972047	 0.382490	 0.490019
H	 1.136786	 -1.001801	 1.537910
C	 -1.311023	 -1.277304	 0.237018
H	 0.141729	 -1.080536	 -1.334929
H	 0.367061	 -2.476609	 -0.325454
C	 -2.041121	 -0.006551	 -0.194127
H	 -1.888548	 -2.136293	 -0.093331
H	 -1.289731	 -1.328757	 1.323321
C	 -3.489218	 0.042606	 0.286507
H	 -2.022185	 0.066287	 -1.279394
H	 -1.518764	 0.869305	 0.178730
C	 -4.219984	 1.311773	 -0.139038
H	 -4.022855	 -0.824300	 -0.093339
H	 -3.510372	 -0.038577	 1.370031
H	 -4.244251	 1.405725	 -1.219696
H	 -5.244345	 1.313233	 0.215630
H	 -3.732090	 2.196311	 0.257073

	symmetry c1
}
set optking {
	frozen_dihedral = ("
		14 10 13 16
	")
}

ee,wfn = optimize('scf', return_wfn=True)
oeprop( wfn, 'DIPOLE', 'QUADRUPOLE', 'MULLIKEN_CHARGES')
f=open( 'psi4out.xyz', 'w' )
f.write( "27  " )
f.write( str(ee) + "\n" )
f.write( MOL.save_string_xyz() )
f.close()
--------------------------------------------------------------------------

    Molecular point group: c1
  Charge       = 0
  Multiplicity = 1
  Basis Set: CC-PVTZ
  Basis Set:
  @DF-RHF Final Energy:  -388.42686331296335
    Total Energy =                       -388.4268633129640875
    Molecular point group: c1
  Basis Set: CC-PVTZ
  Basis Set:
  Basis Set: CC-PVTZ
  Basis Set:
  @DF-RHF Final Energy:  -388.42711839775131
    Total Energy =                       -388.4271183977509736
  Basis Set: CC-PVTZ
  Basis Set:
  Basis Set: CC-PVTZ
  Basis Set:
  @DF-RHF Final Energy:  -388.42717125821531
    Total Energy =                       -388.4271712582158216
  Basis Set: CC-PVTZ
  Basis Set:
  Basis Set: CC-PVTZ
  Basis Set:
  @DF-RHF Final Energy:  -388.42717367562585
    Total Energy =                       -388.4271736756261362
  Basis Set: CC-PVTZ
  Basis Set:
  Charge       = 0
  Multiplicity = 1
  Basis Set: CC-PVTZ
  Basis Set:

    Orbital Energies (a.u.)
    -----------------------

    Doubly Occupied:

       1A    -20.545370     2A    -11.265000     3A    -11.216899
       4A    -11.214516     5A    -11.213739     6A    -11.213201
       7A    -11.213000     8A    -11.211871     9A    -11.207074
      10A     -1.363259    11A     -1.095967    12A     -1.062659
      13A     -1.012355    14A     -0.949722    15A     -0.886825
      16A     -0.820760    17A     -0.798716    18A     -0.782770
      19A     -0.696506    20A     -0.648420    21A     -0.643503
      22A     -0.615565    23A     -0.602069    24A     -0.583471
      25A     -0.580302    26A     -0.553427    27A     -0.543161
      28A     -0.529341    29A     -0.506370    30A     -0.493714
      31A     -0.484938    32A     -0.474807    33A     -0.470425
      34A     -0.463073    35A     -0.451372    36A     -0.442849
      37A     -0.425155

  @DF-RHF Final Energy:  -388.42717434835009

   => Energetics <=

    Nuclear Repulsion Energy =            459.3103675551564606
    One-Electron Energy =               -1436.9107323223470303
    Two-Electron Energy =                 589.1731904188402495
    DFT Exchange-Correlation Energy =       0.0000000000000000
    Empirical Dispersion Energy =           0.0000000000000000
    PCM Polarization Energy =               0.0000000000000000
    EFP Energy =                            0.0000000000000000
    Total Energy =                       -388.4271743483502632
    Molecular point group: c1
  Basis Set: CC-PVTZ
  Basis Set:

  -Total Gradient:
     Atom            X                  Y                   Z
    ------   -----------------  -----------------  -----------------
       1        0.000009009169    -0.000007128516    -0.000001714772
       2        0.000021372633     0.000020527355    -0.000013984590
       3       -0.000032033223    -0.000005708167     0.000036876010
       4        0.000001454636     0.000017001028    -0.000032076677
       5       -0.000002626730     0.000002638591     0.000001829315
       6        0.000004755673    -0.000006115209     0.000002221305
       7        0.000002174790     0.000039517715    -0.000007869922
       8        0.000002126113    -0.000001212470    -0.000006430927
       9       -0.000000999037    -0.000006654036    -0.000006856527
      10       -0.000732804452    -0.002779951331    -0.001253180806
      11        0.000013127909    -0.000007411258    -0.000006740695
      12       -0.000032726865    -0.000013557243     0.000003262441
      13        0.000826783946     0.001549958024     0.001912852973
      14        0.000421451991     0.001981379489     0.000660377546
      15        0.000003276457    -0.000009584259    -0.000020343024
      16       -0.000527642747    -0.000776950088    -0.001287265437
      17       -0.000006346607     0.000009593675     0.000003801455
      18        0.000021440491    -0.000002537187    -0.000002054162
      19       -0.000003068755     0.000021553809     0.000008454120
      20        0.000025472989    -0.000000376327    -0.000023887694
      21       -0.000016937585    -0.000013669695     0.000004795765
      22        0.000009707577    -0.000010139504     0.000021807853
      23       -0.000000832930    -0.000010803530    -0.000007209662
      24       -0.000018385198     0.000010425010     0.000012155229
      25        0.000002342274    -0.000008870668    -0.000000693788
      26        0.000002866137    -0.000007486805    -0.000001958744
      27        0.000007041347     0.000015561599     0.000003833414

  **** Optimization is complete! (in 5 steps) ****
    Final optimized geometry and variables:
    Molecular point group: c1

    Geometry (in Angstrom), charge = 0, multiplicity = 1:

    H            2.692605298977     1.700840331701     1.110409573920
    O            3.434215234704     1.447313385185     0.593343675180
    C            3.579236483478     0.051593084664     0.604021106022
    C            2.524883868162    -0.673761036701    -0.218574460903
    H            4.559529173896    -0.146718799581     0.192145282493
    H            3.577654546483    -0.322129255118     1.626108723697
    C            1.102739591993    -0.530639751169     0.318000193395
    H            2.569768487836    -0.306386034400    -1.239333055571
    H            2.792535980427    -1.727334869029    -0.250261121114
    C            0.076595860855    -1.323636692029    -0.491927982970
    H            0.822161586497     0.518272701275     0.323330019665
    H            1.072887923998    -0.866509743081     1.352720509710
    C           -1.365107500210    -1.166119230710     0.002718156787
    H            0.135990302793    -1.006870025889    -1.529836969866
    H            0.353788035459    -2.372955378651    -0.469405058879
    C           -2.062090577165     0.101585645731    -0.488402304794
    H           -1.946140509407    -2.021623392505    -0.329755570226
    H           -1.381171908688    -1.196743325747     1.089348861965
    C           -3.489874330529     0.244335752293     0.031473517248
    H           -2.075932164836     0.097326336828    -1.575574597493
    H           -1.490928566082     0.978762828029    -0.196239396969
    C           -4.190601749921     1.500132665196    -0.476141127074
    H           -4.065705489267    -0.630740128911    -0.257530986022
    H           -3.477025325858     0.253928921768     1.118025347592
    H           -4.250874879463     1.503780682322    -1.559415218030
    H           -5.200649688172     1.570410424790    -0.089007330937
    H           -3.657667945706     2.395506605852    -0.173503498177

  Mulliken Charges: (a.u.)
   Center  Symbol    Alpha    Beta     Spin     Total
       1     H     0.39229  0.39229  0.00000  0.21543
       2     O     4.20557  4.20557  0.00000 -0.41115
       3     C     2.97972  2.97972  0.00000  0.04056
       4     C     3.08975  3.08975  0.00000 -0.17949
       5     H     0.44870  0.44870  0.00000  0.10261
       6     H     0.46957  0.46957  0.00000  0.06086
       7     C     3.10006  3.10006  0.00000 -0.20011
       8     H     0.45044  0.45044  0.00000  0.09912
       9     H     0.45560  0.45560  0.00000  0.08879
      10     C     3.09950  3.09950  0.00000 -0.19901
      11     H     0.45719  0.45719  0.00000  0.08563
      12     H     0.45392  0.45392  0.00000  0.09217
      13     C     3.09888  3.09888  0.00000 -0.19777
      14     H     0.45295  0.45295  0.00000  0.09410
      15     H     0.44670  0.44670  0.00000  0.10660
      16     C     3.08521  3.08521  0.00000 -0.17042
      17     H     0.44745  0.44745  0.00000  0.10511
      18     H     0.45483  0.45483  0.00000  0.09034
      19     C     3.08483  3.08483  0.00000 -0.16967
      20     H     0.45432  0.45432  0.00000  0.09137
      21     H     0.45548  0.45548  0.00000  0.08903
      22     C     3.14953  3.14953  0.00000 -0.29906
      23     H     0.45417  0.45417  0.00000  0.09167
      24     H     0.45456  0.45456  0.00000  0.09088
      25     H     0.45495  0.45495  0.00000  0.09011
      26     H     0.44839  0.44839  0.00000  0.10321
      27     H     0.45545  0.45545  0.00000  0.08910

   Total alpha = 37.00000, Total beta = 37.00000, Total charge = -0.00000

*** Psi4 exiting successfully. Buy a developer a beer!
