  ==> Input File <==

--------------------------------------------------------------------------
set {
	reference rhf
	basis 6-31G*
}

set_num_threads( 4 )
memory 2 gb

molecule MOL {
0 1

H	 -3.135461	 -1.215070	 0.001379
O	 -2.310168	 -0.871793	 -0.309793
C	 -2.026376	 0.340750	 0.341611
C	 -0.673256	 0.843270	 -0.132153
H	 -2.792215	 1.080697	 0.115987
H	 -2.013526	 0.200402	 1.421792
C	 0.486613	 -0.083066	 0.235839
H	 -0.715586	 0.970948	 -1.210718
H	 -0.508072	 1.829858	 0.297090
C	 1.840406	 0.433480	 -0.254303
H	 0.300215	 -1.068318	 -0.178947
H	 0.519509	 -0.203625	 1.318070
C	 3.015286	 -0.114676	 0.554929
H	 1.969029	 0.166908	 -1.301257
H	 1.850895	 1.520977	 -0.213263
H	 3.052391	 -1.199113	 0.504835
H	 3.961777	 0.266509	 0.183719
H	 2.934277	 0.164125	 1.601933

	symmetry c1
}
set optking {
	frozen_dihedral = ("
		14 10 7 11
	")
}

ee = optimize('scf')
oeprop('DIPOLE', 'QUADRUPOLE', 'MULLIKEN_CHARGES')
f=open( 'psi4out.xyz', 'w' )
f.write( "18  " )
f.write( str(ee) + "\n" )
f.write( MOL.save_string_xyz() )
f.close()
--------------------------------------------------------------------------

    Molecular point group: c1
  Charge       = 0
  Multiplicity = 1
  Basis Set: 6-31G*
  Basis Set:
  @DF-RHF Final Energy:  -271.17797075739350
    Total Energy =                       -271.1779707573935525
    Molecular point group: c1
  Basis Set: 6-31G*
  Basis Set:
  Basis Set: 6-31G*
  Basis Set:
  @DF-RHF Final Energy:  -271.17816703028836
    Total Energy =                       -271.1781670302884777
  Basis Set: 6-31G*
  Basis Set:
  Basis Set: 6-31G*
  Basis Set:
  @DF-RHF Final Energy:  -271.17823146837162
    Total Energy =                       -271.1782314683715640
  Basis Set: 6-31G*
  Basis Set:
  Charge       = 0
  Multiplicity = 1
  Basis Set: 6-31G*
  Basis Set:

    Orbital Energies (a.u.)
    -----------------------

    Doubly Occupied:

       1A    -20.553142     2A    -11.267867     3A    -11.211766
       4A    -11.210596     5A    -11.206226     6A    -11.204596
       7A     -1.359799     8A     -1.073975     9A     -1.008382
      10A     -0.912684    11A     -0.817448    12A     -0.783372
      13A     -0.705406    14A     -0.639853    15A     -0.625569
      16A     -0.582716    17A     -0.571697    18A     -0.555348
      19A     -0.522217    20A     -0.499967    21A     -0.489350
      22A     -0.466613    23A     -0.457562    24A     -0.447425
      25A     -0.428025

  @DF-RHF Final Energy:  -271.17823208906856

   => Energetics <=

    Nuclear Repulsion Energy =            248.9535627998087080
    One-Electron Energy =                -861.0603906033238673
    Two-Electron Energy =                 340.9285957144464874
    DFT Exchange-Correlation Energy =       0.0000000000000000
    Empirical Dispersion Energy =           0.0000000000000000
    PCM Polarization Energy =               0.0000000000000000
    EFP Energy =                            0.0000000000000000
    Total Energy =                       -271.1782320890687288
    Molecular point group: c1
  Basis Set: 6-31G*
  Basis Set:

  -Total Gradient:
     Atom            X                  Y                   Z
    ------   -----------------  -----------------  -----------------
       1        0.000002084269    -0.000004002976     0.000003300217
       2        0.000056175226    -0.000027590437     0.000041222830
       3       -0.000070432671     0.000043836167    -0.000119787377
       4        0.000023580748    -0.000011265025     0.000105367303
       5       -0.000010156115     0.000019687063     0.000016047567
       6        0.000017986313    -0.000009916352    -0.000014959042
       7        0.002609019562    -0.002725032190     0.004069235183
       8       -0.000025952332    -0.000007741700     0.000020857183
       9       -0.000002693946     0.000019764548     0.000006764107
      10       -0.002478501439     0.004499130986    -0.002079348446
      11       -0.001805315230     0.001568501976    -0.003109991223
      12       -0.000006561426     0.000017853266    -0.000021755882
      13       -0.000003040170     0.000024989144    -0.000017046391
      14        0.001677026512    -0.003372891289     0.001083502273
      15       -0.000001827525    -0.000017438889     0.000005103678
      16        0.000006763252    -0.000008873649    -0.000001815530
      17        0.000015398173     0.000002287514     0.000011667894
      18       -0.000003553199    -0.000011298158     0.000001635658

  **** Optimization is complete! (in 4 steps) ****
    Final optimized geometry and variables:
    Molecular point group: c1

    Geometry (in Angstrom), charge = 0, multiplicity = 1:

    H           -3.118660948858    -1.306661999508    -0.121198864792
    O           -2.291607332663    -0.949878151798    -0.411852335275
    C           -2.041513055093     0.264832791330     0.249540204900
    C           -0.684215332264     0.787925550273    -0.188668097638
    H           -2.812206159487     0.994328613619     0.007014877801
    H           -2.053506503544     0.121286089264     1.329379317068
    C            0.481405816976    -0.120143919465     0.212162310293
    H           -0.699680720207     0.912326013554    -1.268540033287
    H           -0.545569630108     1.777992473721     0.241649720565
    C            1.830837492814     0.384657684518    -0.314823462282
    H            0.284788166014    -1.109744873354    -0.185552720003
    H            0.512693154287    -0.203210288733     1.296956712155
    C            3.019405142181    -0.195610473791     0.454198386445
    H            1.933105368846     0.101070633646    -1.359378044383
    H            1.870320144275     1.470406244299    -0.270912433366
    H            3.011374997120    -1.281709472100     0.423433823699
    H            3.963222092123     0.139746662209     0.034825128475
    H            2.995347614613     0.103992578410     1.498230571362

  Mulliken Charges: (a.u.)
   Center  Symbol    Alpha    Beta     Spin     Total
       1     H     0.28053  0.28053  0.00000  0.43894
       2     O     4.36982  4.36982  0.00000 -0.73965
       3     C     2.99730  2.99730  0.00000  0.00539
       4     C     3.16114  3.16114  0.00000 -0.32229
       5     H     0.42925  0.42925  0.00000  0.14150
       6     H     0.43275  0.43275  0.00000  0.13450
       7     C     3.15485  3.15485  0.00000 -0.30970
       8     H     0.41511  0.41511  0.00000  0.16979
       9     H     0.42425  0.42425  0.00000  0.15150
      10     C     3.15246  3.15246  0.00000 -0.30492
      11     H     0.40615  0.40615  0.00000  0.18770
      12     H     0.42681  0.42681  0.00000  0.14639
      13     C     3.23935  3.23935  0.00000 -0.47870
      14     H     0.42072  0.42072  0.00000  0.15855
      15     H     0.42427  0.42427  0.00000  0.15147
      16     H     0.42135  0.42135  0.00000  0.15731
      17     H     0.42084  0.42084  0.00000  0.15833
      18     H     0.42306  0.42306  0.00000  0.15388

   Total alpha = 25.00000, Total beta = 25.00000, Total charge = -0.00000
