                              Psi4 1.0.54 Driver

  ==> Input File <==

--------------------------------------------------------------------------
set {
	reference rhf
	basis cc-pvtz
}

set_num_threads( 4 )
memory 2 gb

molecule MOL {
0 1

H	 -3.721261	 -0.031689	 -0.198341
C	 -3.241611	 0.372562	 -1.100230
C	 -2.264735	 1.489650	 -0.851793
O	 -3.515985	 -0.065962	 -2.163115
C	 -1.216901	 1.136108	 0.207794
H	 -1.804648	 1.760597	 -1.793197
H	 -2.847924	 2.340911	 -0.507483
C	 -0.247837	 0.040196	 -0.230469
H	 -0.659309	 2.033906	 0.451494
H	 -1.719008	 0.834868	 1.123948
C	 1.181757	 0.280428	 0.247371
H	 -0.259600	 -0.030819	 -1.314870
H	 -0.591284	 -0.923375	 0.136958
C	 2.151032	 -0.811012	 -0.202643
H	 1.515939	 1.247397	 -0.115449
H	 1.191514	 0.341223	 1.333422
C	 3.580021	 -0.656538	 0.320835
H	 2.170545	 -0.847575	 -1.289412
H	 1.766632	 -1.772905	 0.124928
C	 4.327657	 0.562694	 -0.213579
H	 4.138806	 -1.549270	 0.057813
H	 3.561991	 -0.620783	 1.406976
H	 4.355973	 0.557257	 -1.298551
H	 3.867136	 1.491650	 0.100501
H	 5.351524	 0.571613	 0.142204

	symmetry c1
}
set optking {
	frozen_dihedral = ("
		3 5 8 12
	")
}

ee,wfn = optimize('scf', return_wfn=True)
oeprop( wfn, 'DIPOLE', 'QUADRUPOLE', 'MULLIKEN_CHARGES')
f=open( 'psi4out.xyz', 'w' )
f.write( "25  " )
f.write( str(ee) + "\n" )
f.write( MOL.save_string_xyz() )
f.close()
--------------------------------------------------------------------------

    Molecular point group: c1
  Charge       = 0
  Multiplicity = 1
  Basis Set: CC-PVTZ
  Basis Set:
  @DF-RHF Final Energy:  -387.25658362635363
    Total Energy =                       -387.2565836263537449
    Molecular point group: c1
  Basis Set: CC-PVTZ
  Basis Set:
  Basis Set: CC-PVTZ
  Basis Set:
  @DF-RHF Final Energy:  -387.25669545174316
    Total Energy =                       -387.2566954517432123
  Basis Set: CC-PVTZ
  Basis Set:
  Basis Set: CC-PVTZ
  Basis Set:
  @DF-RHF Final Energy:  -387.25676023038369
    Total Energy =                       -387.2567602303840886
  Basis Set: CC-PVTZ
  Basis Set:
  Basis Set: CC-PVTZ
  Basis Set:
  @DF-RHF Final Energy:  -387.25686748345208
    Total Energy =                       -387.2568674834520834
  Basis Set: CC-PVTZ
  Basis Set:
  @DF-RHF Final Energy:  -387.25693493460830
    Total Energy =                       -387.2569349346081253
  Basis Set: CC-PVTZ
  Basis Set:
  @DF-RHF Final Energy:  -387.25693230300220
    Total Energy =                       -387.2569323030024862
  Basis Set: CC-PVTZ
  Basis Set:
  Basis Set: CC-PVTZ
  Basis Set:
  @DF-RHF Final Energy:  -387.25694196448012
    Total Energy =                       -387.2569419644801201
  Basis Set: CC-PVTZ
  Basis Set:
  Basis Set: CC-PVTZ
  Basis Set:
  @DF-RHF Final Energy:  -387.25694308940740
    Total Energy =                       -387.2569430894076277
  Basis Set: CC-PVTZ
  Basis Set:
  Charge       = 0
  Multiplicity = 1
  Basis Set: CC-PVTZ
  Basis Set:

    Orbital Energies (a.u.)
    -----------------------

    Doubly Occupied:

       1A    -20.551515     2A    -11.320676     3A    -11.234005
       4A    -11.232760     5A    -11.220699     6A    -11.217748
       7A    -11.215938     8A    -11.214510     9A    -11.208379
      10A     -1.406239    11A     -1.103729    12A     -1.070362
      13A     -1.014119    14A     -0.942612    15A     -0.876051
      16A     -0.822287    17A     -0.786661    18A     -0.782508
      19A     -0.669006    20A     -0.659210    21A     -0.637668
      22A     -0.625019    23A     -0.604884    24A     -0.591341
      25A     -0.579632    26A     -0.547555    27A     -0.537480
      28A     -0.527067    29A     -0.510456    30A     -0.498500
      31A     -0.490784    32A     -0.476459    33A     -0.463827
      34A     -0.459296    35A     -0.442295    36A     -0.411289

  @DF-RHF Final Energy:  -387.25694308591113

   => Energetics <=

    Nuclear Repulsion Energy =            440.1168325480776389
    One-Electron Energy =               -1396.8424270543209786
    Two-Electron Energy =                 569.4686514203316392
    DFT Exchange-Correlation Energy =       0.0000000000000000
    Empirical Dispersion Energy =           0.0000000000000000
    PCM Polarization Energy =               0.0000000000000000
    EFP Energy =                            0.0000000000000000
    Total Energy =                       -387.2569430859117574
    Molecular point group: c1
  Basis Set: CC-PVTZ
  Basis Set:

  -Total Gradient:
     Atom            X                  Y                   Z
    ------   -----------------  -----------------  -----------------
       1       -0.000034412873     0.000005749750     0.000071358302
       2        0.000011857085    -0.000068134991     0.000035163402
       3        0.001698064931     0.002034589896    -0.001119998744
       4        0.000010138665     0.000012699696    -0.000067818084
       5       -0.003048462673    -0.003482775634     0.001615846214
       6        0.000026068234     0.000033364576    -0.000048820798
       7       -0.000004758485     0.000004023295     0.000012856109
       8        0.004174609844     0.004135941764    -0.000751416419
       9        0.000009291680    -0.000016013533     0.000005832675
      10       -0.000013793127    -0.000006347467     0.000001130692
      11       -0.000009943893     0.000026265105    -0.000007547893
      12       -0.002827139837    -0.002680613170     0.000271470393
      13       -0.000014416227    -0.000006391984    -0.000003540949
      14        0.000011032747     0.000012788901    -0.000028603169
      15       -0.000007853501    -0.000018548353    -0.000004720968
      16       -0.000000257788     0.000013766264     0.000013139154
      17       -0.000017106628     0.000014158592     0.000028481115
      18        0.000007221648     0.000006098600    -0.000010455901
      19        0.000001711647    -0.000006909774    -0.000007086966
      20        0.000013077457     0.000000031641    -0.000009164668
      21       -0.000003896819    -0.000006926812     0.000008922746
      22       -0.000004167898     0.000006005353     0.000006606994
      23       -0.000001825781     0.000007032811    -0.000009318483
      24        0.000024692916    -0.000012563878     0.000003147907
      25        0.000000268672    -0.000007290649    -0.000005462658

  **** Optimization is complete! (in 9 steps) ****
    Final optimized geometry and variables:
    Molecular point group: c1

    Geometry (in Angstrom), charge = 0, multiplicity = 1:

    H           -3.820433512063    -0.342333679358     0.228434032815
    C           -3.321920449871     0.069474846295    -0.659756889617
    C           -2.404993867974     1.231338291178    -0.390528813151
    O           -3.527408693538    -0.400483646663    -1.725031499385
    C           -1.328743631755     0.902400414278     0.650003258120
    H           -1.961444170486     1.545705113152    -1.326060136028
    H           -3.025198705521     2.043848662184    -0.018806859802
    C           -0.335990086300    -0.181403371869     0.198547424464
    H           -0.790411625873     1.821069593835     0.855745946961
    H           -1.796005118164     0.615830477077     1.587078649999
    C            1.089356305463     0.057771437341     0.686696135458
    H           -0.354004862342    -0.269056774789    -0.883555115425
    H           -0.674947389311    -1.148839874661     0.559965799663
    C            2.051560316353    -1.059128529480     0.288456975872
    H            1.437806334216     1.008143635965     0.294912374298
    H            1.084281088554     0.157272374991     1.770227740922
    C            3.478037471473    -0.896481633767     0.816454488119
    H            2.078360695197    -1.139534235501    -0.795783896480
    H            1.655898499036    -2.003588424257     0.651486300163
    C            4.243871673624     0.288664687861     0.233259569080
    H            4.028720633255    -1.806336390069     0.598912480895
    H            3.451847595492    -0.811141391411     1.899699494275
    H            4.278958064933     0.234260561596    -0.850119553150
    H            3.792904430709     1.236260004720     0.502249162940
    H            5.265485212416     0.301218593338     0.595393139638

  Mulliken Charges: (a.u.)
   Center  Symbol    Alpha    Beta     Spin     Total
       1     H     0.46450  0.46450  0.00000  0.07099
       2     C     2.90065  2.90065  0.00000  0.19869
       3     C     3.09243  3.09243  0.00000 -0.18487
       4     O     4.16685  4.16685  0.00000 -0.33369
       5     C     3.11610  3.11610  0.00000 -0.23220
       6     H     0.44275  0.44275  0.00000  0.11450
       7     H     0.44122  0.44122  0.00000  0.11757
       8     C     3.09677  3.09677  0.00000 -0.19354
       9     H     0.44458  0.44458  0.00000  0.11084
      10     H     0.44597  0.44597  0.00000  0.10805
      11     C     3.09249  3.09249  0.00000 -0.18498
      12     H     0.44354  0.44354  0.00000  0.11292
      13     H     0.44944  0.44944  0.00000  0.10113
      14     C     3.09614  3.09614  0.00000 -0.19227
      15     H     0.45180  0.45180  0.00000  0.09639
      16     H     0.45349  0.45349  0.00000  0.09303
      17     C     3.09085  3.09085  0.00000 -0.18171
      18     H     0.45183  0.45183  0.00000  0.09634
      19     H     0.44864  0.44864  0.00000  0.10271
      20     C     3.15245  3.15245  0.00000 -0.30489
      21     H     0.44776  0.44776  0.00000  0.10448
      22     H     0.45495  0.45495  0.00000  0.09009
      23     H     0.45420  0.45420  0.00000  0.09161
      24     H     0.45451  0.45451  0.00000  0.09098
      25     H     0.44609  0.44609  0.00000  0.10783

   Total alpha = 36.00000, Total beta = 36.00000, Total charge = -0.00000

*** Psi4 exiting successfully. Buy a developer a beer!
