  ==> Input File <==

--------------------------------------------------------------------------
set {
	reference rhf
	basis cc-pvtz
}

set_num_threads( 4 )
memory 2 gb

molecule MOL {
0 1

H	 -2.431790	 -0.312281	 0.891192
O	 -2.313989	 -0.142475	 -0.025864
C	 -0.943808	 -0.065018	 -0.330000
H	 -0.812293	 -0.225641	 -1.398673
C	 -0.231030	 -1.182113	 0.407592
C	 -0.353797	 1.300461	 0.050970
H	 -0.312800	 -0.992012	 1.473041
H	 -0.738841	 -2.119564	 0.220514
C	 1.246176	 -1.268044	 -0.015480
H	 -0.539537	 2.008579	 -0.751815
H	 -0.889989	 1.662858	 0.920677
C	 1.153605	 1.231851	 0.356834
H	 1.823096	 -1.684665	 0.802361
H	 1.352335	 -1.958223	 -0.845114
C	 1.826409	 0.100723	 -0.416008
H	 1.622968	 2.181508	 0.128734
H	 1.301983	 1.066493	 1.419367
H	 2.897299	 0.112407	 -0.249665
H	 1.683458	 0.265621	 -1.480024

	symmetry c1
}
set optking {
	frozen_dihedral = ("
		1 2 3 4
	")
}

ee = optimize('scf')
oeprop('DIPOLE', 'QUADRUPOLE', 'MULLIKEN_CHARGES')
f=open( 'psi4out.xyz', 'w' )
f.write( "19  " )
f.write( str(ee) + "\n" )
f.write( MOL.save_string_xyz() )
f.close()
--------------------------------------------------------------------------

    Molecular point group: c1
  Charge       = 0
  Multiplicity = 1
  Basis Set: CC-PVTZ
  Basis Set:
  @DF-RHF Final Energy:  -309.16106991452051
    Total Energy =                       -309.1610699145206809
    Molecular point group: c1
  Basis Set: CC-PVTZ
  Basis Set:
  Basis Set: CC-PVTZ
  Basis Set:
  @DF-RHF Final Energy:  -309.16248720950824
    Total Energy =                       -309.1624872095082424
  Basis Set: CC-PVTZ
  Basis Set:
  Basis Set: CC-PVTZ
  Basis Set:
  @DF-RHF Final Energy:  -309.16282120719052
    Total Energy =                       -309.1628212071904045
  Basis Set: CC-PVTZ
  Basis Set:
  Basis Set: CC-PVTZ
  Basis Set:
  @DF-RHF Final Energy:  -309.16282565082764
    Total Energy =                       -309.1628256508276991
  Basis Set: CC-PVTZ
  Basis Set:
  Charge       = 0
  Multiplicity = 1
  Basis Set: CC-PVTZ
  Basis Set:

    Orbital Energies (a.u.)
    -----------------------

    Doubly Occupied:

       1A    -20.542464     2A    -11.267264     3A    -11.217793
       4A    -11.215450     5A    -11.214874     6A    -11.214809
       7A    -11.209888     8A     -1.362895     9A     -1.111537
      10A     -1.005306    11A     -0.989715    12A     -0.850529
      13A     -0.838396    14A     -0.752620    15A     -0.672973
      16A     -0.668159    17A     -0.621778    18A     -0.595297
      19A     -0.582698    20A     -0.562023    21A     -0.532932
      22A     -0.521459    23A     -0.502280    24A     -0.493610
      25A     -0.465633    26A     -0.450487    27A     -0.431727
      28A     -0.410471

  @DF-RHF Final Energy:  -309.16282612673888

   => Energetics <=

    Nuclear Repulsion Energy =            331.8203567912993321
    One-Electron Energy =               -1077.3562336208806300
    Two-Electron Energy =                 436.3730507028428747
    DFT Exchange-Correlation Energy =       0.0000000000000000
    Empirical Dispersion Energy =           0.0000000000000000
    PCM Polarization Energy =               0.0000000000000000
    EFP Energy =                            0.0000000000000000
    Total Energy =                       -309.1628261267384232
    Molecular point group: c1
  Basis Set: CC-PVTZ
  Basis Set:

  -Total Gradient:
     Atom            X                  Y                   Z
    ------   -----------------  -----------------  -----------------
       1        0.000012054419    -0.001497956165    -0.000298862481
       2        0.000006306015     0.001571722623     0.000389168810
       3       -0.000093944045     0.001172053690    -0.000258569646
       4        0.000079691787    -0.001270377439     0.000209006082
       5       -0.000013002156    -0.000005984398    -0.000018475727
       6        0.000042545502    -0.000010119863     0.000011390827
       7       -0.000000878394    -0.000003287403    -0.000023469838
       8       -0.000000971423    -0.000008883637     0.000009933839
       9       -0.000021471744    -0.000013782528     0.000048287193
      10        0.000016425605     0.000024107481    -0.000007615301
      11        0.000008916695    -0.000011827371    -0.000010764701
      12       -0.000015798092     0.000034025981    -0.000032853423
      13        0.000013919482    -0.000024402845    -0.000003088947
      14       -0.000011426445     0.000005335577    -0.000001418148
      15       -0.000006754174     0.000022607014    -0.000021827952
      16       -0.000000206054     0.000014160360     0.000014747333
      17       -0.000009856482     0.000000200213    -0.000002071614
      18       -0.000011245757    -0.000004482154     0.000001732959
      19        0.000005695253     0.000006890865    -0.000005249268

  **** Optimization is complete! (in 5 steps) ****
    Final optimized geometry and variables:
    Molecular point group: c1

    Geometry (in Angstrom), charge = 0, multiplicity = 1:

    H           -2.517673736884    -0.267656180943     0.805597539047
    O           -2.336933700517    -0.097303715169    -0.101460066024
    C           -0.948382982273    -0.065514182093    -0.315496649879
    H           -0.832592545091    -0.229958101347    -1.380190145849
    C           -0.220523153164    -1.186612904639     0.411695397960
    C           -0.356720991717     1.299044869219     0.062273922434
    H           -0.286031490783    -1.006290960796     1.483289182102
    H           -0.721980459131    -2.128094149570     0.222494486668
    C            1.255535082442    -1.263984318985    -0.019888920072
    H           -0.565534924708     2.004660768709    -0.733759837323
    H           -0.881308022053     1.664323874522     0.939177506075
    C            1.154991416058     1.235715908224     0.346745741136
    H            1.842676582173    -1.669718481200     0.796202097995
    H            1.358586830830    -1.959965005486    -0.844745806730
    C            1.819689763318     0.106434926200    -0.435677473416
    H            1.618005619163     2.186539483110     0.110929841781
    H            1.323166890499     1.071517126083     1.407074977517
    H            2.893480021098     0.122777787730    -0.290022512850
    H            1.654959446858     0.266787104063    -1.497000526954

  Mulliken Charges: (a.u.)
   Center  Symbol    Alpha    Beta     Spin     Total
       1     H     0.39462  0.39462  0.00000  0.21077
       2     O     4.20852  4.20852  0.00000 -0.41703
       3     C     2.93480  2.93480  0.00000  0.13039
       4     H     0.44329  0.44329  0.00000  0.11343
       5     C     3.11086  3.11086  0.00000 -0.22172
       6     C     3.10845  3.10845  0.00000 -0.21689
       7     H     0.45964  0.45964  0.00000  0.08072
       8     H     0.43920  0.43920  0.00000  0.12160
       9     C     3.11255  3.11255  0.00000 -0.22510
      10     H     0.44702  0.44702  0.00000  0.10596
      11     H     0.45243  0.45243  0.00000  0.09515
      12     C     3.10105  3.10105  0.00000 -0.20209
      13     H     0.44759  0.44759  0.00000  0.10482
      14     H     0.44555  0.44555  0.00000  0.10891
      15     C     3.10206  3.10206  0.00000 -0.20413
      16     H     0.44189  0.44189  0.00000  0.11623
      17     H     0.45476  0.45476  0.00000  0.09049
      18     H     0.44273  0.44273  0.00000  0.11454
      19     H     0.45302  0.45302  0.00000  0.09397

   Total alpha = 28.00000, Total beta = 28.00000, Total charge = -0.00000
