                              Psi4 1.0.54 Driver

  ==> Input File <==

--------------------------------------------------------------------------
set {
	reference rhf
	basis cc-pvtz
}

set_num_threads( 4 )
memory 2 gb

molecule MOL {
0 1

H	 0.616325	 -0.921299	 2.584501
O	 0.490302	 -0.696621	 1.681344
C	 0.237312	 0.679014	 1.556281
C	 0.027642	 1.012027	 0.090274
H	 1.078985	 1.254196	 1.933797
H	 -0.634880	 0.958804	 2.140628
C	 -1.138737	 0.285728	 -0.581921
H	 0.943573	 0.775133	 -0.441194
H	 -0.114008	 2.086987	 0.008965
C	 -1.933983	 -0.631436	 0.343653
H	 -0.763151	 -0.285569	 -1.422081
H	 -1.808359	 1.035291	 -0.992333
H	 -2.789188	 -1.049673	 -0.174718
H	 -1.335629	 -1.461368	 0.700418
H	 -2.305435	 -0.092167	 1.209725

	symmetry c1
}
set optking {
	frozen_dihedral = ("
		8 4 7 11
	")
}

ee,wfn = optimize('scf', return_wfn=True)
oeprop( wfn, 'DIPOLE', 'QUADRUPOLE', 'MULLIKEN_CHARGES')
f=open( 'psi4out.xyz', 'w' )
f.write( "15  " )
f.write( str(ee) + "\n" )
f.write( MOL.save_string_xyz() )
f.close()
--------------------------------------------------------------------------

    Molecular point group: c1
  Charge       = 0
  Multiplicity = 1
  Basis Set: CC-PVTZ
  Basis Set:
  @DF-RHF Final Energy:  -232.22431691751791
    Total Energy =                       -232.2243169175180810
    Molecular point group: c1
  Basis Set: CC-PVTZ
  Basis Set:
  Basis Set: CC-PVTZ
  Basis Set:
  @DF-RHF Final Energy:  -232.22787631312298
    Total Energy =                       -232.2278763131228061
  Basis Set: CC-PVTZ
  Basis Set:
  Basis Set: CC-PVTZ
  Basis Set:
  @DF-RHF Final Energy:  -232.22879950098982
    Total Energy =                       -232.2287995009900214
  Basis Set: CC-PVTZ
  Basis Set:
  Basis Set: CC-PVTZ
  Basis Set:
  @DF-RHF Final Energy:  -232.22901433655085
    Total Energy =                       -232.2290143365509039
  Basis Set: CC-PVTZ
  Basis Set:
  Basis Set: CC-PVTZ
  Basis Set:
  @DF-RHF Final Energy:  -232.22919958440593
    Total Energy =                       -232.2291995844058192
  Basis Set: CC-PVTZ
  Basis Set:
  Basis Set: CC-PVTZ
  Basis Set:
  @DF-RHF Final Energy:  -232.22921373926553
    Total Energy =                       -232.2292137392654467
  Basis Set: CC-PVTZ
  Basis Set:
  Basis Set: CC-PVTZ
  Basis Set:
  @DF-RHF Final Energy:  -232.22921516819454
    Total Energy =                       -232.2292151681945711
  Basis Set: CC-PVTZ
  Basis Set:
  Charge       = 0
  Multiplicity = 1
  Basis Set: CC-PVTZ
  Basis Set:

    Orbital Energies (a.u.)
    -----------------------

    Doubly Occupied:

       1A    -20.546613     2A    -11.265930     3A    -11.211508
       4A    -11.210182     5A    -11.198570     6A     -1.364267
       7A     -1.060173     8A     -0.971868     9A     -0.870698
      10A     -0.771467    11A     -0.708456    12A     -0.649489
      13A     -0.610283    14A     -0.571654    15A     -0.560046
      16A     -0.532693    17A     -0.515296    18A     -0.477295
      19A     -0.459497    20A     -0.452229    21A     -0.430443

  @DF-RHF Final Energy:  -232.22921560387695

   => Energetics <=

    Nuclear Repulsion Energy =            192.8677012750524398
    One-Electron Energy =                -697.3165241375418191
    Two-Electron Energy =                 272.2196072586124274
    DFT Exchange-Correlation Energy =       0.0000000000000000
    Empirical Dispersion Energy =           0.0000000000000000
    PCM Polarization Energy =               0.0000000000000000
    EFP Energy =                            0.0000000000000000
    Total Energy =                       -232.2292156038769235
    Molecular point group: c1
  Basis Set: CC-PVTZ
  Basis Set:

  -Total Gradient:
     Atom            X                  Y                   Z
    ------   -----------------  -----------------  -----------------
       1        0.000000304490     0.000006439406    -0.000008599911
       2       -0.000011276041     0.000005842071    -0.000011081944
       3       -0.000010888040    -0.000012517356     0.000019750248
       4       -0.000369514972     0.002513235594    -0.002008598154
       5        0.000014680249     0.000015147808    -0.000006468173
       6       -0.000017349639    -0.000003699265     0.000022937681
       7        0.000372144528    -0.002524310448     0.001985672127
       8        0.000279581602    -0.001729826734     0.001354252397
       9       -0.000001988289    -0.000008985560     0.000012248722
      10        0.000009121078    -0.000009561359     0.000020650563
      11       -0.000263237245     0.001733403655    -0.001356795753
      12        0.000002043711     0.000010626515    -0.000009227769
      13        0.000000091970    -0.000001980631     0.000000920600
      14       -0.000010882356     0.000008667786    -0.000001755762
      15        0.000007168955    -0.000002481487    -0.000013904872

  **** Optimization is complete! (in 8 steps) ****
    Final optimized geometry and variables:
    Molecular point group: c1

    Geometry (in Angstrom), charge = 0, multiplicity = 1:

    H            1.325343202175    -0.928576209522     1.942472509608
    O            1.173221423367    -0.735291761629     1.035879179494
    C            0.699783289908     0.580381301554     0.895327162234
    C            0.436578858960     0.863108049296    -0.573605298368
    H            1.447805803201     1.283707922260     1.252596988846
    H           -0.195983512617     0.729722517623     1.490926127076
    C           -0.770764907426     0.152389747128    -1.240800074866
    H            1.346490365629     0.592600616270    -1.096541322538
    H            0.322755184942     1.936807370661    -0.677094866569
    C           -1.657332676531    -0.721212799587    -0.355261422219
    H           -0.407736654939    -0.443295187813    -2.070098174348
    H           -1.399475514248     0.911831286163    -1.694880601422
    H           -2.450747884866    -1.157833840276    -0.951430615329
    H           -1.098389708397    -1.524141230214     0.103751065974
    H           -2.129464125257    -0.145711170344     0.433488288713

  Mulliken Charges: (a.u.)
   Center  Symbol    Alpha    Beta     Spin     Total
       1     H     0.39444  0.39444  0.00000  0.21112
       2     O     4.20218  4.20218  0.00000 -0.40436
       3     C     2.97981  2.97981  0.00000  0.04038
       4     C     3.09776  3.09776  0.00000 -0.19553
       5     H     0.45887  0.45887  0.00000  0.08225
       6     H     0.46843  0.46843  0.00000  0.06314
       7     C     3.08328  3.08328  0.00000 -0.16655
       8     H     0.45021  0.45021  0.00000  0.09957
       9     H     0.45110  0.45110  0.00000  0.09780
      10     C     3.15821  3.15821  0.00000 -0.31642
      11     H     0.45181  0.45181  0.00000  0.09637
      12     H     0.45425  0.45425  0.00000  0.09149
      13     H     0.44721  0.44721  0.00000  0.10557
      14     H     0.44431  0.44431  0.00000  0.11139
      15     H     0.45812  0.45812  0.00000  0.08376

   Total alpha = 21.00000, Total beta = 21.00000, Total charge = -0.00000

*** Psi4 exiting successfully. Buy a developer a beer!
