  ==> Input File <==

--------------------------------------------------------------------------
set {
	reference rhf
	basis cc-pvtz
}

set_num_threads( 4 )
memory 2 gb

molecule MOL {
0 1

H	 -3.567210	 0.502489	 -0.000000
O	 -3.095461	 -0.311027	 0.000000
C	 -1.769942	 -0.106588	 0.000000
C	 -1.219976	 1.169333	 -0.000000
C	 -0.950139	 -1.222880	 0.000000
H	 -1.862506	 2.030484	 -0.000000
C	 0.146148	 1.322296	 -0.000000
H	 -1.394605	 -2.197800	 0.000000
C	 0.415878	 -1.052514	 0.000000
H	 0.582818	 2.301290	 -0.000000
C	 0.981121	 0.213562	 0.000000
H	 1.052840	 -1.917844	 0.000000
C	 2.447402	 0.371303	 0.000000
O	 3.227427	 -0.521847	 0.000000
H	 2.796538	 1.409525	 0.000000

	symmetry c1
}
set optking {
	frozen_dihedral = ("
		7 11 13 14
	")
}

ee = optimize('scf')
oeprop('DIPOLE', 'QUADRUPOLE', 'MULLIKEN_CHARGES')
f=open( 'psi4out.xyz', 'w' )
f.write( "15  " )
f.write( str(ee) + "\n" )
f.write( MOL.save_string_xyz() )
f.close()
--------------------------------------------------------------------------

    Molecular point group: c1
  Charge       = 0
  Multiplicity = 1
  Basis Set: CC-PVTZ
  Basis Set:
  @DF-RHF Final Energy:  -418.44229779359097
    Total Energy =                       -418.4422977935911376
    Molecular point group: c1
  Basis Set: CC-PVTZ
  Basis Set:
  Basis Set: CC-PVTZ
  Basis Set:
  @DF-RHF Final Energy:  -418.44252051481874
    Total Energy =                       -418.4425205148190798
  Basis Set: CC-PVTZ
  Basis Set:
  Basis Set: CC-PVTZ
  Basis Set:
  @DF-RHF Final Energy:  -418.44255748948001
    Total Energy =                       -418.4425574894800093
  Basis Set: CC-PVTZ
  Basis Set:
  Charge       = 0
  Multiplicity = 1
  Basis Set: CC-PVTZ
  Basis Set:

    Orbital Energies (a.u.)
    -----------------------

    Doubly Occupied:

       1A    -20.605244     2A    -20.545387     3A    -11.322938
       4A    -11.322561     5A    -11.260717     6A    -11.252012
       7A    -11.242502     8A    -11.236983     9A    -11.236341
      10A     -1.438454    11A     -1.401669    12A     -1.175303
      13A     -1.046803    14A     -1.040437    15A     -0.897563
      16A     -0.861794    17A     -0.806167    18A     -0.761799
      19A     -0.699207    20A     -0.691177    21A     -0.642642
      22A     -0.629124    23A     -0.615612    24A     -0.611855
      25A     -0.587401    26A     -0.561827    27A     -0.555349
      28A     -0.509424    29A     -0.490313    30A     -0.421357
      31A     -0.362097    32A     -0.332069

  @DF-RHF Final Energy:  -418.44256271888764

   => Energetics <=

    Nuclear Repulsion Energy =            402.2930642649894253
    One-Electron Energy =               -1367.1429906372068217
    Two-Electron Energy =                 546.4073636533302079
    DFT Exchange-Correlation Energy =       0.0000000000000000
    Empirical Dispersion Energy =           0.0000000000000000
    PCM Polarization Energy =               0.0000000000000000
    EFP Energy =                            0.0000000000000000
    Total Energy =                       -418.4425627188871886
    Molecular point group: c1
  Basis Set: CC-PVTZ
  Basis Set:

  -Total Gradient:
     Atom            X                  Y                   Z
    ------   -----------------  -----------------  -----------------
       1        0.000001596248     0.000048190603    -0.000000000000
       2        0.000068019442     0.000010366005    -0.000000000001
       3       -0.000326416898    -0.000060305075     0.000000000002
       4        0.000219531899    -0.000136989966    -0.000000000000
       5        0.000226962546     0.000167319386    -0.000000000001
       6       -0.000024401497     0.000027848993    -0.000000000000
       7        0.000038087191     0.000077857080    -0.000000000001
       8       -0.000025244511    -0.000036492001    -0.000000000000
       9        0.000092767581    -0.000048912476     0.000000000000
      10        0.000016970427     0.000047370256     0.000000000000
      11       -0.000330771813    -0.000039196657     0.000000000004
      12        0.000005832403    -0.000046743622    -0.000000000000
      13        0.000049124343     0.000001883681    -0.000000000012
      14        0.000008921096    -0.000045595553     0.000000000004
      15       -0.000020978460     0.000033399335     0.000000000004

  **** Optimization is complete! (in 4 steps) ****
    Final optimized geometry and variables:
    Molecular point group: c1

    Geometry (in Angstrom), charge = 0, multiplicity = 1:

    H            0.528901599978     3.573462398345     0.000000000001
    O           -0.283499312574     3.099482534463     0.000000000007
    C           -0.076030038741     1.774768124605     0.000000000011
    C            1.192365344627     1.223581610540     0.000000000002
    C           -1.200315738419     0.954458027329     0.000000000008
    H            2.058301329863     1.859278052220    -0.000000000002
    C            1.332190408326    -0.150716279042    -0.000000000005
    H           -2.171957265265     1.406675743136     0.000000000008
    C           -1.044471751839    -0.406827940328     0.000000000003
    H            2.318177686233    -0.577680414563    -0.000000000012
    C            0.226238206324    -0.978363765157     0.000000000001
    H           -1.901116544461    -1.051383190619    -0.000000000001
    C            0.400493681446    -2.442769154313    -0.000000000016
    O           -0.482939147594    -3.233293053759    -0.000000000013
    H            1.443362399982    -2.778660310842     0.000000000051

  Mulliken Charges: (a.u.)
   Center  Symbol    Alpha    Beta     Spin     Total
       1     H     0.38567  0.38567  0.00000  0.22866
       2     O     4.16567  4.16567  0.00000 -0.33134
       3     C     2.84329  2.84329  0.00000  0.31342
       4     C     3.13471  3.13471  0.00000 -0.26943
       5     C     3.10727  3.10727  0.00000 -0.21453
       6     H     0.43234  0.43234  0.00000  0.13532
       7     C     3.07392  3.07392  0.00000 -0.14783
       8     H     0.41547  0.41547  0.00000  0.16906
       9     C     3.05972  3.05972  0.00000 -0.11944
      10     H     0.42122  0.42122  0.00000  0.15756
      11     C     3.00263  3.00263  0.00000 -0.00526
      12     H     0.40729  0.40729  0.00000  0.18542
      13     C     2.91135  2.91135  0.00000  0.17731
      14     O     4.17835  4.17835  0.00000 -0.35670
      15     H     0.46111  0.46111  0.00000  0.07778

   Total alpha = 32.00000, Total beta = 32.00000, Total charge = -0.00000
