  ==> Input File <==

--------------------------------------------------------------------------
set {
	reference rhf
	basis 6-31G*
}

set_num_threads( 4 )
memory 2 gb

molecule MOL {
0 1

O	 -2.636300	 -1.007097	 0.908471
C	 -2.005762	 -1.847989	 0.343001
C	 -0.817749	 -1.476880	 -0.527176
C	 -2.333144	 -3.317451	 0.487493
C	 0.422704	 -1.187241	 0.333363
H	 -1.085367	 -0.587433	 -1.087149
H	 -0.600623	 -2.270574	 -1.236353
C	 1.631333	 -0.777471	 -0.511575
H	 0.168645	 -0.405761	 1.040560
H	 0.677174	 -2.069863	 0.918146
C	 2.915987	 -0.544314	 0.291766
H	 1.388322	 0.124600	 -1.070090
H	 1.821020	 -1.552425	 -1.251382
C	 3.373361	 0.914346	 0.347591
H	 3.708709	 -1.142521	 -0.150311
H	 2.780642	 -0.921148	 1.303579
H	 3.506512	 1.320010	 -0.651625
H	 4.322697	 0.999599	 0.867103
H	 2.660624	 1.545032	 0.868198
H	 -2.675413	 -3.710909	 -0.466082
H	 -3.106860	 -3.453116	 1.230287
H	 -1.448961	 -3.882530	 0.768048

	symmetry c1
}
set optking {
	frozen_dihedral = ("
		12 8 11 15
	")
}

ee = optimize('scf')
oeprop('DIPOLE', 'QUADRUPOLE', 'MULLIKEN_CHARGES')
f=open( 'psi4out.xyz', 'w' )
f.write( "22  " )
f.write( str(ee) + "\n" )
f.write( MOL.save_string_xyz() )
f.close()
--------------------------------------------------------------------------

    Molecular point group: c1
  Charge       = 0
  Multiplicity = 1
  Basis Set: 6-31G*
  Basis Set:
  @DF-RHF Final Energy:  -348.09398717096116
    Total Energy =                       -348.0939871709610998
    Molecular point group: c1
  Basis Set: 6-31G*
  Basis Set:
  Basis Set: 6-31G*
  Basis Set:
  @DF-RHF Final Energy:  -348.09455048329539
    Total Energy =                       -348.0945504832953930
  Basis Set: 6-31G*
  Basis Set:
  Basis Set: 6-31G*
  Basis Set:
  @DF-RHF Final Energy:  -348.09252980184704
    Total Energy =                       -348.0925298018468084
  Basis Set: 6-31G*
  Basis Set:
  Basis Set: 6-31G*
  Basis Set:
  @DF-RHF Final Energy:  -348.09465218998537
    Total Energy =                       -348.0946521899857089
  Basis Set: 6-31G*
  Basis Set:
  @DF-RHF Final Energy:  -348.09443833670360
    Total Energy =                       -348.0944383367034902
  @DF-RHF Final Energy:  -348.09452921811402
    Total Energy =                       -348.0945292181139052
  Basis Set: 6-31G*
  Basis Set:
  @DF-RHF Final Energy:  -348.09469066694970
    Total Energy =                       -348.0946906669494751
  Basis Set: 6-31G*
  Basis Set:
  Basis Set: 6-31G*
  Basis Set:
  @DF-RHF Final Energy:  -348.09465387685930
    Total Energy =                       -348.0946538768592404
  Basis Set: 6-31G*
  Basis Set:
  Basis Set: 6-31G*
  Basis Set:
  @DF-RHF Final Energy:  -348.09469563212531
    Total Energy =                       -348.0946956321254220
  Basis Set: 6-31G*
  Basis Set:
  Charge       = 0
  Multiplicity = 1
  Basis Set: 6-31G*
  Basis Set:

    Orbital Energies (a.u.)
    -----------------------

    Doubly Occupied:

       1A    -20.547331     2A    -11.324500     3A    -11.230290
       4A    -11.228959     5A    -11.228179     6A    -11.222083
       7A    -11.220087     8A    -11.212062     9A     -1.393073
      10A     -1.094707    11A     -1.044000    12A     -1.000186
      13A     -0.938056    14A     -0.848801    15A     -0.796369
      16A     -0.732670    17A     -0.662126    18A     -0.644742
      19A     -0.627126    20A     -0.614177    21A     -0.598367
      22A     -0.581165    23A     -0.561664    24A     -0.550257
      25A     -0.530047    26A     -0.508990    27A     -0.504997
      28A     -0.488113    29A     -0.472742    30A     -0.463265
      31A     -0.458070    32A     -0.395977

  @DF-RHF Final Energy:  -348.09469540001231

   => Energetics <=

    Nuclear Repulsion Energy =            370.4186237681590796
    One-Electron Energy =               -1205.5802792536330799
    Two-Electron Energy =                 487.0669600854615737
    DFT Exchange-Correlation Energy =       0.0000000000000000
    Empirical Dispersion Energy =           0.0000000000000000
    PCM Polarization Energy =               0.0000000000000000
    EFP Energy =                            0.0000000000000000
    Total Energy =                       -348.0946954000124833
    Molecular point group: c1
  Basis Set: 6-31G*
  Basis Set:

  -Total Gradient:
     Atom            X                  Y                   Z
    ------   -----------------  -----------------  -----------------
       1        0.000034925564     0.000040636658     0.000087165320
       2       -0.000074949266    -0.000043956185    -0.000103352933
       3        0.000131304246     0.000007491867     0.000059486739
       4       -0.000019224970    -0.000017798449     0.000040159228
       5       -0.000022918327     0.000036051624    -0.000048709685
       6        0.000015437199     0.000025575127    -0.000015962314
       7        0.000026830822     0.000015748698    -0.000016242047
       8        0.001324997589    -0.001354052139    -0.001720132538
       9       -0.000042983881    -0.000009070670    -0.000024898940
      10        0.000001978184     0.000014722545     0.000038789693
      11        0.000416827693     0.002222029053    -0.001341425402
      12       -0.001257628648     0.000716963893     0.001680640973
      13       -0.000033502133     0.000002607334    -0.000035604227
      14       -0.000032797435     0.000010126962     0.000066118410
      15       -0.000482231518    -0.001683530644     0.001358494762
      16        0.000006469929     0.000029993875    -0.000013093842
      17        0.000014880586    -0.000016481347    -0.000000018941
      18       -0.000005272065    -0.000006832238     0.000017376654
      19       -0.000004403227     0.000026941444    -0.000016953122
      20       -0.000004431908    -0.000039717030    -0.000009492382
      21        0.000008067784    -0.000005741824     0.000000916011
      22       -0.000001376211     0.000028291447    -0.000003261417

  **** Optimization is complete! (in 10 steps) ****
    Final optimized geometry and variables:
    Molecular point group: c1

    Geometry (in Angstrom), charge = 0, multiplicity = 1:

    O           -2.670482543997     0.173119779457     0.739224511821
    C           -2.067822965659    -0.669770298795     0.147083207371
    C           -0.893655176960    -0.306474717195    -0.744935116168
    C           -2.420728041218    -2.135249991971     0.273583053796
    C            0.378917828148    -0.085450975027     0.086907510906
    H           -1.148487476444     0.608569238991    -1.268358678361
    H           -0.721637056756    -1.083115593382    -1.485034078396
    C            1.584756822454     0.304120099962    -0.772533754280
    H            0.182240396948     0.691485163666     0.819895744928
    H            0.614416977075    -0.988930101327     0.646361447922
    C            2.853570694222     0.588096439791     0.061373832792
    H            1.319233225778     1.190216520998    -1.344376084822
    H            1.775073186886    -0.484743593481    -1.495127692248
    C            3.214948408415     2.071366228643     0.135585574090
    H            3.693670064077     0.026512346744    -0.336751206502
    H            2.710689725992     0.211411944943     1.071470517748
    H            3.435528513450     2.469948005189    -0.850406416644
    H            4.086846167254     2.232966912808     0.761869551008
    H            2.396593422316     2.653010255329     0.550923352441
    H           -2.796804866806    -2.503939556961    -0.677156850215
    H           -3.176687186792    -2.269314085534     1.034691690968
    H           -1.541127201101    -2.722998170658     0.519455267022

  Mulliken Charges: (a.u.)
   Center  Symbol    Alpha    Beta     Spin     Total
       1     O     4.26228  4.26228  0.00000 -0.52455
       2     C     2.73712  2.73712  0.00000  0.52576
       3     C     3.20057  3.20057  0.00000 -0.40115
       4     C     3.28952  3.28952  0.00000 -0.57905
       5     C     3.16418  3.16418  0.00000 -0.32835
       6     H     0.40109  0.40109  0.00000  0.19783
       7     H     0.41695  0.41695  0.00000  0.16610
       8     C     3.15475  3.15475  0.00000 -0.30949
       9     H     0.40609  0.40609  0.00000  0.18781
      10     H     0.42028  0.42028  0.00000  0.15943
      11     C     3.15661  3.15661  0.00000 -0.31323
      12     H     0.41806  0.41806  0.00000  0.16389
      13     H     0.42023  0.42023  0.00000  0.15954
      14     C     3.24028  3.24028  0.00000 -0.48057
      15     H     0.41903  0.41903  0.00000  0.16195
      16     H     0.41955  0.41955  0.00000  0.16090
      17     H     0.42075  0.42075  0.00000  0.15850
      18     H     0.41912  0.41912  0.00000  0.16177
      19     H     0.41985  0.41985  0.00000  0.16030
      20     H     0.40683  0.40683  0.00000  0.18633
      21     H     0.39707  0.39707  0.00000  0.20586
      22     H     0.40979  0.40979  0.00000  0.18041

   Total alpha = 32.00000, Total beta = 32.00000, Total charge =  0.00000
