  ==> Input File <==

--------------------------------------------------------------------------
set {
	reference rhf
	basis 6-31G*
}

set_num_threads( 4 )
memory 2 gb

molecule MOL {
0 1

H	 2.570684	 -2.075079	 4.214717
C	 2.244927	 -2.094567	 3.179704
C	 0.978777	 -1.261394	 2.985674
H	 3.060899	 -1.716323	 2.570320
H	 2.081311	 -3.132816	 2.904902
C	 0.485808	 -1.263070	 1.542284
H	 1.155690	 -0.234332	 3.289378
H	 0.192572	 -1.645179	 3.633735
N	 -0.697665	 -0.439589	 1.391527
H	 1.260691	 -0.855725	 0.898397
H	 0.320621	 -2.294365	 1.212855
C	 -1.217365	 -0.386708	 0.039277
H	 -1.413797	 -0.769453	 2.010709
C	 -2.452633	 0.504241	 -0.042481
H	 -0.439634	 0.019214	 -0.602066
H	 -1.455681	 -1.380344	 -0.354774
C	 -3.758029	 -0.289423	 -0.010781
H	 -2.394220	 1.093569	 -0.952170
H	 -2.440793	 1.210787	 0.785871
H	 -3.816659	 -0.981993	 -0.845726
H	 -4.617837	 0.370165	 -0.069296
H	 -3.847478	 -0.867502	 0.904682

	symmetry c1
}
set optking {
	frozen_dihedral = ("
		15 12 14 18
	")
}

ee = optimize('scf')
oeprop('DIPOLE', 'QUADRUPOLE', 'MULLIKEN_CHARGES')
f=open( 'psi4out.xyz', 'w' )
f.write( "22  " )
f.write( str(ee) + "\n" )
f.write( MOL.save_string_xyz() )
f.close()
--------------------------------------------------------------------------

    Molecular point group: c1
  Charge       = 0
  Multiplicity = 1
  Basis Set: 6-31G*
  Basis Set:
  @DF-RHF Final Energy:  -290.37846615645748
    Total Energy =                       -290.3784661564571934
    Molecular point group: c1
  Basis Set: 6-31G*
  Basis Set:
  Basis Set: 6-31G*
  Basis Set:
  @DF-RHF Final Energy:  -290.37889744617542
    Total Energy =                       -290.3788974461753014
  Basis Set: 6-31G*
  Basis Set:
  Basis Set: 6-31G*
  Basis Set:
  @DF-RHF Final Energy:  -290.37899506272350
    Total Energy =                       -290.3789950627236749
  Basis Set: 6-31G*
  Basis Set:
  Basis Set: 6-31G*
  Basis Set:
  @DF-RHF Final Energy:  -290.37899671126416
    Total Energy =                       -290.3789967112637100
  Basis Set: 6-31G*
  Basis Set:
  Charge       = 0
  Multiplicity = 1
  Basis Set: 6-31G*
  Basis Set:

    Orbital Energies (a.u.)
    -----------------------

    Doubly Occupied:

       1A    -15.534146     2A    -11.237937     3A    -11.237778
       4A    -11.213515     5A    -11.213299     6A    -11.211368
       7A    -11.209679     8A     -1.205500     9A     -1.058161
      10A     -1.024400    11A     -0.928330    12A     -0.874112
      13A     -0.807970    14A     -0.793349    15A     -0.666144
      16A     -0.633856    17A     -0.619057    18A     -0.591003
      19A     -0.575538    20A     -0.567300    21A     -0.549429
      22A     -0.527021    23A     -0.506147    24A     -0.488606
      25A     -0.479236    26A     -0.469851    27A     -0.467281
      28A     -0.450932    29A     -0.358243

  @DF-RHF Final Energy:  -290.37899686910390

   => Energetics <=

    Nuclear Repulsion Energy =            315.4584973496955058
    One-Electron Energy =               -1016.6766145938292993
    Two-Electron Energy =                 410.8391203750296654
    DFT Exchange-Correlation Energy =       0.0000000000000000
    Empirical Dispersion Energy =           0.0000000000000000
    PCM Polarization Energy =               0.0000000000000000
    EFP Energy =                            0.0000000000000000
    Total Energy =                       -290.3789968691040713
    Molecular point group: c1
  Basis Set: 6-31G*
  Basis Set:

  -Total Gradient:
     Atom            X                  Y                   Z
    ------   -----------------  -----------------  -----------------
       1       -0.000005555181    -0.000001043047    -0.000000289851
       2       -0.000006263565    -0.000006715961    -0.000002174931
       3        0.000007296521    -0.000002272448     0.000005854598
       4        0.000000076171     0.000003465814     0.000002228675
       5        0.000002383150    -0.000002180082    -0.000002832317
       6        0.000040253384    -0.000014690167     0.000014715622
       7        0.000002893073     0.000003082218    -0.000009711685
       8       -0.000000375303     0.000000186358     0.000004781710
       9       -0.000015277471     0.000002774762    -0.000023170841
      10       -0.000003884572     0.000006165604     0.000000732896
      11       -0.000003737236     0.000006718469     0.000003579753
      12        0.001964594256     0.003508686193     0.004189659151
      13       -0.000005901005    -0.000002027437    -0.000001134680
      14       -0.002535479636    -0.004219584474    -0.003134412058
      15       -0.001261732122    -0.002237851938    -0.003008609988
      16        0.000002070251    -0.000015090527     0.000012421081
      17        0.000017848546     0.000014065764     0.000008739745
      18        0.001807201807     0.002930714263     0.001927818322
      19       -0.000013166221     0.000011143564     0.000015127266
      20        0.000006996602     0.000013249794    -0.000000093614
      21       -0.000002263779    -0.000000513566     0.000006163968
      22        0.000002022329     0.000001716845    -0.000009392823

  **** Optimization is complete! (in 5 steps) ****
    Final optimized geometry and variables:
    Molecular point group: c1

    Geometry (in Angstrom), charge = 0, multiplicity = 1:

    H            3.183897505299    -1.341127069441     2.921136979701
    C            2.859158061226    -1.358231588867     1.885744416649
    C            1.611194420113    -0.499289729499     1.686487736813
    H            3.683682462074    -0.999953633446     1.275852177513
    H            2.673962738625    -2.393973781617     1.615179395280
    C            1.120376830068    -0.496705641815     0.242404053726
    H            1.809395228162     0.525023088836     1.986121925337
    H            0.816091572188    -0.863658466331     2.335020313685
    N           -0.046028980651     0.349567684758     0.086425738697
    H            1.903641241208    -0.106753448292    -0.402251921726
    H            0.935344561908    -1.525576561438    -0.083989548432
    C           -0.554378911301     0.410320057175    -1.270916709647
    H           -0.771774334483     0.030776073273     0.700532316327
    C           -1.833206279957     1.255819092372    -1.364271750102
    H            0.216216070233     0.829668101131    -1.910183920513
    H           -0.752716776820    -0.587674159320    -1.677167790585
    C           -3.124304720697     0.440972874378    -1.290276678444
    H           -1.815190465135     1.846609773497    -2.275568313974
    H           -1.809980594104     1.979466185706    -0.554349501580
    H           -3.203404175634    -0.247112646031    -2.126781233870
    H           -3.996909875535     1.086403047194    -1.307859597958
    H           -3.171439601116    -0.146777147054    -0.376899670170

  Mulliken Charges: (a.u.)
   Center  Symbol    Alpha    Beta     Spin     Total
       1     H     0.41774  0.41774  0.00000  0.16451
       2     C     3.24328  3.24328  0.00000 -0.48656
       3     C     3.15527  3.15527  0.00000 -0.31053
       4     H     0.42068  0.42068  0.00000  0.15864
       5     H     0.42168  0.42168  0.00000  0.15664
       6     C     3.04780  3.04780  0.00000 -0.09561
       7     H     0.41296  0.41296  0.00000  0.17409
       8     H     0.42678  0.42678  0.00000  0.14645
       9     N     3.85621  3.85621  0.00000 -0.71242
      10     H     0.42165  0.42165  0.00000  0.15669
      11     H     0.43607  0.43607  0.00000  0.12786
      12     C     3.05131  3.05131  0.00000 -0.10262
      13     H     0.33459  0.33459  0.00000  0.33083
      14     C     3.16518  3.16518  0.00000 -0.33037
      15     H     0.41916  0.41916  0.00000  0.16168
      16     H     0.43559  0.43559  0.00000  0.12882
      17     C     3.24026  3.24026  0.00000 -0.48053
      18     H     0.41871  0.41871  0.00000  0.16259
      19     H     0.41102  0.41102  0.00000  0.17796
      20     H     0.42053  0.42053  0.00000  0.15895
      21     H     0.41819  0.41819  0.00000  0.16362
      22     H     0.42535  0.42535  0.00000  0.14931

   Total alpha = 29.00000, Total beta = 29.00000, Total charge =  0.00000
