  ==> Input File <==

--------------------------------------------------------------------------
set {
	reference rhf
	basis 6-31G*
}

set_num_threads( 1 )
memory 2 gb

molecule MOL {
0 1

H	 3.276176	 0.174363	 -0.109463
N	 2.434251	 -0.367735	 -0.081097
C	 1.267428	 0.496480	 0.024474
H	 2.501951	 -0.965776	 0.720575
C	 -0.016086	 -0.325158	 -0.029487
H	 1.288818	 1.183521	 -0.816092
H	 1.267576	 1.109062	 0.929528
C	 -1.282277	 0.529072	 0.046735
H	 -0.012495	 -0.908639	 -0.945788
H	 -0.015903	 -1.041248	 0.791956
C	 -0.987048	 2.028318	 0.075084
H	 -1.847239	 0.257377	 0.936109
H	 -1.924378	 0.305064	 -0.802667
H	 -0.375258	 2.290441	 0.933411
H	 -1.902644	 2.608883	 0.131216
H	 -0.452307	 2.339256	 -0.817995

	symmetry c1
}
set optking {
	frozen_dihedral = ("
		6 3 5 9,
		1 2 3 6
	")
}

ee = energy('scf')
oeprop('DIPOLE', 'QUADRUPOLE', 'MULLIKEN_CHARGES')
f=open( 'psi4out.xyz', 'w' )
f.write( "16  " )
f.write( str(ee) + "\n" )
f.write( MOL.save_string_xyz() )
f.close()
--------------------------------------------------------------------------

    Molecular point group: c1

    Geometry (in Angstrom), charge = 0, multiplicity = 1:

       Center              X                  Y                   Z               Mass
    ------------   -----------------  -----------------  -----------------  -----------------
           H          2.952056526873    -0.304572107374    -0.126213703496     1.007825032070
           N          2.110131526873    -0.846670107374    -0.097847703496    14.003074004780
           C          0.943308526873     0.017544892626     0.007723296504    12.000000000000
           H          2.177831526873    -1.444711107374     0.703824296504     1.007825032070
           C         -0.340205473127    -0.804093107374    -0.046237703496    12.000000000000
           H          0.964698526873     0.704585892626    -0.832842703496     1.007825032070
           H          0.943456526873     0.630126892626     0.912777296504     1.007825032070
           C         -1.606396473127     0.050136892626     0.029984296504    12.000000000000
           H         -0.336614473127    -1.387574107374    -0.962538703496     1.007825032070
           H         -0.340022473127    -1.520183107374     0.775205296504     1.007825032070
           C         -1.311167473127     1.549382892626     0.058333296504    12.000000000000
           H         -2.171358473127    -0.221558107374     0.919358296504     1.007825032070
           H         -2.248497473127    -0.173871107374    -0.819417703496     1.007825032070
           H         -0.699377473127     1.811505892626     0.916660296504     1.007825032070
           H         -2.226763473127     2.129947892626     0.114465296504     1.007825032070
           H         -0.776426473127     1.860320892626    -0.834745703496     1.007825032070

  Charge       = 0
  Multiplicity = 1
  Basis Set: 6-31G*
  Basis Set:

    Orbital Energies (a.u.)
    -----------------------

    Doubly Occupied:

       1A    -15.531149     2A    -11.238026     3A    -11.213490
       4A    -11.207966     5A    -11.207303     6A     -1.175851
       7A     -1.062390     8A     -0.948705     9A     -0.869436
      10A     -0.768687    11A     -0.663522    12A     -0.641085
      13A     -0.618397    14A     -0.575156    15A     -0.540406
      16A     -0.534612    17A     -0.521198    18A     -0.468671
      19A     -0.462017    20A     -0.446792    21A     -0.378375

  @DF-RHF Final Energy:  -212.30262849103852

   => Energetics <=

    Nuclear Repulsion Energy =            191.5002077761094199
    One-Electron Energy =                -665.4590885516875005
    Two-Electron Energy =                 261.6562522845395051
    DFT Exchange-Correlation Energy =       0.0000000000000000
    Empirical Dispersion Energy =           0.0000000000000000
    PCM Polarization Energy =               0.0000000000000000
    EFP Energy =                            0.0000000000000000
    Total Energy =                       -212.3026284910386039

  Mulliken Charges: (a.u.)
   Center  Symbol    Alpha    Beta     Spin     Total
       1     H     0.33293  0.33293  0.00000  0.33415
       2     N     3.92242  3.92242  0.00000 -0.84484
       3     C     3.06415  3.06415  0.00000 -0.12830
       4     H     0.33587  0.33587  0.00000  0.32826
       5     C     3.15515  3.15515  0.00000 -0.31031
       6     H     0.41906  0.41906  0.00000  0.16188
       7     H     0.43266  0.43266  0.00000  0.13468
       8     C     3.15683  3.15683  0.00000 -0.31366
       9     H     0.41074  0.41074  0.00000  0.17852
      10     H     0.42508  0.42508  0.00000  0.14983
      11     C     3.24847  3.24847  0.00000 -0.49694
      12     H     0.42060  0.42060  0.00000  0.15880
      13     H     0.41856  0.41856  0.00000  0.16288
      14     H     0.42034  0.42034  0.00000  0.15931
      15     H     0.41724  0.41724  0.00000  0.16552
      16     H     0.41990  0.41990  0.00000  0.16020

   Total alpha = 21.00000, Total beta = 21.00000, Total charge =  0.00000
