                              Psi4 1.0.54 Driver

  ==> Input File <==

--------------------------------------------------------------------------
set {
	reference rhf
	basis cc-pvtz
}

set_num_threads( 4 )
memory 2 gb

molecule MOL {
0 1

H	 0.903339	 -2.680619	 0.418250
C	 0.701898	 -2.087939	 1.320363
C	 -0.552079	 -1.259624	 1.273101
O	 1.450306	 -2.129616	 2.234574
C	 -0.554654	 -0.292621	 0.086567
H	 -0.649778	 -0.731351	 2.212366
H	 -1.391859	 -1.945390	 1.181595
C	 -1.846385	 0.513195	 -0.016346
H	 0.288130	 0.386583	 0.177867
H	 -0.403976	 -0.848451	 -0.835399
C	 -3.089953	 -0.365049	 -0.098564
H	 -1.798267	 1.154820	 -0.891143
H	 -1.925398	 1.173265	 0.842889
H	 -3.055079	 -1.012299	 -0.968245
H	 -3.988403	 0.236438	 -0.170014
H	 -3.183055	 -0.995885	 0.779079

	symmetry c1
}
set optking {
	frozen_dihedral = ("
		9 5 8 12
	")
}

ee,wfn = optimize('scf', return_wfn=True)
oeprop( wfn, 'DIPOLE', 'QUADRUPOLE', 'MULLIKEN_CHARGES')
f=open( 'psi4out.xyz', 'w' )
f.write( "16  " )
f.write( str(ee) + "\n" )
f.write( MOL.save_string_xyz() )
f.close()
--------------------------------------------------------------------------

    Molecular point group: c1
  Charge       = 0
  Multiplicity = 1
  Basis Set: CC-PVTZ
  Basis Set:
  @DF-RHF Final Energy:  -270.11621116331196
    Total Energy =                       -270.1162111633117320
    Molecular point group: c1
  Basis Set: CC-PVTZ
  Basis Set:
  Basis Set: CC-PVTZ
  Basis Set:
  @DF-RHF Final Energy:  -270.11643971204290
    Total Energy =                       -270.1164397120430749
  Basis Set: CC-PVTZ
  Basis Set:
  Basis Set: CC-PVTZ
  Basis Set:
  @DF-RHF Final Energy:  -270.11727972291095
    Total Energy =                       -270.1172797229110643
  Basis Set: CC-PVTZ
  Basis Set:
  Basis Set: CC-PVTZ
  Basis Set:
  @DF-RHF Final Energy:  -270.11594563848200
    Total Energy =                       -270.1159456384822306
  Basis Set: CC-PVTZ
  Basis Set:
  @DF-RHF Final Energy:  -270.11732280889157
    Total Energy =                       -270.1173228088915153
  Basis Set: CC-PVTZ
  Basis Set:
  @DF-RHF Final Energy:  -270.11734670515943
    Total Energy =                       -270.1173467051593207
  Basis Set: CC-PVTZ
  Basis Set:
  Basis Set: CC-PVTZ
  Basis Set:
  @DF-RHF Final Energy:  -270.11735027107216
    Total Energy =                       -270.1173502710719845
  Basis Set: CC-PVTZ
  Basis Set:
  Basis Set: CC-PVTZ
  Basis Set:
  @DF-RHF Final Energy:  -270.11735198326448
    Total Energy =                       -270.1173519832643706
  Basis Set: CC-PVTZ
  Basis Set:
  Charge       = 0
  Multiplicity = 1
  Basis Set: CC-PVTZ
  Basis Set:

    Orbital Energies (a.u.)
    -----------------------

    Doubly Occupied:

       1A    -20.551615     2A    -11.321023     3A    -11.235060
       4A    -11.233344     5A    -11.227932     6A    -11.217778
       7A     -1.406435     8A     -1.097689     9A     -1.016795
      10A     -0.915299    11A     -0.809161    12A     -0.790726
      13A     -0.678702    14A     -0.650331    15A     -0.639728
      16A     -0.596232    17A     -0.577130    18A     -0.570208
      19A     -0.522731    20A     -0.520992    21A     -0.489088
      22A     -0.481436    23A     -0.472088    24A     -0.411748

  @DF-RHF Final Energy:  -270.11735207182818

   => Energetics <=

    Nuclear Repulsion Energy =            232.3249556662261170
    One-Electron Energy =                -826.0180767113272395
    Two-Electron Energy =                 323.5757689732726590
    DFT Exchange-Correlation Energy =       0.0000000000000000
    Empirical Dispersion Energy =           0.0000000000000000
    PCM Polarization Energy =               0.0000000000000000
    EFP Energy =                            0.0000000000000000
    Total Energy =                       -270.1173520718285204
    Molecular point group: c1
  Basis Set: CC-PVTZ
  Basis Set:

  -Total Gradient:
     Atom            X                  Y                   Z
    ------   -----------------  -----------------  -----------------
       1        0.000006394960     0.000000108762     0.000002644225
       2       -0.000007802532     0.000003332727     0.000000479337
       3       -0.000003012367     0.000007220099    -0.000012236189
       4        0.000004558909    -0.000007564576     0.000003141095
       5        0.000040365481    -0.000306886819    -0.002382577217
       6        0.000001304807    -0.000006274147    -0.000006210909
       7        0.000005392462     0.000002171965     0.000006997918
       8        0.000893134315     0.001592905799     0.001556296926
       9       -0.000169816692     0.000021641512     0.001784497727
      10       -0.000004886706     0.000003869425     0.000002997467
      11       -0.000007223280    -0.000001886829     0.000007382960
      12       -0.000760860243    -0.001302994125    -0.000957467068
      13        0.000004317078    -0.000005331167    -0.000002634755
      14       -0.000000778578     0.000002903096     0.000002073383
      15        0.000001810127    -0.000005134025     0.000000917406
      16       -0.000002897738     0.000001918305    -0.000006302300

  **** Optimization is complete! (in 9 steps) ****
    Final optimized geometry and variables:
    Molecular point group: c1

    Geometry (in Angstrom), charge = 0, multiplicity = 1:

    H            1.656883089317    -1.718918828099    -0.291824247668
    C            1.397683634100    -1.107647523110     0.582797362470
    C            0.097215237188    -0.361064300390     0.476390410312
    O            2.125037093883    -1.070030511126     1.514148910837
    C            0.080944256124     0.563698305335    -0.746275566347
    H           -0.053959867203     0.195823157680     1.392332960592
    H           -0.691940144937    -1.103001509731     0.395450355538
    C           -1.189789799476     1.404968211099    -0.879430298948
    H            0.930702424136     1.235205805509    -0.671852094144
    H            0.221041633829    -0.025785997112    -1.648285081647
    C           -2.483843827934     0.600284273668    -0.976268104822
    H           -1.097130977531     2.008888396240    -1.776218423385
    H           -1.253482151618     2.094655736933    -0.043486277742
    H           -2.436164212553    -0.122387751998    -1.784836726843
    H           -3.324514762106     1.255576544380    -1.170815543367
    H           -2.699283714920     0.061748273308    -0.061415979862

  Mulliken Charges: (a.u.)
   Center  Symbol    Alpha    Beta     Spin     Total
       1     H     0.46585  0.46585  0.00000  0.06830
       2     C     2.90943  2.90943  0.00000  0.18114
       3     C     3.07933  3.07933  0.00000 -0.15866
       4     O     4.16394  4.16394  0.00000 -0.32788
       5     C     3.10952  3.10952  0.00000 -0.21903
       6     H     0.44260  0.44260  0.00000  0.11480
       7     H     0.44885  0.44885  0.00000  0.10230
       8     C     3.08993  3.08993  0.00000 -0.17986
       9     H     0.44103  0.44103  0.00000  0.11794
      10     H     0.44961  0.44961  0.00000  0.10078
      11     C     3.15541  3.15541  0.00000 -0.31081
      12     H     0.44604  0.44604  0.00000  0.10792
      13     H     0.44918  0.44918  0.00000  0.10164
      14     H     0.45364  0.45364  0.00000  0.09272
      15     H     0.44341  0.44341  0.00000  0.11319
      16     H     0.45225  0.45225  0.00000  0.09551

   Total alpha = 24.00000, Total beta = 24.00000, Total charge =  0.00000

*** Psi4 exiting successfully. Buy a developer a beer!
