  ==> Input File <==

--------------------------------------------------------------------------
set {
	reference rhf
	basis cc-pvtz
}

set_num_threads( 4 )
memory 2 gb

molecule MOL {
0 1

H	 -1.835082	 1.385983	 0.000069
C	 -1.300516	 0.441153	 -0.000028
O	 -0.006604	 0.654344	 -0.000106
O	 -1.828920	 -0.612308	 0.000113
C	 0.804085	 -0.191440	 -0.810819
C	 2.239480	 0.247017	 -0.643202
H	 0.478426	 -0.107407	 -1.837874
H	 0.660749	 -1.216184	 -0.498860
H	 2.367358	 1.275621	 -0.955600
H	 2.884448	 -0.378341	 -1.248839
H	 2.550593	 0.161296	 0.390157

	symmetry c1
}
set optking {
	frozen_dihedral = ("
		5 3 2 4
	")
}

ee = optimize('scf')
oeprop('DIPOLE', 'QUADRUPOLE', 'MULLIKEN_CHARGES')
f=open( 'psi4out.xyz', 'w' )
f.write( "11  " )
f.write( str(ee) + "\n" )
f.write( MOL.save_string_xyz() )
f.close()
--------------------------------------------------------------------------

    Molecular point group: c1
  Charge       = 0
  Multiplicity = 1
  Basis Set: CC-PVTZ
  Basis Set:
  @DF-RHF Final Energy:  -266.92335595746158
    Total Energy =                       -266.9233559574613537
    Molecular point group: c1
  Basis Set: CC-PVTZ
  Basis Set:
  Basis Set: CC-PVTZ
  Basis Set:
  @DF-RHF Final Energy:  -266.91568416127268
    Total Energy =                       -266.9156841612725657
  Basis Set: CC-PVTZ
  Basis Set:
  Basis Set: CC-PVTZ
  Basis Set:
  @DF-RHF Final Energy:  -266.92380472356501
    Total Energy =                       -266.9238047235650129
  Basis Set: CC-PVTZ
  Basis Set:
  Basis Set: CC-PVTZ
  Basis Set:
  @DF-RHF Final Energy:  -266.92404945125054
    Total Energy =                       -266.9240494512504256
  Basis Set: CC-PVTZ
  Basis Set:
  Basis Set: CC-PVTZ
  Basis Set:
  @DF-RHF Final Energy:  -266.92405256830415
    Total Energy =                       -266.9240525683040914
  Basis Set: CC-PVTZ
  Basis Set:
  Charge       = 0
  Multiplicity = 1
  Basis Set: CC-PVTZ
  Basis Set:

    Orbital Energies (a.u.)
    -----------------------

    Doubly Occupied:

       1A    -20.597312     2A    -20.550598     3A    -11.371452
       4A    -11.293044     5A    -11.225678     6A     -1.474286
       7A     -1.378572     8A     -1.052526     9A     -0.899767
      10A     -0.810761    11A     -0.741660    12A     -0.690273
      13A     -0.675825    14A     -0.610975    15A     -0.565670
      16A     -0.556601    17A     -0.525117    18A     -0.513604
      19A     -0.466176    20A     -0.453570

  @DF-RHF Final Energy:  -266.92405313633304

   => Energetics <=

    Nuclear Repulsion Energy =            178.7461937068925408
    One-Electron Energy =                -718.4335561411407980
    Two-Electron Energy =                 272.7633092979152707
    DFT Exchange-Correlation Energy =       0.0000000000000000
    Empirical Dispersion Energy =           0.0000000000000000
    PCM Polarization Energy =               0.0000000000000000
    EFP Energy =                            0.0000000000000000
    Total Energy =                       -266.9240531363329865
    Molecular point group: c1
  Basis Set: CC-PVTZ
  Basis Set:

  -Total Gradient:
     Atom            X                  Y                   Z
    ------   -----------------  -----------------  -----------------
       1        0.000014190592    -0.000014306173    -0.000006795935
       2        0.000224297130     0.002770575057    -0.018480002266
       3        0.000580805712    -0.007545465185     0.014199320322
       4       -0.000287946089    -0.000169272222     0.010196859375
       5       -0.000542609384     0.004950823200    -0.005907644561
       6        0.000005357870     0.000005222393    -0.000007072693
       7        0.000003477047     0.000003011733     0.000019012824
       8       -0.000002404557     0.000003941934    -0.000007398457
       9        0.000000803042    -0.000001389604     0.000000945622
      10        0.000008541545    -0.000001038197    -0.000002205316
      11       -0.000004512910    -0.000002102937    -0.000005018915

  **** Optimization is complete! (in 6 steps) ****
    Final optimized geometry and variables:
    Molecular point group: c1

    Geometry (in Angstrom), charge = 0, multiplicity = 1:

    H           -1.817551423507     1.291983144394     0.369151605942
    C           -1.290106527014     0.346676866273     0.276021029304
    O            0.016612575525     0.534779953508     0.307875429705
    O           -1.834110408502    -0.696012940036     0.252189306236
    C            0.835564539941    -0.315363607471    -0.492200628488
    C            2.266036308571     0.143714090002    -0.342080504356
    H            0.504554740124    -0.240605215551    -1.520231434223
    H            0.712873438925    -1.339110835001    -0.170394768033
    H            2.377303674652     1.171455863576    -0.663147393917
    H            2.914653048335    -0.478833173143    -0.946875893359
    H            2.584023508933     0.069974058660     0.689971509042

  Mulliken Charges: (a.u.)
   Center  Symbol    Alpha    Beta     Spin     Total
       1     H     0.45446  0.45446  0.00000  0.09108
       2     C     2.84158  2.84158  0.00000  0.31683
       3     O     4.15167  4.15167  0.00000 -0.30334
       4     O     4.18453  4.18453  0.00000 -0.36906
       5     C     2.97161  2.97161  0.00000  0.05677
       6     C     3.13367  3.13367  0.00000 -0.26733
       7     H     0.46046  0.46046  0.00000  0.07909
       8     H     0.44782  0.44782  0.00000  0.10436
       9     H     0.45081  0.45081  0.00000  0.09837
      10     H     0.45488  0.45488  0.00000  0.09025
      11     H     0.44851  0.44851  0.00000  0.10298

   Total alpha = 20.00000, Total beta = 20.00000, Total charge = -0.00000
