  ==> Input File <==

--------------------------------------------------------------------------
set {
	reference rhf
	basis 6-31G*
}

set_num_threads( 4 )
memory 2 gb

molecule MOL {
0 1

O	 1.779583	 -0.383652	 -1.970277
C	 1.863196	 -0.724379	 -0.834507
C	 1.245376	 -0.013843	 0.345420
O	 2.530371	 -1.804772	 -0.448167
C	 0.455112	 1.231400	 -0.050772
H	 0.628324	 -0.738709	 0.866004
H	 2.051642	 0.236044	 1.030392
C	 -0.998893	 1.219485	 0.433193
H	 0.482531	 1.345121	 -1.130325
H	 0.957290	 2.103070	 0.354729
C	 -1.883438	 0.145884	 -0.207175
H	 -1.431207	 2.195402	 0.224832
H	 -1.019646	 1.105716	 1.516076
C	 -3.347647	 0.245583	 0.225435
H	 -1.822183	 0.231698	 -1.291012
H	 -1.510341	 -0.844814	 0.042401
C	 -4.239992	 -0.825570	 -0.404234
H	 -3.732888	 1.230466	 -0.033079
H	 -3.408585	 0.170602	 1.310038
C	 -5.701275	 -0.716658	 0.029921
H	 -4.179496	 -0.752714	 -1.488058
H	 -3.859041	 -1.810759	 -0.143352
H	 -6.308102	 -1.488908	 -0.432678
H	 -6.122175	 0.245478	 -0.248167
H	 -5.799072	 -0.820114	 1.106957
C	 3.162846	 -2.565718	 -1.460995
H	 2.435096	 -2.935838	 -2.168734
H	 3.644274	 -3.388109	 -0.955121
H	 3.895037	 -1.967837	 -1.984416

	symmetry c1
}
set optking {
	frozen_dihedral = ("
		6 3 5 9
	")
}

ee = optimize('scf')
oeprop('DIPOLE', 'QUADRUPOLE', 'MULLIKEN_CHARGES')
f=open( 'psi4out.xyz', 'w' )
f.write( "29  " )
f.write( str(ee) + "\n" )
f.write( MOL.save_string_xyz() )
f.close()
--------------------------------------------------------------------------

    Molecular point group: c1
  Charge       = 0
  Multiplicity = 1
  Basis Set: 6-31G*
  Basis Set:
  @DF-RHF Final Energy:  -501.03938369025536
    Total Energy =                       -501.0393836902561588
    Molecular point group: c1
  Basis Set: 6-31G*
  Basis Set:
  Basis Set: 6-31G*
  Basis Set:
  @DF-RHF Final Energy:  -501.03969000426230
    Total Energy =                       -501.0396900042617290
  Basis Set: 6-31G*
  Basis Set:
  Basis Set: 6-31G*
  Basis Set:
  @DF-RHF Final Energy:  -501.03974983628359
    Total Energy =                       -501.0397498362833630
  Basis Set: 6-31G*
  Basis Set:
  Basis Set: 6-31G*
  Basis Set:
  @DF-RHF Final Energy:  -501.03984298144997
    Total Energy =                       -501.0398429814492829
  Basis Set: 6-31G*
  Basis Set:
  Basis Set: 6-31G*
  Basis Set:
  @DF-RHF Final Energy:  -501.03972828702410
    Total Energy =                       -501.0397282870233084
  Basis Set: 6-31G*
  Basis Set:
  Basis Set: 6-31G*
  Basis Set:
  @DF-RHF Final Energy:  -501.03990053461678
    Total Energy =                       -501.0399005346171180
  Basis Set: 6-31G*
  Basis Set:
  Charge       = 0
  Multiplicity = 1
  Basis Set: 6-31G*
  Basis Set:

    Orbital Energies (a.u.)
    -----------------------

    Doubly Occupied:

       1A    -20.603622     2A    -20.545918     3A    -11.372749
       4A    -11.280856     5A    -11.234859     6A    -11.217316
       7A    -11.216136     8A    -11.213703     9A    -11.212870
      10A    -11.212208    11A    -11.207443    12A     -1.469590
      13A     -1.362860    14A     -1.095577    15A     -1.064259
      16A     -1.018333    17A     -0.976038    18A     -0.927430
      19A     -0.860716    20A     -0.798669    21A     -0.787952
      22A     -0.763862    23A     -0.701608    24A     -0.681745
      25A     -0.672825    26A     -0.648605    27A     -0.624159
      28A     -0.606575    29A     -0.592909    30A     -0.579207
      31A     -0.566356    32A     -0.545762    33A     -0.536150
      34A     -0.529097    35A     -0.516101    36A     -0.501271
      37A     -0.495564    38A     -0.477534    39A     -0.468032
      40A     -0.459693    41A     -0.458922    42A     -0.457151
      43A     -0.439005    44A     -0.434728

  @DF-RHF Final Energy:  -501.03990028104738

   => Energetics <=

    Nuclear Repulsion Energy =            621.7291269912110465
    One-Electron Energy =               -1914.6661254713258131
    Two-Electron Energy =                 791.8970981990665905
    DFT Exchange-Correlation Energy =       0.0000000000000000
    Empirical Dispersion Energy =           0.0000000000000000
    PCM Polarization Energy =               0.0000000000000000
    EFP Energy =                            0.0000000000000000
    Total Energy =                       -501.0399002810480624
    Molecular point group: c1
  Basis Set: 6-31G*
  Basis Set:

  -Total Gradient:
     Atom            X                  Y                   Z
    ------   -----------------  -----------------  -----------------
       1        0.000259344260     0.000000643329     0.000041742711
       2       -0.000398211272    -0.000259678595     0.000036737076
       3       -0.000009142923     0.000084819458     0.000263000430
       4        0.000117715629     0.000022657110    -0.000132197917
       5        0.000154722495     0.000102922414     0.000088602707
       6        0.000049189772    -0.000057245917    -0.000182385544
       7        0.000053606963     0.000029494714     0.000012944726
       8        0.000040151387     0.000015433322    -0.000002720338
       9       -0.000194077336    -0.000110326568     0.000052454013
      10       -0.000104142487     0.000084879669    -0.000061629931
      11       -0.000015240537     0.000156414776    -0.000193523639
      12       -0.000003788271     0.000008342207     0.000022203008
      13        0.000019281874    -0.000040160831     0.000008721473
      14        0.000020656410    -0.000011094006     0.000052125990
      15       -0.000003737419     0.000054241657    -0.000064181465
      16       -0.000075589318    -0.000004139663     0.000010875024
      17        0.000046713866    -0.000077938607     0.000060722572
      18        0.000020770327    -0.000030315097    -0.000060426991
      19       -0.000021023591     0.000050113023     0.000031836633
      20        0.000008495542    -0.000004976398     0.000021386594
      21        0.000005188674     0.000021168547     0.000024915551
      22       -0.000002613946    -0.000026421778    -0.000017125909
      23        0.000003582147     0.000003644191    -0.000004837630
      24        0.000003228643     0.000004662395     0.000001975068
      25       -0.000004570599    -0.000003521157    -0.000003692939
      26        0.000014926597    -0.000010321517     0.000009726042
      27       -0.000003462481     0.000000061346     0.000001916282
      28        0.000007716259    -0.000003084637    -0.000012281478
      29        0.000010309331    -0.000000273383    -0.000006882116

  **** Optimization is complete! (in 7 steps) ****
    Final optimized geometry and variables:
    Molecular point group: c1

    Geometry (in Angstrom), charge = 0, multiplicity = 1:

    O            2.187407773534    -0.068351511147    -1.576741828608
    C            2.297894655449    -0.341451225476    -0.425156455217
    C            1.687902026089     0.411867928306     0.735270156544
    O            2.997195026869    -1.383957175035     0.006079524322
    C            0.886496744186     1.664710310154     0.339285257304
    H            1.077162135623    -0.303882037856     1.276505810439
    H            2.502615574201     0.656702165370     1.409017008953
    C           -0.562891389332     1.662295908806     0.839676296800
    H            0.892733730683     1.764538970094    -0.738977473032
    H            1.389709003401     2.542689333544     0.731673991197
    C           -1.462739610174     0.643274373975     0.135642402493
    H           -0.979932570492     2.655949604202     0.692720064664
    H           -0.578421849982     1.483649415976     1.913935648097
    C           -2.901943409327     0.656720967564     0.654382622269
    H           -1.460212168261     0.847033587056    -0.933202305031
    H           -1.055188893503    -0.359104444779     0.252244744694
    C           -3.804479279075    -0.366696764583    -0.037125716716
    H           -3.322614643994     1.652259955030     0.522501593220
    H           -2.901198117607     0.467109615437     1.726760765191
    C           -5.240544055896    -0.346522704126     0.485414805447
    H           -3.807604878463    -0.177461576758    -1.108330538681
    H           -3.386827719385    -1.362664930723     0.094819081739
    H           -5.855515123539    -1.081674911462    -0.024518015529
    H           -5.698148942519     0.627528840369     0.336767200048
    H           -5.274298078939    -0.567463666701     1.548634887181
    C            3.625585791417    -2.187638126777    -0.975849474669
    H            2.891879289817    -2.613389820226    -1.645111266304
    H            4.136165367694    -2.969090749998    -0.434892935494
    H            4.332824657740    -1.604876676286    -1.548283144332

  Mulliken Charges: (a.u.)
   Center  Symbol    Alpha    Beta     Spin     Total
       1     O     4.28478  4.28478  0.00000 -0.56957
       2     C     2.61332  2.61332  0.00000  0.77337
       3     C     3.20997  3.20997  0.00000 -0.41994
       4     O     4.30526  4.30526  0.00000 -0.61053
       5     C     3.16383  3.16383  0.00000 -0.32767
       6     H     0.39799  0.39799  0.00000  0.20402
       7     H     0.39711  0.39711  0.00000  0.20578
       8     C     3.15744  3.15744  0.00000 -0.31488
       9     H     0.39440  0.39440  0.00000  0.21119
      10     H     0.41691  0.41691  0.00000  0.16618
      11     C     3.15340  3.15340  0.00000 -0.30680
      12     H     0.41988  0.41988  0.00000  0.16024
      13     H     0.42476  0.42476  0.00000  0.15047
      14     C     3.15044  3.15044  0.00000 -0.30088
      15     H     0.41804  0.41804  0.00000  0.16392
      16     H     0.42550  0.42550  0.00000  0.14900
      17     C     3.15138  3.15138  0.00000 -0.30276
      18     H     0.42372  0.42372  0.00000  0.15255
      19     H     0.42498  0.42498  0.00000  0.15003
      20     C     3.23930  3.23930  0.00000 -0.47861
      21     H     0.42195  0.42195  0.00000  0.15609
      22     H     0.42351  0.42351  0.00000  0.15299
      23     H     0.41939  0.41939  0.00000  0.16123
      24     H     0.42179  0.42179  0.00000  0.15643
      25     H     0.42227  0.42227  0.00000  0.15547
      26     C     3.09194  3.09194  0.00000 -0.18388
      27     H     0.40915  0.40915  0.00000  0.18170
      28     H     0.40857  0.40857  0.00000  0.18287
      29     H     0.40901  0.40901  0.00000  0.18199

   Total alpha = 44.00000, Total beta = 44.00000, Total charge =  0.00000
