  ==> Input File <==

--------------------------------------------------------------------------
set {
	reference rhf
	basis 6-31G*
}

set_num_threads( 1 )
memory 2 gb

molecule MOL {
0 1

O	 1.214711	 1.306902	 -0.000018
C	 1.122059	 0.121804	 -0.000188
C	 -0.170150	 -0.657997	 -0.000612
O	 2.172624	 -0.688929	 0.000216
C	 -1.412532	 0.227344	 -0.000452
H	 -0.153702	 -1.313099	 -0.867402
H	 -0.153924	 -1.313811	 0.865644
C	 -1.517192	 1.082515	 -1.264215
H	 -1.396666	 0.866990	 0.876534
H	 -2.296373	 -0.395464	 0.096698
C	 -2.759848	 1.971747	 -1.272912
H	 -0.628804	 1.703972	 -1.357136
H	 -1.530090	 0.436798	 -2.139974
H	 -2.759311	 2.653457	 -0.427380
H	 -2.809886	 2.567473	 -2.178938
H	 -3.667029	 1.377211	 -1.216438
C	 3.452279	 -0.082609	 0.000533
H	 3.583069	 0.529321	 -0.880332
H	 4.163299	 -0.894027	 0.001117
H	 3.582335	 0.529955	 0.881077

	symmetry c1
}
set optking {
	frozen_dihedral = ("
		9 5 8 12,
		1 2 3 6,
		1 2 4 17
	")
}

ee = energy('scf')
oeprop('DIPOLE', 'QUADRUPOLE', 'MULLIKEN_CHARGES')
f=open( 'psi4out.xyz', 'w' )
f.write( "20  " )
f.write( str(ee) + "\n" )
f.write( MOL.save_string_xyz() )
f.close()
--------------------------------------------------------------------------

    Molecular point group: c1

    Geometry (in Angstrom), charge = 0, multiplicity = 1:

       Center              X                  Y                   Z               Mass
    ------------   -----------------  -----------------  -----------------  -----------------
           O          0.916162536938     0.887897037647     0.317400960668    15.994914619560
           C          0.823510536938    -0.297200962353     0.317230960668    12.000000000000
           C         -0.468698463062    -1.077001962353     0.316806960668    12.000000000000
           O          1.874075536938    -1.107933962353     0.317634960668    15.994914619560
           C         -1.711080463062    -0.191660962353     0.316966960668    12.000000000000
           H         -0.452250463062    -1.732103962353    -0.549983039332     1.007825032070
           H         -0.452472463062    -1.732815962353     1.183062960668     1.007825032070
           C         -1.815740463062     0.663510037647    -0.946796039332    12.000000000000
           H         -1.695214463062     0.447985037647     1.193952960668     1.007825032070
           H         -2.594921463062    -0.814468962353     0.414116960668     1.007825032070
           C         -3.058396463062     1.552742037647    -0.955493039332    12.000000000000
           H         -0.927352463062     1.284967037647    -1.039717039332     1.007825032070
           H         -1.828638463062     0.017793037647    -1.822555039332     1.007825032070
           H         -3.057859463062     2.234452037647    -0.109961039332     1.007825032070
           H         -3.108434463062     2.148468037647    -1.861519039332     1.007825032070
           H         -3.965577463062     0.958206037647    -0.899019039332     1.007825032070
           C          3.153730536938    -0.501613962353     0.317951960668    12.000000000000
           H          3.284520536938     0.110316037647    -0.562913039332     1.007825032070
           H          3.864750536938    -1.313031962353     0.318535960668     1.007825032070
           H          3.283786536938     0.110950037647     1.198495960668     1.007825032070

  Charge       = 0
  Multiplicity = 1
  Basis Set: 6-31G*
  Basis Set:

    Orbital Energies (a.u.)
    -----------------------

    Doubly Occupied:

       1A    -20.605320     2A    -20.547167     3A    -11.374236
       4A    -11.281996     5A    -11.236047     6A    -11.219398
       7A    -11.207482     8A    -11.203651     9A     -1.471341
      10A     -1.365393    11A     -1.086216    12A     -1.020174
      13A     -0.968279    14A     -0.882479    15A     -0.803202
      16A     -0.767997    17A     -0.701832    18A     -0.681622
      19A     -0.673328    20A     -0.630413    21A     -0.606288
      22A     -0.584555    23A     -0.576660    24A     -0.543862
      25A     -0.533100    26A     -0.517985    27A     -0.508823
      28A     -0.478249    29A     -0.470205    30A     -0.460810
      31A     -0.455106    32A     -0.431159

  @DF-RHF Final Energy:  -383.93946545116069

   => Energetics <=

    Nuclear Repulsion Energy =            391.1160153775338131
    One-Electron Energy =               -1298.3221660497956691
    Two-Electron Energy =                 523.2666852211010564
    DFT Exchange-Correlation Energy =       0.0000000000000000
    Empirical Dispersion Energy =           0.0000000000000000
    PCM Polarization Energy =               0.0000000000000000
    EFP Energy =                            0.0000000000000000
    Total Energy =                       -383.9394654511607996

  Mulliken Charges: (a.u.)
   Center  Symbol    Alpha    Beta     Spin     Total
       1     O     4.28595  4.28595  0.00000 -0.57191
       2     C     2.60536  2.60536  0.00000  0.78927
       3     C     3.20982  3.20982  0.00000 -0.41964
       4     O     4.30679  4.30679  0.00000 -0.61357
       5     C     3.15255  3.15255  0.00000 -0.30509
       6     H     0.40026  0.40026  0.00000  0.19948
       7     H     0.39799  0.39799  0.00000  0.20402
       8     C     3.16266  3.16266  0.00000 -0.32533
       9     H     0.41264  0.41264  0.00000  0.17472
      10     H     0.41858  0.41858  0.00000  0.16284
      11     C     3.23951  3.23951  0.00000 -0.47902
      12     H     0.39685  0.39685  0.00000  0.20629
      13     H     0.42817  0.42817  0.00000  0.14367
      14     H     0.41995  0.41995  0.00000  0.16010
      15     H     0.41937  0.41937  0.00000  0.16125
      16     H     0.42495  0.42495  0.00000  0.15009
      17     C     3.09250  3.09250  0.00000 -0.18500
      18     H     0.40908  0.40908  0.00000  0.18184
      19     H     0.40813  0.40813  0.00000  0.18374
      20     H     0.40887  0.40887  0.00000  0.18226

   Total alpha = 32.00000, Total beta = 32.00000, Total charge = -0.00000
