  ==> Input File <==

--------------------------------------------------------------------------
set {
	reference rhf
	basis 6-31G*
}

set_num_threads( 4 )
memory 2 gb

molecule MOL {
0 1

H	 -2.682522	 2.117374	 1.363983
C	 -2.092245	 1.453300	 1.992250
O	 -0.795460	 1.314074	 1.508202
H	 -2.026108	 1.877422	 2.984665
H	 -2.602287	 0.492831	 2.053775
C	 -0.719715	 0.768384	 0.229244
C	 0.719720	 0.768376	 -0.229267
H	 -1.094941	 -0.255770	 0.232312
H	 -1.319749	 1.343415	 -0.473112
O	 1.392611	 -0.295398	 0.366430
H	 0.750534	 0.687200	 -1.313918
H	 1.185043	 1.714359	 0.050526
C	 2.706965	 -0.449871	 -0.062409
H	 2.756559	 -0.644779	 -1.131878
H	 3.305899	 0.433456	 0.155466
H	 3.125548	 -1.294566	 0.467107

	symmetry c1
}
set optking {
	frozen_dihedral = ("
		3 6 7 11
	")
}

ee = optimize('scf')
oeprop('DIPOLE', 'QUADRUPOLE', 'MULLIKEN_CHARGES')
f=open( 'psi4out.xyz', 'w' )
f.write( "16  " )
f.write( str(ee) + "\n" )
f.write( MOL.save_string_xyz() )
f.close()
--------------------------------------------------------------------------

    Molecular point group: c1
  Charge       = 0
  Multiplicity = 1
  Basis Set: 6-31G*
  Basis Set:
  @DF-RHF Final Energy:  -306.97695466837018
    Total Energy =                       -306.9769546683700128
    Molecular point group: c1
  Basis Set: 6-31G*
  Basis Set:
  Basis Set: 6-31G*
  Basis Set:
  @DF-RHF Final Energy:  -306.97745570196344
    Total Energy =                       -306.9774557019633789
  Basis Set: 6-31G*
  Basis Set:
  Basis Set: 6-31G*
  Basis Set:
  @DF-RHF Final Energy:  -306.97748827936874
    Total Energy =                       -306.9774882793687993
  Basis Set: 6-31G*
  Basis Set:
  Charge       = 0
  Multiplicity = 1
  Basis Set: 6-31G*
  Basis Set:

    Orbital Energies (a.u.)
    -----------------------

    Doubly Occupied:

       1A    -20.554272     2A    -20.554001     3A    -11.268838
       4A    -11.268175     5A    -11.263877     6A    -11.263776
       7A     -1.388043     8A     -1.371363     9A     -1.030570
      10A     -0.936651    11A     -0.891138    12A     -0.825265
      13A     -0.683198    14A     -0.681206    15A     -0.656875
      16A     -0.634574    17A     -0.632055    18A     -0.597788
      19A     -0.546745    20A     -0.538209    21A     -0.509114
      22A     -0.478317    23A     -0.462812    24A     -0.420691
      25A     -0.410309

  @DF-RHF Final Energy:  -306.97749199751371

   => Energetics <=

    Nuclear Repulsion Energy =            258.3297473556615955
    One-Electron Energy =                -930.8787585929885608
    Two-Electron Energy =                 365.5715192398134832
    DFT Exchange-Correlation Energy =       0.0000000000000000
    Empirical Dispersion Energy =           0.0000000000000000
    PCM Polarization Energy =               0.0000000000000000
    EFP Energy =                            0.0000000000000000
    Total Energy =                       -306.9774919975135390
    Molecular point group: c1
  Basis Set: 6-31G*
  Basis Set:

  -Total Gradient:
     Atom            X                  Y                   Z
    ------   -----------------  -----------------  -----------------
       1       -0.000009088682    -0.000009914683     0.000007418243
       2        0.000005605714     0.000061360628     0.000051216839
       3       -0.000155753899     0.001191190326    -0.000637886522
       4       -0.000038389660     0.000000687613     0.000017868098
       5        0.000010439664    -0.000005211674    -0.000009069287
       6        0.000227285217    -0.001165657559     0.000723895052
       7       -0.000182790413    -0.001947238092    -0.000017701531
       8       -0.000007156712     0.000024480769     0.000050669560
       9       -0.000018597838    -0.000010225488    -0.000037988914
      10        0.000024637295     0.000105772937    -0.000010448350
      11        0.000053995086     0.001850112767    -0.000186914738
      12        0.000036727228    -0.000038124652     0.000028268766
      13        0.000005049138    -0.000063498267     0.000025193096
      14        0.000002694578     0.000005747281     0.000006030792
      15       -0.000000168409     0.000007117359    -0.000001031710
      16        0.000045511694    -0.000006599267    -0.000009519396

  **** Optimization is complete! (in 4 steps) ****
    Final optimized geometry and variables:
    Molecular point group: c1

    Geometry (in Angstrom), charge = 0, multiplicity = 1:

    H           -2.929901604570     1.400045277863     0.815603390217
    C           -2.225303617504     0.823198592009     1.413136432130
    O           -0.962920360316     0.795369877595     0.828758528339
    H           -2.125990671136     1.290368944987     2.383229975634
    H           -2.625523387233    -0.180104135395     1.544528520802
    C           -0.935106783009     0.225889079030    -0.443005133626
    C            0.496742077824     0.145310051549    -0.921830258658
    H           -1.367019087124    -0.772247999419    -0.432665035225
    H           -1.514244953278     0.835964509641    -1.137115220882
    O            1.127286146875    -0.939711620879    -0.317635655207
    H            0.514061779507     0.045234298642    -2.007634264371
    H            1.003401653355     1.074863212315    -0.670828130783
    C            2.485620232352    -1.040504807503    -0.602008007776
    H            2.662949982298    -1.155603702058    -1.670379474514
    H            3.030968603669    -0.165406036460    -0.254374506672
    H            2.862681483625    -1.914682733529    -0.089362155429

  Mulliken Charges: (a.u.)
   Center  Symbol    Alpha    Beta     Spin     Total
       1     H     0.43174  0.43174  0.00000  0.13652
       2     C     3.07962  3.07962  0.00000 -0.15923
       3     O     4.30222  4.30222  0.00000 -0.60445
       4     H     0.41140  0.41140  0.00000  0.17721
       5     H     0.42788  0.42788  0.00000  0.14425
       6     C     2.99395  2.99395  0.00000  0.01210
       7     C     2.99405  2.99405  0.00000  0.01190
       8     H     0.42113  0.42113  0.00000  0.15774
       9     H     0.43216  0.43216  0.00000  0.13568
      10     O     4.30199  4.30199  0.00000 -0.60398
      11     H     0.43208  0.43208  0.00000  0.13584
      12     H     0.42133  0.42133  0.00000  0.15734
      13     C     3.07971  3.07971  0.00000 -0.15942
      14     H     0.43159  0.43159  0.00000  0.13682
      15     H     0.42780  0.42780  0.00000  0.14441
      16     H     0.41136  0.41136  0.00000  0.17729

   Total alpha = 25.00000, Total beta = 25.00000, Total charge = -0.00000
