  ==> Input File <==

--------------------------------------------------------------------------
set {
	reference rhf
	basis 6-31G*
}

set_num_threads( 1 )
memory 2 gb

molecule MOL {
0 1

H	 -0.688294	 1.759638	 4.778321
C	 -0.295151	 1.471935	 3.819441
C	 -0.569254	 2.243493	 2.700194
C	 0.483806	 0.331123	 3.706718
H	 -1.173504	 3.128005	 2.788999
C	 -0.063399	 1.872923	 1.467606
H	 0.695226	 -0.265730	 4.575438
C	 0.991238	 -0.041756	 2.473897
H	 -0.265244	 2.457885	 0.590822
C	 0.718333	 0.729401	 1.350242
H	 1.594486	 -0.923787	 2.382055
C	 1.239129	 0.373821	 0.000060
O	 1.970282	 -0.730723	 0.000018
O	 1.026107	 1.009977	 -0.984209
C	 3.377318	 -0.566646	 -0.000065
H	 3.695437	 -0.028981	 -0.881264
H	 3.789299	 -1.563704	 0.000236
H	 3.695516	 -0.028316	 0.880770

	symmetry c1
}
set optking {
	frozen_dihedral = ("
		12 13 15 16,
		13 12 10 6
	")
}

ee = energy('scf')
oeprop('DIPOLE', 'QUADRUPOLE', 'MULLIKEN_CHARGES')
f=open( 'psi4out.xyz', 'w' )
f.write( "18  " )
f.write( str(ee) + "\n" )
f.write( MOL.save_string_xyz() )
f.close()
--------------------------------------------------------------------------

    Molecular point group: c1

    Geometry (in Angstrom), charge = 0, multiplicity = 1:

       Center              X                  Y                   Z               Mass
    ------------   -----------------  -----------------  -----------------  -----------------
           H         -1.643388351730     1.127465029589     3.413341918158     1.007825032070
           C         -1.250245351730     0.839762029589     2.454461918158    12.000000000000
           C         -1.524348351730     1.611320029589     1.335214918158    12.000000000000
           C         -0.471288351730    -0.301049970411     2.341738918158    12.000000000000
           H         -2.128598351730     2.495832029589     1.424019918158     1.007825032070
           C         -1.018493351730     1.240750029589     0.102626918158    12.000000000000
           H         -0.259868351730    -0.897902970411     3.210458918158     1.007825032070
           C          0.036143648270    -0.673928970411     1.108917918158    12.000000000000
           H         -1.220338351730     1.825712029589    -0.774157081842     1.007825032070
           C         -0.236761351730     0.097228029589    -0.014737081842    12.000000000000
           H          0.639391648270    -1.555959970411     1.017075918158     1.007825032070
           C          0.284034648270    -0.258351970411    -1.364919081842    12.000000000000
           O          1.015187648270    -1.362895970411    -1.364961081842    15.994914619560
           O          0.071012648270     0.377804029589    -2.349188081842    15.994914619560
           C          2.422223648270    -1.198818970411    -1.365044081842    12.000000000000
           H          2.740342648270    -0.661153970411    -2.246243081842     1.007825032070
           H          2.834204648270    -2.195876970411    -1.364743081842     1.007825032070
           H          2.740421648270    -0.660488970411    -0.484209081842     1.007825032070

  Charge       = 0
  Multiplicity = 1
  Basis Set: 6-31G*
  Basis Set:

    Orbital Energies (a.u.)
    -----------------------

    Doubly Occupied:

       1A    -20.589934     2A    -20.552331     3A    -11.378028
       4A    -11.293510     5A    -11.248675     6A    -11.248588
       7A    -11.245577     8A    -11.243711     9A    -11.240915
      10A    -11.239444    11A     -1.466384    12A     -1.366707
      13A     -1.167757    14A     -1.045978    15A     -1.027835
      16A     -0.981279    17A     -0.869027    18A     -0.838319
      19A     -0.780411    20A     -0.739664    21A     -0.684212
      22A     -0.676859    23A     -0.666300    24A     -0.638258
      25A     -0.626682    26A     -0.607256    27A     -0.596665
      28A     -0.561455    29A     -0.526724    30A     -0.520317
      31A     -0.502927    32A     -0.492188    33A     -0.462404
      34A     -0.442399    35A     -0.347786    36A     -0.343917

  @DF-RHF Final Energy:  -457.33160704752527

   => Energetics <=

    Nuclear Repulsion Energy =            496.5431417387811734
    One-Electron Energy =               -1607.2285681392309016
    Two-Electron Energy =                 653.3538193529245746
    DFT Exchange-Correlation Energy =       0.0000000000000000
    Empirical Dispersion Energy =           0.0000000000000000
    PCM Polarization Energy =               0.0000000000000000
    EFP Energy =                            0.0000000000000000
    Total Energy =                       -457.3316070475250399

  Mulliken Charges: (a.u.)
   Center  Symbol    Alpha    Beta     Spin     Total
       1     H     0.39462  0.39462  0.00000  0.21075
       2     C     3.08996  3.08996  0.00000 -0.17991
       3     C     3.10673  3.10673  0.00000 -0.21345
       4     C     3.10652  3.10652  0.00000 -0.21304
       5     H     0.39478  0.39478  0.00000  0.21045
       6     C     3.08544  3.08544  0.00000 -0.17088
       7     H     0.39590  0.39590  0.00000  0.20820
       8     C     3.09150  3.09150  0.00000 -0.18301
       9     H     0.37564  0.37564  0.00000  0.24872
      10     C     3.07740  3.07740  0.00000 -0.15480
      11     H     0.38434  0.38434  0.00000  0.23131
      12     C     2.59214  2.59214  0.00000  0.81572
      13     O     4.31766  4.31766  0.00000 -0.63531
      14     O     4.26761  4.26761  0.00000 -0.53522
      15     C     3.09538  3.09538  0.00000 -0.19076
      16     H     0.40424  0.40424  0.00000  0.19151
      17     H     0.40275  0.40275  0.00000  0.19450
      18     H     0.41739  0.41739  0.00000  0.16522

   Total alpha = 36.00000, Total beta = 36.00000, Total charge =  0.00000
