                              Psi4 1.0.54 Driver

  ==> Input File <==

--------------------------------------------------------------------------
set {
	reference rhf
	basis cc-pvtz
}

set_num_threads( 4 )
memory 2 gb

molecule MOL {
0 1

H	 2.679323	 1.239901	 2.223047
O	 1.754258	 1.117067	 2.335266
C	 1.154735	 0.816003	 1.166763
C	 1.860174	 0.712756	 -0.022513
C	 -0.209243	 0.607611	 1.179336
H	 2.922675	 0.875412	 -0.030492
C	 1.201244	 0.401854	 -1.194736
H	 -0.756891	 0.686627	 2.096223
C	 -0.861704	 0.296439	 0.000000
H	 1.757400	 0.324651	 -2.108822
C	 -0.163057	 0.191887	 -1.190707
C	 -2.330689	 0.069587	 0.000000
H	 -0.678175	 -0.050014	 -2.100666
O	 -2.848621	 -0.993976	 0.000000
H	 -2.934306	 0.982410	 0.000000

	symmetry c1
}
set optking {
	frozen_dihedral = ("
		11 9 12 14
	")
}

ee,wfn = optimize('scf', return_wfn=True)
oeprop( wfn, 'DIPOLE', 'QUADRUPOLE', 'MULLIKEN_CHARGES')
f=open( 'psi4out.xyz', 'w' )
f.write( "15  " )
f.write( str(ee) + "\n" )
f.write( MOL.save_string_xyz() )
f.close()
--------------------------------------------------------------------------

    Molecular point group: c1
  Charge       = 0
  Multiplicity = 1
  Basis Set: CC-PVTZ
  Basis Set:
  @DF-RHF Final Energy:  -418.42729245025430
    Total Energy =                       -418.4272924502547539
    Molecular point group: c1
  Basis Set: CC-PVTZ
  Basis Set:
  Basis Set: CC-PVTZ
  Basis Set:
  @DF-RHF Final Energy:  -418.42764588293255
    Total Energy =                       -418.4276458829327794
  Basis Set: CC-PVTZ
  Basis Set:
  Basis Set: CC-PVTZ
  Basis Set:
  @DF-RHF Final Energy:  -418.42678192789879
    Total Energy =                       -418.4267819278993557
  Basis Set: CC-PVTZ
  Basis Set:
  Basis Set: CC-PVTZ
  Basis Set:
  @DF-RHF Final Energy:  -418.42772924160380
    Total Energy =                       -418.4277292416038563
  Basis Set: CC-PVTZ
  Basis Set:
  Basis Set: CC-PVTZ
  Basis Set:
  @DF-RHF Final Energy:  -418.42774212266801
    Total Energy =                       -418.4277421226681781
  Basis Set: CC-PVTZ
  Basis Set:
  Charge       = 0
  Multiplicity = 1
  Basis Set: CC-PVTZ
  Basis Set:

    Orbital Energies (a.u.)
    -----------------------

    Doubly Occupied:

       1A    -20.597024     2A    -20.563868     3A    -11.333075
       4A    -11.312727     5A    -11.256406     6A    -11.249408
       7A    -11.239138     8A    -11.237780     9A    -11.235913
      10A     -1.428900    11A     -1.418330    12A     -1.172251
      13A     -1.051478    14A     -1.026908    15A     -0.901987
      16A     -0.845716    17A     -0.821124    18A     -0.742984
      19A     -0.703276    20A     -0.677642    21A     -0.672265
      22A     -0.642673    23A     -0.616345    24A     -0.607957
      25A     -0.587399    26A     -0.545950    27A     -0.535665
      28A     -0.515729    29A     -0.498247    30A     -0.426764
      31A     -0.357693    32A     -0.328677

  @DF-RHF Final Energy:  -418.42774275552659

   => Energetics <=

    Nuclear Repulsion Energy =            402.7264206609011694
    One-Electron Energy =               -1368.0057268885525446
    Two-Electron Energy =                 546.8515634721250080
    DFT Exchange-Correlation Energy =       0.0000000000000000
    Empirical Dispersion Energy =           0.0000000000000000
    PCM Polarization Energy =               0.0000000000000000
    EFP Energy =                            0.0000000000000000
    Total Energy =                       -418.4277427555264239
    Molecular point group: c1
  Basis Set: CC-PVTZ
  Basis Set:

  -Total Gradient:
     Atom            X                  Y                   Z
    ------   -----------------  -----------------  -----------------
       1       -0.000001653238     0.000011807534     0.000000385498
       2        0.000015799949     0.000040596283    -0.000016499809
       3       -0.000112731238    -0.000158761495     0.000106433802
       4        0.000006857880     0.000015020088    -0.000165879849
       5        0.000077620159     0.000072383653     0.000030255733
       6       -0.000002715007     0.000007304106     0.000012003863
       7        0.000143523896     0.000035742260     0.000091599753
       8        0.000005217677    -0.000000830895     0.000001399847
       9        0.000488618398    -0.003280337694     0.001636194775
      10       -0.000006330163    -0.000001422532    -0.000008437130
      11       -0.000449157019     0.002220833893    -0.000291400702
      12       -0.000289116155     0.001097129052    -0.004179746471
      13        0.000009127953    -0.000000983030     0.000003786321
      14        0.000059694713    -0.000005469906     0.002789257594
      15        0.000055242200    -0.000053011317    -0.000009353230

  **** Optimization is complete! (in 6 steps) ****
    Final optimized geometry and variables:
    Molecular point group: c1

    Geometry (in Angstrom), charge = 0, multiplicity = 1:

    H            2.726490091486     0.881997701067     1.934096307652
    O            1.799111610486     0.766670706848     2.037241181332
    C            1.214136604704     0.462143294770     0.863685849234
    C            1.925274697121     0.365375428418    -0.318705620160
    C           -0.153486222628     0.249668813485     0.870036656198
    H            2.986245566643     0.536095062957    -0.324774342339
    C            1.264251236965     0.050133746210    -1.489922242615
    H           -0.687704950021     0.336130160617     1.796558317916
    C           -0.797837634939    -0.082767311217    -0.304100954563
    H            1.820490687540    -0.021589373276    -2.404826959081
    C           -0.097119271272    -0.174519966118    -1.495150868005
    C           -2.285086370793    -0.278084313113    -0.292005836574
    H           -0.603832999163    -0.429072956216    -2.405285400618
    O           -2.813842854353    -1.333261812111    -0.308202597735
    H           -2.879057950022     0.640407833215    -0.244733039365

  Mulliken Charges: (a.u.)
   Center  Symbol    Alpha    Beta     Spin     Total
       1     H     0.38618  0.38618  0.00000  0.22765
       2     O     4.17157  4.17157  0.00000 -0.34313
       3     C     2.83568  2.83568  0.00000  0.32863
       4     C     3.14140  3.14140  0.00000 -0.28281
       5     C     3.13637  3.13637  0.00000 -0.27274
       6     H     0.43259  0.43259  0.00000  0.13481
       7     C     3.05249  3.05249  0.00000 -0.10498
       8     H     0.41922  0.41922  0.00000  0.16156
       9     C     2.91874  2.91874  0.00000  0.16252
      10     H     0.41968  0.41968  0.00000  0.16064
      11     C     3.12145  3.12145  0.00000 -0.24289
      12     C     2.92975  2.92975  0.00000  0.14051
      13     H     0.42132  0.42132  0.00000  0.15737
      14     O     4.15565  4.15565  0.00000 -0.31131
      15     H     0.45792  0.45792  0.00000  0.08416

   Total alpha = 32.00000, Total beta = 32.00000, Total charge = -0.00000

*** Psi4 exiting successfully. Buy a developer a beer!
