  ==> Input File <==

--------------------------------------------------------------------------
set {
	reference rhf
	basis 6-31G*
}

set_num_threads( 4 )
memory 2 gb

molecule MOL {
0 1

H	 -1.981360	 0.206187	 -0.379416
N	 -1.172117	 -0.314371	 -0.100254
C	 -0.024542	 0.565565	 0.069209
H	 -1.400830	 -0.763310	 0.766477
C	 1.271298	 -0.229563	 -0.014192
H	 -0.049409	 1.297310	 -0.731596
H	 -0.046881	 1.125219	 1.006750
H	 1.332152	 -0.753033	 -0.961461
H	 2.134169	 0.422483	 0.080702
H	 1.326077	 -0.968298	 0.781395

	symmetry c1
}
set optking {
	frozen_dihedral = ("
		1 2 3 6
	")
}

ee = optimize('scf')
oeprop('DIPOLE', 'QUADRUPOLE', 'MULLIKEN_CHARGES')
f=open( 'psi4out.xyz', 'w' )
f.write( "10  " )
f.write( str(ee) + "\n" )
f.write( MOL.save_string_xyz() )
f.close()
--------------------------------------------------------------------------

    Molecular point group: c1
  Charge       = 0
  Multiplicity = 1
  Basis Set: 6-31G*
  Basis Set:
  @DF-RHF Final Energy:  -134.24687606824588
    Total Energy =                       -134.2468760682459106
    Molecular point group: c1
  Basis Set: 6-31G*
  Basis Set:
  Basis Set: 6-31G*
  Basis Set:
  @DF-RHF Final Energy:  -134.24697909029186
    Total Energy =                       -134.2469790902918305
  Basis Set: 6-31G*
  Basis Set:
  Basis Set: 6-31G*
  Basis Set:
  @DF-RHF Final Energy:  -134.24700203581801
    Total Energy =                       -134.2470020358179852
  Basis Set: 6-31G*
  Basis Set:
  Charge       = 0
  Multiplicity = 1
  Basis Set: 6-31G*
  Basis Set:

    Orbital Energies (a.u.)
    -----------------------

    Doubly Occupied:

       1A    -15.531964     2A    -11.242651     3A    -11.203619
       4A     -1.174831     5A     -0.986116     6A     -0.822255
       7A     -0.667166     8A     -0.627398     9A     -0.576619
      10A     -0.516300    11A     -0.511458    12A     -0.483341
      13A     -0.379688

  @DF-RHF Final Energy:  -134.24700277275718

   => Energetics <=

    Nuclear Repulsion Energy =             83.2535355806065240
    One-Electron Energy =                -345.5542624208620737
    Two-Electron Energy =                 128.0537240674983650
    DFT Exchange-Correlation Energy =       0.0000000000000000
    Empirical Dispersion Energy =           0.0000000000000000
    PCM Polarization Energy =               0.0000000000000000
    EFP Energy =                            0.0000000000000000
    Total Energy =                       -134.2470027727571846
    Molecular point group: c1
  Basis Set: 6-31G*
  Basis Set:

  -Total Gradient:
     Atom            X                  Y                   Z
    ------   -----------------  -----------------  -----------------
       1        0.000587053387    -0.000309808842    -0.002259065968
       2       -0.001025546932     0.000601927552     0.003122864116
       3        0.001644818635    -0.001608741695    -0.002100765470
       4        0.000019609954     0.000012317870    -0.000017565425
       5       -0.000048717451    -0.000001806312     0.000044399026
       6       -0.001149563106     0.001293783003     0.001219601156
       7        0.000021043868    -0.000020454261    -0.000007751254
       8       -0.000023816954     0.000027992033    -0.000003140980
       9       -0.000021064742     0.000006522799     0.000004252850
      10       -0.000003816661    -0.000001732146    -0.000002828051

  **** Optimization is complete! (in 4 steps) ****
    Final optimized geometry and variables:
    Molecular point group: c1

    Geometry (in Angstrom), charge = 0, multiplicity = 1:

    H           -1.987761865273     0.204520257430    -0.357142914716
    N           -1.174077688523    -0.312700168663    -0.090170406329
    C           -0.018489030956     0.560212447622     0.064120928003
    H           -1.383566767586    -0.795324608077     0.761545184157
    C            1.275884466455    -0.237678287725    -0.008610174193
    H           -0.047950088710     1.293985226302    -0.734622569197
    H           -0.040722906310     1.129404435206     0.995785365206
    H            1.344010755717    -0.759703168681    -0.956049571957
    H            2.140611784050     0.410998712988     0.097982778447
    H            1.316833696533    -0.979474169325     0.784403901716

  Mulliken Charges: (a.u.)
   Center  Symbol    Alpha    Beta     Spin     Total
       1     H     0.33146  0.33146  0.00000  0.33708
       2     N     3.92204  3.92204  0.00000 -0.84408
       3     C     3.06472  3.06472  0.00000 -0.12944
       4     H     0.33374  0.33374  0.00000  0.33252
       5     C     3.23220  3.23220  0.00000 -0.46439
       6     H     0.42097  0.42097  0.00000  0.15807
       7     H     0.43294  0.43294  0.00000  0.13413
       8     H     0.41313  0.41313  0.00000  0.17374
       9     H     0.42444  0.42444  0.00000  0.15112
      10     H     0.42437  0.42437  0.00000  0.15125

   Total alpha = 13.00000, Total beta = 13.00000, Total charge =  0.00000
