  ==> Input File <==

--------------------------------------------------------------------------
set {
	reference rhf
	basis 6-31G*
}

set_num_threads( 4 )
memory 2 gb

molecule MOL {
0 1

O	 3.825186	 -0.225340	 0.553724
C	 2.843464	 0.164689	 -0.000222
C	 1.546494	 -0.624492	 -0.000609
C	 2.829135	 1.483924	 -0.744917
C	 0.291004	 0.242674	 0.000989
H	 1.557904	 -1.283758	 -0.867573
H	 1.558622	 -1.285963	 0.864672
C	 -0.994322	 -0.586602	 0.000262
H	 0.309117	 0.896430	 -0.865270
H	 0.309661	 0.894078	 0.869017
C	 -2.259874	 0.272531	 0.000494
H	 -1.004862	 -1.240012	 -0.870939
H	 -1.005220	 -1.241071	 0.870675
C	 -3.549786	 -0.549746	 -0.000374
H	 -2.250389	 0.926680	 -0.869574
H	 -2.250838	 0.925513	 0.871430
C	 -4.809590	 0.315458	 -0.000369
H	 -3.560515	 -1.202009	 -0.871156
H	 -3.561123	 -1.202955	 0.869711
H	 -4.844746	 0.956611	 -0.876632
H	 -5.706986	 -0.295590	 -0.001609
H	 -4.845960	 0.954827	 0.877144
H	 2.075362	 2.145911	 -0.328724
H	 3.800484	 1.953307	 -0.674253
H	 2.577934	 1.326242	 -1.789747

	symmetry c1
}
set optking {
	frozen_dihedral = ("
		1 2 3 6
	")
}

ee = optimize('scf')
oeprop('DIPOLE', 'QUADRUPOLE', 'MULLIKEN_CHARGES')
f=open( 'psi4out.xyz', 'w' )
f.write( "25  " )
f.write( str(ee) + "\n" )
f.write( MOL.save_string_xyz() )
f.close()
--------------------------------------------------------------------------

    Molecular point group: c1
  Charge       = 0
  Multiplicity = 1
  Basis Set: 6-31G*
  Basis Set:
  @DF-RHF Final Energy:  -387.13166058767013
    Total Energy =                       -387.1316605876689891
    Molecular point group: c1
  Basis Set: 6-31G*
  Basis Set:
  Basis Set: 6-31G*
  Basis Set:
  @DF-RHF Final Energy:  -387.13183127441886
    Total Energy =                       -387.1318312744188006
  Basis Set: 6-31G*
  Basis Set:
  Basis Set: 6-31G*
  Basis Set:
  @DF-RHF Final Energy:  -387.13209879089766
    Total Energy =                       -387.1320987908972029
  Basis Set: 6-31G*
  Basis Set:
  Basis Set: 6-31G*
  Basis Set:
  @DF-RHF Final Energy:  -387.13320165663066
    Total Energy =                       -387.1332016566302627
  Basis Set: 6-31G*
  Basis Set:
  @DF-RHF Final Energy:  -387.13331521930530
    Total Energy =                       -387.1333152193052456
  Basis Set: 6-31G*
  Basis Set:
  @DF-RHF Final Energy:  -387.13332128202063
    Total Energy =                       -387.1333212820205745
  Basis Set: 6-31G*
  Basis Set:
  Basis Set: 6-31G*
  Basis Set:
  @DF-RHF Final Energy:  -387.13333060465692
    Total Energy =                       -387.1333306046568623
  Basis Set: 6-31G*
  Basis Set:
  Basis Set: 6-31G*
  Basis Set:
  @DF-RHF Final Energy:  -387.13333186609401
    Total Energy =                       -387.1333318660938403
  Basis Set: 6-31G*
  Basis Set:
  Charge       = 0
  Multiplicity = 1
  Basis Set: 6-31G*
  Basis Set:

    Orbital Energies (a.u.)
    -----------------------

    Doubly Occupied:

       1A    -20.546522     2A    -11.324902     3A    -11.231730
       4A    -11.230096     5A    -11.227331     6A    -11.224262
       7A    -11.220704     8A    -11.220002     9A    -11.212604
      10A     -1.392613    11A     -1.101668    12A     -1.061031
      13A     -1.010374    14A     -0.971247    15A     -0.898311
      16A     -0.821979    17A     -0.797561    18A     -0.731230
      19A     -0.668414    20A     -0.647959    21A     -0.636370
      22A     -0.621032    23A     -0.599864    24A     -0.589418
      25A     -0.563543    26A     -0.560448    27A     -0.546437
      28A     -0.532425    29A     -0.518824    30A     -0.497994
      31A     -0.488920    32A     -0.475444    33A     -0.469601
      34A     -0.468977    35A     -0.458687    36A     -0.395736

  @DF-RHF Final Energy:  -387.13333192780379

   => Energetics <=

    Nuclear Repulsion Energy =            438.6395739713590842
    One-Electron Energy =               -1393.6172900127933190
    Two-Electron Energy =                 567.8443841136303263
    DFT Exchange-Correlation Energy =       0.0000000000000000
    Empirical Dispersion Energy =           0.0000000000000000
    PCM Polarization Energy =               0.0000000000000000
    EFP Energy =                            0.0000000000000000
    Total Energy =                       -387.1333319278038516
    Molecular point group: c1
  Basis Set: 6-31G*
  Basis Set:

  -Total Gradient:
     Atom            X                  Y                   Z
    ------   -----------------  -----------------  -----------------
       1        0.000359822445    -0.000661514087    -0.001174950329
       2       -0.000405145427     0.000669764028     0.001748451206
       3       -0.000502504709     0.000969165308    -0.001368080211
       4       -0.000035841985     0.000031473858     0.000052597745
       5        0.000012210169     0.000022873426     0.000019291219
       6        0.000576608557    -0.001041975595     0.000750845222
       7        0.000016085909     0.000004467695     0.000006537022
       8        0.000014202678     0.000001934228    -0.000024036405
       9        0.000001620087     0.000005976741    -0.000009888775
      10       -0.000034178400     0.000011765761     0.000005604089
      11        0.000001680141     0.000003951912     0.000019984556
      12       -0.000005020096    -0.000010515006    -0.000000963259
      13        0.000009845150     0.000010617434    -0.000004197713
      14       -0.000001386711     0.000001188906    -0.000000102430
      15       -0.000000773968     0.000003128019     0.000010974261
      16       -0.000000405880    -0.000004022077     0.000009431432
      17       -0.000002492238    -0.000001387413    -0.000016303487
      18        0.000002847742    -0.000007694400     0.000004459721
      19       -0.000002543205     0.000008895586     0.000003441640
      20       -0.000002419502     0.000003767090    -0.000000097299
      21       -0.000001083106     0.000000775021    -0.000004013346
      22        0.000002610484    -0.000004537800     0.000000025039
      23       -0.000000897860     0.000004721912    -0.000014452423
      24       -0.000000036472    -0.000014253503    -0.000001939280
      25       -0.000002803814    -0.000008567045    -0.000012618192

  **** Optimization is complete! (in 9 steps) ****
    Final optimized geometry and variables:
    Molecular point group: c1

    Geometry (in Angstrom), charge = 0, multiplicity = 1:

    O            3.834569416891    -0.360226887781     0.599884492145
    C            2.896069077587     0.110277296561     0.032232480441
    C            1.569514683118    -0.632796689660    -0.004499750686
    C            3.016176665835     1.421886537860    -0.714826707452
    C            0.301321218283     0.225463087922    -0.007773649526
    H            1.594121548485    -1.262559428863    -0.893690694529
    H            1.572336146918    -1.308406566629     0.843328248857
    C           -0.971242223381    -0.623737311070     0.016240940414
    H            0.283754569708     0.866643511600    -0.885038568988
    H            0.306216660235     0.885713171040     0.857290872824
    C           -2.251858049217     0.212596772948     0.015916267754
    H           -0.974554245012    -1.289077368250    -0.845380965745
    H           -0.958708781664    -1.264121081268     0.895842860455
    C           -3.525804234177    -0.634032780240     0.038723941332
    H           -2.263583141556     0.854155394196    -0.863746385219
    H           -2.247963904541     0.877746729886     0.877820215180
    C           -4.801619718628     0.207256871234     0.034960179333
    H           -3.530534899808    -1.300343634305    -0.821244887443
    H           -3.517454401164    -1.272765951974     0.919248237903
    H           -4.856375784535     0.832865600596    -0.851512532919
    H           -5.686778092923    -0.420891929642     0.051217979133
    H           -4.843444042174     0.860032269596     0.902291117828
    H            2.406121694485     2.186312209203    -0.243576271356
    H            4.049613685911     1.738895508187    -0.711819475100
    H            2.668127045725     1.316630394329    -1.738196741530

  Mulliken Charges: (a.u.)
   Center  Symbol    Alpha    Beta     Spin     Total
       1     O     4.26306  4.26306  0.00000 -0.52612
       2     C     2.73140  2.73140  0.00000  0.53720
       3     C     3.20755  3.20755  0.00000 -0.41510
       4     C     3.29209  3.29209  0.00000 -0.58417
       5     C     3.16322  3.16322  0.00000 -0.32644
       6     H     0.40638  0.40638  0.00000  0.18724
       7     H     0.39892  0.39892  0.00000  0.20215
       8     C     3.15243  3.15243  0.00000 -0.30486
       9     H     0.41910  0.41910  0.00000  0.16181
      10     H     0.41773  0.41773  0.00000  0.16454
      11     C     3.15118  3.15118  0.00000 -0.30237
      12     H     0.42189  0.42189  0.00000  0.15622
      13     H     0.41970  0.41970  0.00000  0.16060
      14     C     3.15196  3.15196  0.00000 -0.30392
      15     H     0.42376  0.42376  0.00000  0.15247
      16     H     0.42284  0.42284  0.00000  0.15432
      17     C     3.23960  3.23960  0.00000 -0.47920
      18     H     0.42251  0.42251  0.00000  0.15499
      19     H     0.42193  0.42193  0.00000  0.15615
      20     H     0.42164  0.42164  0.00000  0.15673
      21     H     0.41831  0.41831  0.00000  0.16338
      22     H     0.42128  0.42128  0.00000  0.15744
      23     H     0.40566  0.40566  0.00000  0.18868
      24     H     0.39583  0.39583  0.00000  0.20833
      25     H     0.41003  0.41003  0.00000  0.17994

   Total alpha = 36.00000, Total beta = 36.00000, Total charge =  0.00000
