  ==> Input File <==

--------------------------------------------------------------------------
set {
	reference rhf
	basis 6-31G*
}

set_num_threads( 4 )
memory 2 gb

molecule MOL {
0 1

H	 -1.836216	 1.387520	 -0.000064
C	 -1.301823	 0.443321	 -0.000031
O	 -0.003969	 0.658512	 0.000451
O	 -1.829879	 -0.616434	 -0.000857
C	 0.850537	 -0.484732	 0.000380
C	 1.991610	 -0.198686	 0.952456
H	 1.201920	 -0.657208	 -1.007638
H	 0.277571	 -1.348782	 0.307664
H	 2.549295	 0.674397	 0.633478
H	 2.667884	 -1.046644	 0.981669
H	 1.620630	 -0.020496	 1.955207

	symmetry c1
}
set optking {
	frozen_dihedral = ("
		7 5 3 2
	")
}

ee = optimize('scf')
oeprop('DIPOLE', 'QUADRUPOLE', 'MULLIKEN_CHARGES')
f=open( 'psi4out.xyz', 'w' )
f.write( "11  " )
f.write( str(ee) + "\n" )
f.write( MOL.save_string_xyz() )
f.close()
--------------------------------------------------------------------------

    Molecular point group: c1
  Charge       = 0
  Multiplicity = 1
  Basis Set: 6-31G*
  Basis Set:
  @DF-RHF Final Energy:  -266.82684170192533
    Total Energy =                       -266.8268417019253889
    Molecular point group: c1
  Basis Set: 6-31G*
  Basis Set:
  Basis Set: 6-31G*
  Basis Set:
  @DF-RHF Final Energy:  -266.82708009621672
    Total Energy =                       -266.8270800962166049
  Basis Set: 6-31G*
  Basis Set:
  Basis Set: 6-31G*
  Basis Set:
  @DF-RHF Final Energy:  -266.82732741583396
    Total Energy =                       -266.8273274158337927
  Basis Set: 6-31G*
  Basis Set:
  Basis Set: 6-31G*
  Basis Set:
  @DF-RHF Final Energy:  -266.82604731458861
    Total Energy =                       -266.8260473145885499
  Basis Set: 6-31G*
  Basis Set:
  Basis Set: 6-31G*
  Basis Set:
  @DF-RHF Final Energy:  -266.82735966681105
    Total Energy =                       -266.8273596668109917
  Basis Set: 6-31G*
  Basis Set:
  Charge       = 0
  Multiplicity = 1
  Basis Set: 6-31G*
  Basis Set:

    Orbital Energies (a.u.)
    -----------------------

    Doubly Occupied:

       1A    -20.612433     2A    -20.556266     3A    -11.379352
       4A    -11.290989     5A    -11.226684     6A     -1.474256
       7A     -1.374268     8A     -1.052480     9A     -0.905404
      10A     -0.802515    11A     -0.742408    12A     -0.684945
      13A     -0.673009    14A     -0.601576    15A     -0.571593
      16A     -0.555614    17A     -0.528576    18A     -0.506467
      19A     -0.458363    20A     -0.452518

  @DF-RHF Final Energy:  -266.82736415185406

   => Energetics <=

    Nuclear Repulsion Energy =            179.2589692603458502
    One-Electron Energy =                -719.2732313144351792
    Two-Electron Energy =                 273.1868979022353869
    DFT Exchange-Correlation Energy =       0.0000000000000000
    Empirical Dispersion Energy =           0.0000000000000000
    PCM Polarization Energy =               0.0000000000000000
    EFP Energy =                            0.0000000000000000
    Total Energy =                       -266.8273641518539989
    Molecular point group: c1
  Basis Set: 6-31G*
  Basis Set:

  -Total Gradient:
     Atom            X                  Y                   Z
    ------   -----------------  -----------------  -----------------
       1        0.000049508999    -0.000022539158    -0.000004084916
       2        0.000013911742    -0.000124220422     0.001062407692
       3        0.000238444005     0.000318474927    -0.001462612830
       4       -0.000089646731     0.000033430764     0.000002463911
       5       -0.001122088931    -0.000799858869     0.000179232664
       6       -0.000036957413    -0.000036045754    -0.000012309414
       7        0.000938277251     0.000671843489     0.000240072210
       8        0.000027845268    -0.000033730759     0.000009097201
       9       -0.000025340054    -0.000007358970    -0.000019238418
      10        0.000011309449     0.000002297932     0.000005457978
      11       -0.000005263580    -0.000002293180    -0.000000486078

  **** Optimization is complete! (in 6 steps) ****
    Final optimized geometry and variables:
    Molecular point group: c1

    Geometry (in Angstrom), charge = 0, multiplicity = 1:

    H           -1.751079229399     1.454098043130    -0.187842545690
    C           -1.247023163040     0.493629410965    -0.201333651459
    O            0.056382157715     0.678426526044    -0.186225173268
    O           -1.812831194009    -0.546001109913    -0.226132014583
    C            0.923190938422    -0.457403548614    -0.165811161278
    C            2.077420647069    -0.151900641833     0.766989356759
    H            1.274788853377    -0.613835945359    -1.177408782532
    H            0.368468449908    -1.326171228809     0.149299006852
    H            2.603450679291     0.740911474439     0.449323031973
    H            2.778305754953    -0.980543335797     0.770230714809
    H            1.722509393690     0.001173321960     1.779925900237

  Mulliken Charges: (a.u.)
   Center  Symbol    Alpha    Beta     Spin     Total
       1     H     0.41196  0.41196  0.00000  0.17609
       2     C     2.72689  2.72689  0.00000  0.54623
       3     O     4.29211  4.29211  0.00000 -0.58423
       4     O     4.26314  4.26314  0.00000 -0.52628
       5     C     3.01280  3.01280  0.00000 -0.02559
       6     C     3.24757  3.24757  0.00000 -0.49515
       7     H     0.41186  0.41186  0.00000  0.17628
       8     H     0.39575  0.39575  0.00000  0.20851
       9     H     0.41025  0.41025  0.00000  0.17950
      10     H     0.41581  0.41581  0.00000  0.16838
      11     H     0.41187  0.41187  0.00000  0.17627

   Total alpha = 20.00000, Total beta = 20.00000, Total charge = -0.00000
