  ==> Input File <==

--------------------------------------------------------------------------
set {
	reference rhf
	basis 6-31G*
}

set_num_threads( 1 )
memory 2 gb

molecule MOL {
0 1

O	 0.607233	 0.519223	 -0.995203
C	 1.122059	 0.121804	 -0.000188
C	 0.689074	 0.456105	 1.406461
O	 2.172624	 -0.688929	 0.000216
C	 -0.517420	 1.387979	 1.464121
H	 0.486352	 -0.482317	 1.915402
H	 1.545768	 0.889209	 1.915627
C	 -0.934746	 1.710621	 2.899776
H	 -1.347578	 0.932743	 0.932987
H	 -0.286788	 2.306108	 0.932755
C	 -2.142134	 2.644819	 2.966788
H	 -1.163925	 0.787230	 3.427888
H	 -0.098545	 2.164128	 3.428142
H	 -3.005491	 2.204469	 2.476521
H	 -2.417450	 2.857279	 3.995058
H	 -1.932290	 3.591412	 2.477331
C	 3.452279	 -0.082609	 0.000533
H	 3.583069	 0.529321	 -0.880332
H	 4.163299	 -0.894027	 0.001117
H	 3.582335	 0.529955	 0.881077

	symmetry c1
}
set optking {
	frozen_dihedral = ("
		9 5 8 12,
		1 2 3 6,
		9 5 3 6
	")
}

ee = energy('scf')
oeprop('DIPOLE', 'QUADRUPOLE', 'MULLIKEN_CHARGES')
f=open( 'psi4out.xyz', 'w' )
f.write( "20  " )
f.write( str(ee) + "\n" )
f.write( MOL.save_string_xyz() )
f.close()
--------------------------------------------------------------------------

    Molecular point group: c1

    Geometry (in Angstrom), charge = 0, multiplicity = 1:

       Center              X                  Y                   Z               Mass
    ------------   -----------------  -----------------  -----------------  -----------------
           O          0.024670726165    -0.236148421678    -1.948023859513    15.994914619560
           C          0.539496726165    -0.633567421678    -0.953008859513    12.000000000000
           C          0.106511726165    -0.299266421678     0.453640140487    12.000000000000
           O          1.590061726165    -1.444300421678    -0.952604859513    15.994914619560
           C         -1.099982273835     0.632607578322     0.511300140487    12.000000000000
           H         -0.096210273835    -1.237688421678     0.962581140487     1.007825032070
           H          0.963205726165     0.133837578322     0.962806140487     1.007825032070
           C         -1.517308273835     0.955249578322     1.946955140487    12.000000000000
           H         -1.930140273835     0.177371578322    -0.019833859513     1.007825032070
           H         -0.869350273835     1.550736578322    -0.020065859513     1.007825032070
           C         -2.724696273835     1.889447578322     2.013967140487    12.000000000000
           H         -1.746487273835     0.031858578322     2.475067140487     1.007825032070
           H         -0.681107273835     1.408756578322     2.475321140487     1.007825032070
           H         -3.588053273835     1.449097578322     1.523700140487     1.007825032070
           H         -3.000012273835     2.101907578322     3.042237140487     1.007825032070
           H         -2.514852273835     2.836040578322     1.524510140487     1.007825032070
           C          2.869716726165    -0.837980421678    -0.952287859513    12.000000000000
           H          3.000506726165    -0.226050421678    -1.833152859513     1.007825032070
           H          3.580736726165    -1.649398421678    -0.951703859513     1.007825032070
           H          2.999772726165    -0.225416421678    -0.071743859513     1.007825032070

  Charge       = 0
  Multiplicity = 1
  Basis Set: 6-31G*
  Basis Set:

    Orbital Energies (a.u.)
    -----------------------

    Doubly Occupied:

       1A    -20.587323     2A    -20.555108     3A    -11.373817
       4A    -11.295596     5A    -11.237342     6A    -11.221605
       7A    -11.220306     8A    -11.211686     9A     -1.464156
      10A     -1.367473    11A     -1.089034    12A     -1.019514
      13A     -0.977367    14A     -0.895650    15A     -0.806999
      16A     -0.768974    17A     -0.695333    18A     -0.682265
      19A     -0.676711    20A     -0.643957    21A     -0.616618
      22A     -0.589348    23A     -0.587762    24A     -0.553525
      25A     -0.537305    26A     -0.512484    27A     -0.494960
      28A     -0.486798    29A     -0.478470    30A     -0.471642
      31A     -0.452782    32A     -0.432266

  @DF-RHF Final Energy:  -383.91990466844840

   => Energetics <=

    Nuclear Repulsion Energy =            382.7420030369924575
    One-Electron Energy =               -1281.3155462638537756
    Two-Electron Energy =                 514.6536385584131494
    DFT Exchange-Correlation Energy =       0.0000000000000000
    Empirical Dispersion Energy =           0.0000000000000000
    PCM Polarization Energy =               0.0000000000000000
    EFP Energy =                            0.0000000000000000
    Total Energy =                       -383.9199046684482255

  Mulliken Charges: (a.u.)
   Center  Symbol    Alpha    Beta     Spin     Total
       1     O     4.25864  4.25864  0.00000 -0.51727
       2     C     2.61484  2.61484  0.00000  0.77031
       3     C     3.21276  3.21276  0.00000 -0.42552
       4     O     4.31020  4.31020  0.00000 -0.62041
       5     C     3.15173  3.15173  0.00000 -0.30346
       6     H     0.39858  0.39858  0.00000  0.20284
       7     H     0.40831  0.40831  0.00000  0.18337
       8     C     3.15392  3.15392  0.00000 -0.30783
       9     H     0.41054  0.41054  0.00000  0.17892
      10     H     0.41329  0.41329  0.00000  0.17342
      11     C     3.23931  3.23931  0.00000 -0.47862
      12     H     0.42267  0.42267  0.00000  0.15466
      13     H     0.42430  0.42430  0.00000  0.15139
      14     H     0.41947  0.41947  0.00000  0.16105
      15     H     0.41877  0.41877  0.00000  0.16246
      16     H     0.42020  0.42020  0.00000  0.15959
      17     C     3.09332  3.09332  0.00000 -0.18664
      18     H     0.40724  0.40724  0.00000  0.18552
      19     H     0.40086  0.40086  0.00000  0.19827
      20     H     0.42103  0.42103  0.00000  0.15795

   Total alpha = 32.00000, Total beta = 32.00000, Total charge =  0.00000
