  ==> Input File <==

--------------------------------------------------------------------------
set {
	reference rhf
	basis cc-pvtz
}

set_num_threads( 4 )
memory 2 gb

molecule MOL {
0 1

H	 2.161072	 -0.371739	 0.681751
O	 1.583947	 -0.677544	 -0.001533
C	 0.489979	 0.078084	 0.002623
C	 -0.763662	 -0.754014	 0.000816
O	 0.539051	 1.259395	 -0.000088
C	 -2.038001	 0.074705	 -0.000833
H	 -0.712945	 -1.405886	 -0.864342
H	 -0.715137	 -1.405770	 0.866182
H	 -2.087267	 0.710831	 -0.874232
H	 -2.903419	 -0.576199	 -0.001922
H	 -2.089467	 0.710909	 0.872389

	symmetry c1
}
set optking {
	frozen_dihedral = ("
		1 2 3 5
	")
}

ee = optimize('scf')
oeprop('DIPOLE', 'QUADRUPOLE', 'MULLIKEN_CHARGES')
f=open( 'psi4out.xyz', 'w' )
f.write( "11  " )
f.write( str(ee) + "\n" )
f.write( MOL.save_string_xyz() )
f.close()
--------------------------------------------------------------------------

    Molecular point group: c1
  Charge       = 0
  Multiplicity = 1
  Basis Set: CC-PVTZ
  Basis Set:
  @DF-RHF Final Energy:  -266.94155584662622
    Total Energy =                       -266.9415558466261018
    Molecular point group: c1
  Basis Set: CC-PVTZ
  Basis Set:
  Basis Set: CC-PVTZ
  Basis Set:
  @DF-RHF Final Energy:  -266.93911367918633
    Total Energy =                       -266.9391136791863346
  Basis Set: CC-PVTZ
  Basis Set:
  Basis Set: CC-PVTZ
  Basis Set:
  @DF-RHF Final Energy:  -266.94243870950902
    Total Energy =                       -266.9424387095091333
  Basis Set: CC-PVTZ
  Basis Set:
  Basis Set: CC-PVTZ
  Basis Set:
  @DF-RHF Final Energy:  -266.94253764960501
    Total Energy =                       -266.9425376496050148
  Basis Set: CC-PVTZ
  Basis Set:
  @DF-RHF Final Energy:  -266.94254461911203
    Total Energy =                       -266.9425446191121409
  @DF-RHF Final Energy:  -266.94254386256955
    Total Energy =                       -266.9425438625694369
  @DF-RHF Final Energy:  -266.94043563023109
    Total Energy =                       -266.9404356302309793
  @DF-RHF Final Energy:  -266.94252283536520
    Total Energy =                       -266.9425228353652528
  @DF-RHF Final Energy:  -266.94254522396750
    Total Energy =                       -266.9425452239676133
  @DF-RHF Final Energy:  -266.94254541465432
    Total Energy =                       -266.9425454146543188
  @DF-RHF Final Energy:  -266.94254522316066
    Total Energy =                       -266.9425452231606641
  @DF-RHF Final Energy:  -266.94254520331776
    Total Energy =                       -266.9425452033175930
  @DF-RHF Final Energy:  -266.94254505572690
    Total Energy =                       -266.9425450557267823
  @DF-RHF Final Energy:  -266.94254504535314
    Total Energy =                       -266.9425450453530289
  @DF-RHF Final Energy:  -266.94254495178649
    Total Energy =                       -266.9425449517864308
  @DF-RHF Final Energy:  -266.94254459868455
    Total Energy =                       -266.9425445986846057
  @DF-RHF Final Energy:  -266.93005491294912
    Total Energy =                       -266.9300549129492310
  @DF-RHF Final Energy:  -266.91791852554178
    Total Energy =                       -266.9179185255419497
  @DF-RHF Final Energy:  -266.91697921768650
    Total Energy =                       -266.9169792176865599
  @DF-RHF Final Energy:  -266.91543984231976
    Total Energy =                       -266.9154398423198700
  @DF-RHF Final Energy:  -266.94183289642092
    Total Energy =                       -266.9418328964209763
  @DF-RHF Final Energy:  -266.94190684226345
    Total Energy =                       -266.9419068422633927
  @DF-RHF Final Energy:  -266.94196621076571
    Total Energy =                       -266.9419662107654290
  @DF-RHF Final Energy:  -266.94200361957985
    Total Energy =                       -266.9420036195798502
  @DF-RHF Final Energy:  -266.94200709303198
    Total Energy =                       -266.9420070930318616
  @DF-RHF Final Energy:  -266.94199625159149
    Total Energy =                       -266.9419962515913767
  @DF-RHF Final Energy:  -266.93772681462519
    Total Energy =                       -266.9377268146253073
  @DF-RHF Final Energy:  -266.93622087283387
    Total Energy =                       -266.9362208728338146
  @DF-RHF Final Energy:  -266.93746292040362
    Total Energy =                       -266.9374629204037319
  @DF-RHF Final Energy:  -266.93876184123081
    Total Energy =                       -266.9387618412306438
  @DF-RHF Final Energy:  -266.94025838035896
    Total Energy =                       -266.9402583803588982
  @DF-RHF Final Energy:  -266.94067673770735
    Total Energy =                       -266.9406767377071787
  @DF-RHF Final Energy:  -266.94139246840552
    Total Energy =                       -266.9413924684054678
  @DF-RHF Final Energy:  -266.94161420331613
    Total Energy =                       -266.9416142033161350
  @DF-RHF Final Energy:  -266.94172351038918
    Total Energy =                       -266.9417235103891812
  @DF-RHF Final Energy:  -266.94164439167059
    Total Energy =                       -266.9416443916704793
  Basis Set: CC-PVTZ
  Basis Set:
  @DF-RHF Final Energy:  -266.94186175480218
    Total Energy =                       -266.9418617548021189
  Basis Set: CC-PVTZ
  Basis Set:
  Basis Set: CC-PVTZ
  Basis Set:
  @DF-RHF Final Energy:  -266.94189197397282
    Total Energy =                       -266.9418919739729290
  Basis Set: CC-PVTZ
  Basis Set:
  Basis Set: CC-PVTZ
  Basis Set:
  @DF-RHF Final Energy:  -266.94190363952623
    Total Energy =                       -266.9419036395263447
  Basis Set: CC-PVTZ
  Basis Set:
  Charge       = 0
  Multiplicity = 1
  Basis Set: CC-PVTZ
  Basis Set:

    Orbital Energies (a.u.)
    -----------------------

    Doubly Occupied:

       1A    -20.593314     2A    -20.547912     3A    -11.375410
       4A    -11.244486     5A    -11.219875     6A     -1.468561
       7A     -1.368298     8A     -1.066610     9A     -0.915348
      10A     -0.800689    11A     -0.709508    12A     -0.686974
      13A     -0.661176    14A     -0.612215    15A     -0.577050
      16A     -0.528607    17A     -0.527546    18A     -0.508430
      19A     -0.488047    20A     -0.449938

  @DF-RHF Final Energy:  -266.94190531973481

   => Energetics <=

    Nuclear Repulsion Energy =            179.5102154153385356
    One-Electron Energy =                -720.2042547863989057
    Two-Electron Energy =                 273.7521340513253563
    DFT Exchange-Correlation Energy =       0.0000000000000000
    Empirical Dispersion Energy =           0.0000000000000000
    PCM Polarization Energy =               0.0000000000000000
    EFP Energy =                            0.0000000000000000
    Total Energy =                       -266.9419053197350422
    Molecular point group: c1
  Basis Set: CC-PVTZ
  Basis Set:

  -Total Gradient:
     Atom            X                  Y                   Z
    ------   -----------------  -----------------  -----------------
       1       -0.004543023810    -0.005353230808     0.009196443574
       2        0.007145862466     0.007930383484    -0.017802242669
       3       -0.010502330243    -0.003276950058     0.023136626159
       4        0.003707790404    -0.005774906449    -0.004313101505
       5        0.005699733399     0.003824904227    -0.011389027942
       6       -0.000090828210     0.007516596374     0.004462246660
       7       -0.000870028114    -0.000088618085     0.000796352847
       8       -0.000343158174     0.000516526620     0.000068732275
       9       -0.001344288711    -0.000887361270    -0.001982901099
      10        0.000100115272    -0.001485899406    -0.000207217695
      11        0.001040155722    -0.002921444626    -0.001965910604

    Molecular point group: c1

    Geometry (in Angstrom), charge = 0, multiplicity = 1:

    H            2.229648945103    -0.408888784453     0.551037290693
    O            1.596406959399    -0.667457467802    -0.101976041150
    C            0.481711748343     0.083847185776     0.048767422922
    C           -0.765730585305    -0.750151600189    -0.039507839843
    O            0.548509401538     1.258614231275     0.126451974935
    C           -2.045277483632     0.079036578394    -0.062689500076
    H           -0.678528330218    -1.388609684781    -0.908880396087
    H           -0.753226991283    -1.415369131472     0.818108315434
    H           -2.144410209227     0.626862414011    -0.992138660040
    H           -2.901204391339    -0.581197364560     0.024178366126
    H           -2.059125955666     0.777613237971     0.755425121221

  Mulliken Charges: (a.u.)
   Center  Symbol    Alpha    Beta     Spin     Total
       1     H     0.38133  0.38133  0.00000  0.23733
       2     O     4.17464  4.17464  0.00000 -0.34927
       3     C     2.80395  2.80395  0.00000  0.39210
       4     C     3.09948  3.09948  0.00000 -0.19897
       5     O     4.17496  4.17496  0.00000 -0.34991
       6     C     3.13962  3.13962  0.00000 -0.27923
       7     H     0.43633  0.43633  0.00000  0.12734
       8     H     0.44470  0.44470  0.00000  0.11061
       9     H     0.44889  0.44889  0.00000  0.10223
      10     H     0.45093  0.45093  0.00000  0.09813
      11     H     0.44518  0.44518  0.00000  0.10964

   Total alpha = 20.00000, Total beta = 20.00000, Total charge = -0.00000
