                              Psi4 1.0.54 Driver

  ==> Input File <==

--------------------------------------------------------------------------
set {
	reference rhf
	basis cc-pvtz
}

set_num_threads( 4 )
memory 2 gb

molecule MOL {
0 1

H	 1.469870	 -0.241055	 2.045377
C	 1.767348	 -0.017584	 1.012312
C	 0.692262	 0.592428	 0.156232
O	 2.864886	 -0.261774	 0.647053
C	 -0.554654	 -0.292621	 0.086567
H	 1.100979	 0.775872	 -0.828723
H	 0.429779	 1.551627	 0.597727
C	 -1.846385	 0.513195	 -0.016346
H	 -0.473986	 -0.956115	 -0.769708
H	 -0.597929	 -0.929215	 0.966651
C	 -3.089953	 -0.365049	 -0.098564
H	 -1.798267	 1.154820	 -0.891143
H	 -1.925398	 1.173265	 0.842889
H	 -3.055079	 -1.012299	 -0.968245
H	 -3.988403	 0.236438	 -0.170014
H	 -3.183055	 -0.995885	 0.779079

	symmetry c1
}
set optking {
	frozen_dihedral = ("
		6 3 5 9
	")
}

ee,wfn = optimize('scf', return_wfn=True)
oeprop( wfn, 'DIPOLE', 'QUADRUPOLE', 'MULLIKEN_CHARGES')
f=open( 'psi4out.xyz', 'w' )
f.write( "16  " )
f.write( str(ee) + "\n" )
f.write( MOL.save_string_xyz() )
f.close()
--------------------------------------------------------------------------

    Molecular point group: c1
  Charge       = 0
  Multiplicity = 1
  Basis Set: CC-PVTZ
  Basis Set:
  @DF-RHF Final Energy:  -270.11656148265678
    Total Energy =                       -270.1165614826566639
    Molecular point group: c1
  Basis Set: CC-PVTZ
  Basis Set:
  Basis Set: CC-PVTZ
  Basis Set:
  @DF-RHF Final Energy:  -270.11673880658486
    Total Energy =                       -270.1167388065850332
  Basis Set: CC-PVTZ
  Basis Set:
  Basis Set: CC-PVTZ
  Basis Set:
  @DF-RHF Final Energy:  -270.11674424018764
    Total Energy =                       -270.1167442401878702
  Basis Set: CC-PVTZ
  Basis Set:
  Basis Set: CC-PVTZ
  Basis Set:
  @DF-RHF Final Energy:  -270.11679490332210
    Total Energy =                       -270.1167949033221589
  Basis Set: CC-PVTZ
  Basis Set:
  Basis Set: CC-PVTZ
  Basis Set:
  @DF-RHF Final Energy:  -270.11680138622944
    Total Energy =                       -270.1168013862295538
  Basis Set: CC-PVTZ
  Basis Set:
  Charge       = 0
  Multiplicity = 1
  Basis Set: CC-PVTZ
  Basis Set:

    Orbital Energies (a.u.)
    -----------------------

    Doubly Occupied:

       1A    -20.552019     2A    -11.321302     3A    -11.234798
       4A    -11.234124     5A    -11.227756     6A    -11.216846
       7A     -1.406992     8A     -1.097001     9A     -1.019774
      10A     -0.907183    11A     -0.813706    12A     -0.794029
      13A     -0.677878    14A     -0.653588    15A     -0.628213
      16A     -0.605547    17A     -0.582224    18A     -0.555505
      19A     -0.533187    20A     -0.509198    21A     -0.486340
      22A     -0.482805    23A     -0.479921    24A     -0.411427

  @DF-RHF Final Energy:  -270.11680146018426

   => Energetics <=

    Nuclear Repulsion Energy =            229.2682013155603613
    One-Electron Energy =                -819.9072901783789575
    Two-Electron Energy =                 320.5222874026342197
    DFT Exchange-Correlation Energy =       0.0000000000000000
    Empirical Dispersion Energy =           0.0000000000000000
    PCM Polarization Energy =               0.0000000000000000
    EFP Energy =                            0.0000000000000000
    Total Energy =                       -270.1168014601844334
    Molecular point group: c1
  Basis Set: CC-PVTZ
  Basis Set:

  -Total Gradient:
     Atom            X                  Y                   Z
    ------   -----------------  -----------------  -----------------
       1       -0.000078077904    -0.000037843301     0.000003457189
       2       -0.000033574271     0.000155795744    -0.000018590814
       3       -0.003243284939     0.004650090249    -0.000951587728
       4        0.000163649744    -0.000068447925    -0.000074647744
       5        0.002701662037    -0.004089663110     0.002861129879
       6        0.002317213469    -0.003211890201     0.000366143392
       7        0.000039748140     0.000080088753     0.000064077983
       8        0.000027425934    -0.000073631471    -0.000073371114
       9       -0.001794396768     0.002617305365    -0.002231460879
      10       -0.000075339377    -0.000048736370     0.000051799685
      11       -0.000027236707     0.000013203712     0.000027547641
      12        0.000004179590     0.000030821309    -0.000052783754
      13        0.000018679895     0.000015116062     0.000023236157
      14        0.000005732985    -0.000007471990    -0.000030804109
      15       -0.000017080708     0.000004384894     0.000006721569
      16       -0.000009301113    -0.000029121720     0.000029132648

  **** Optimization is complete! (in 6 steps) ****
    Final optimized geometry and variables:
    Molecular point group: c1

    Geometry (in Angstrom), charge = 0, multiplicity = 1:

    H            1.550247236160    -0.274922016128     1.737774228628
    C            1.819517322853    -0.044131621854     0.698279868621
    C            0.721059578193     0.581760181903    -0.119385600546
    O            2.903762530319    -0.292420697962     0.298375925604
    C           -0.533733722982    -0.306104255703    -0.161696751194
    H            1.120382657422     0.752766418716    -1.109541675592
    H            0.487025532572     1.539207389563     0.338884391861
    C           -1.826970370577     0.495943722320    -0.298744896087
    H           -0.457943209927    -0.977434706326    -1.010055380638
    H           -0.591482777778    -0.922255235589     0.731375531942
    C           -3.065329335695    -0.385862414595    -0.411339612954
    H           -1.757935136153     1.136979395602    -1.173273640981
    H           -1.929584692495     1.157267971632     0.557069090678
    H           -3.009507791473    -1.030096707066    -1.282261911555
    H           -3.964414759518     0.212472194788    -0.499890348124
    H           -3.174969067899    -1.020495524384     0.461832487688

  Mulliken Charges: (a.u.)
   Center  Symbol    Alpha    Beta     Spin     Total
       1     H     0.46695  0.46695  0.00000  0.06609
       2     C     2.90459  2.90459  0.00000  0.19082
       3     C     3.08052  3.08052  0.00000 -0.16104
       4     O     4.16426  4.16426  0.00000 -0.32852
       5     C     3.10143  3.10143  0.00000 -0.20287
       6     H     0.44136  0.44136  0.00000  0.11729
       7     H     0.44956  0.44956  0.00000  0.10087
       8     C     3.08587  3.08587  0.00000 -0.17174
       9     H     0.44497  0.44497  0.00000  0.11006
      10     H     0.45191  0.45191  0.00000  0.09619
      11     C     3.14934  3.14934  0.00000 -0.29867
      12     H     0.45077  0.45077  0.00000  0.09847
      13     H     0.45411  0.45411  0.00000  0.09177
      14     H     0.45333  0.45333  0.00000  0.09334
      15     H     0.44671  0.44671  0.00000  0.10658
      16     H     0.45432  0.45432  0.00000  0.09137

   Total alpha = 24.00000, Total beta = 24.00000, Total charge =  0.00000

*** Psi4 exiting successfully. Buy a developer a beer!
