  ==> Input File <==

--------------------------------------------------------------------------
set {
	reference rhf
	basis 6-31G*
}

set_num_threads( 4 )
memory 2 gb

molecule MOL {
0 1

H	 -1.201804	 1.508922	 0.592514
C	 -0.592456	 0.614473	 0.730146
N	 0.538815	 0.649616	 0.000000
O	 -0.927915	 -0.273586	 1.456801
C	 1.521968	 -0.411503	 0.000000
H	 0.699374	 1.450695	 -0.566371
H	 2.150599	 -0.357004	 -0.881901
H	 0.999455	 -1.354525	 0.000000
H	 2.150599	 -0.357004	 0.881901

	symmetry c1
}
set optking {
	frozen_dihedral = ("
		6 3 5 7
	")
}

ee = optimize('scf')
oeprop('DIPOLE', 'QUADRUPOLE', 'MULLIKEN_CHARGES')
f=open( 'psi4out.xyz', 'w' )
f.write( "9  " )
f.write( str(ee) + "\n" )
f.write( MOL.save_string_xyz() )
f.close()
--------------------------------------------------------------------------

    Molecular point group: c1
  Charge       = 0
  Multiplicity = 1
  Basis Set: 6-31G*
  Basis Set:
  @DF-RHF Final Energy:  -207.96062549209239
    Total Energy =                       -207.9606254920924471
    Molecular point group: c1
  Basis Set: 6-31G*
  Basis Set:
  Basis Set: 6-31G*
  Basis Set:
  @DF-RHF Final Energy:  -207.96094466719103
    Total Energy =                       -207.9609446671909723
  Basis Set: 6-31G*
  Basis Set:
  Basis Set: 6-31G*
  Basis Set:
  @DF-RHF Final Energy:  -207.96096117354733
    Total Energy =                       -207.9609611735473322
  Basis Set: 6-31G*
  Basis Set:
  Basis Set: 6-31G*
  Basis Set:
  @DF-RHF Final Energy:  -207.96103965633569
    Total Energy =                       -207.9610396563356289
  Basis Set: 6-31G*
  Basis Set:
  Basis Set: 6-31G*
  Basis Set:
  @DF-RHF Final Energy:  -207.96105615633050
    Total Energy =                       -207.9610561563305282
  Basis Set: 6-31G*
  Basis Set:
  Charge       = 0
  Multiplicity = 1
  Basis Set: 6-31G*
  Basis Set:

    Orbital Energies (a.u.)
    -----------------------

    Doubly Occupied:

       1A    -20.526018     2A    -15.590415     3A    -11.342820
       4A    -11.261193     5A     -1.389275     6A     -1.236021
       7A     -0.967856     8A     -0.807964     9A     -0.746606
      10A     -0.641040    11A     -0.626781    12A     -0.592469
      13A     -0.557797    14A     -0.532803    15A     -0.423786
      16A     -0.391228

  @DF-RHF Final Energy:  -207.96106285088115

   => Energetics <=

    Nuclear Repulsion Energy =            122.6872944140796022
    One-Electron Energy =                -526.0285701611020386
    Two-Electron Energy =                 195.3802128961413302
    DFT Exchange-Correlation Energy =       0.0000000000000000
    Empirical Dispersion Energy =           0.0000000000000000
    PCM Polarization Energy =               0.0000000000000000
    EFP Energy =                            0.0000000000000000
    Total Energy =                       -207.9610628508811203
    Molecular point group: c1
  Basis Set: 6-31G*
  Basis Set:

  -Total Gradient:
     Atom            X                  Y                   Z
    ------   -----------------  -----------------  -----------------
       1        0.000034352784    -0.000042041971    -0.000000270965
       2        0.000200540092     0.000122769814    -0.000154322979
       3       -0.000164868771     0.000036300903     0.000139210568
       4       -0.000088871415    -0.000117194964     0.000098214746
       5        0.000033654145    -0.000114676664    -0.000039929678
       6       -0.000018124787    -0.000025946798    -0.000069567937
       7        0.000034368694     0.000028089987     0.000025731124
       8       -0.000051853928     0.000092077421    -0.000019771727
       9        0.000020803189     0.000020622271     0.000020706845

  **** Optimization is complete! (in 6 steps) ****
    Final optimized geometry and variables:
    Molecular point group: c1

    Geometry (in Angstrom), charge = 0, multiplicity = 1:

    H           -1.360234394695     1.370131762804     0.060585881215
    C           -0.735790944334     0.484867573532     0.190408863208
    N            0.359988227246     0.498632183221    -0.590127028588
    O           -1.026454046118    -0.394081340904     0.947098531499
    C            1.348795802011    -0.557423304043    -0.539574739150
    H            0.544318062881     1.311110949092    -1.131270181376
    H            2.012441462424    -0.455899073443    -1.387710232707
    H            0.859686034875    -1.519681232151    -0.588477080870
    H            1.933613081280    -0.515567103889     0.372620531409

  Mulliken Charges: (a.u.)
   Center  Symbol    Alpha    Beta     Spin     Total
       1     H     0.42694  0.42694  0.00000  0.14611
       2     C     2.74722  2.74722  0.00000  0.50556
       3     N     3.87468  3.87468  0.00000 -0.74937
       4     O     4.28312  4.28312  0.00000 -0.56625
       5     C     3.13728  3.13728  0.00000 -0.27456
       6     H     0.30806  0.30806  0.00000  0.38388
       7     H     0.41556  0.41556  0.00000  0.16887
       8     H     0.39799  0.39799  0.00000  0.20402
       9     H     0.40914  0.40914  0.00000  0.18172

   Total alpha = 16.00000, Total beta = 16.00000, Total charge =  0.00000
