                              Psi4 1.0.54 Driver

  ==> Input File <==

--------------------------------------------------------------------------
set {
	reference rhf
	basis cc-pvtz
}

set_num_threads( 4 )
memory 2 gb

molecule MOL {
0 1

H	 -2.644180	 -0.653737	 1.272255
C	 -2.092774	 -0.380414	 0.391915
O	 -0.808934	 -0.154049	 0.752536
F	 -2.163230	 -1.351640	 -0.507133
F	 -2.627232	 0.691260	 -0.169301
C	 0.085006	 0.250800	 -0.215074
C	 1.370439	 -0.548013	 -0.012993
Cl	 0.421658	 1.987697	 -0.091007
H	 -0.272219	 0.063284	 -1.212508
F	 1.780835	 -1.050859	 -1.149542
F	 1.129839	 -1.544127	 0.806265
F	 2.329021	 0.176996	 0.494681

	symmetry c1
}
set optking {
	frozen_dihedral = ("
		10 7 6 9
	")
}

ee,wfn = optimize('scf', return_wfn=True)
oeprop( wfn, 'DIPOLE', 'QUADRUPOLE', 'MULLIKEN_CHARGES')
f=open( 'psi4out.xyz', 'w' )
f.write( "12  " )
f.write( str(ee) + "\n" )
f.write( MOL.save_string_xyz() )
f.close()
--------------------------------------------------------------------------

    Molecular point group: c1
  Charge       = 0
  Multiplicity = 1
  Basis Set: CC-PVTZ
  Basis Set:
  @DF-RHF Final Energy: -1146.60970685236134
    Total Energy =                      -1146.6097068523611142
    Molecular point group: c1
  Basis Set: CC-PVTZ
  Basis Set:
  Basis Set: CC-PVTZ
  Basis Set:
  @DF-RHF Final Energy: -1146.60990711853583
    Total Energy =                      -1146.6099071185356024
  Basis Set: CC-PVTZ
  Basis Set:
  Basis Set: CC-PVTZ
  Basis Set:
  @DF-RHF Final Energy: -1146.61190851857145
    Total Energy =                      -1146.6119085185714539
  Basis Set: CC-PVTZ
  Basis Set:
  Basis Set: CC-PVTZ
  Basis Set:
  @DF-RHF Final Energy: -1146.61202032736196
    Total Energy =                      -1146.6120203273626430
  Basis Set: CC-PVTZ
  Basis Set:
  @DF-RHF Final Energy: -1146.61203731266733
    Total Energy =                      -1146.6120373126680079
  @DF-RHF Final Energy: -1146.61204793701836
    Total Energy =                      -1146.6120479370188150
  Basis Set: CC-PVTZ
  Basis Set:
  @DF-RHF Final Energy: -1146.61206121381201
    Total Energy =                      -1146.6120612138115575
  Basis Set: CC-PVTZ
  Basis Set:
  Basis Set: CC-PVTZ
  Basis Set:
  @DF-RHF Final Energy: -1146.61206631543155
    Total Energy =                      -1146.6120663154306385
  Basis Set: CC-PVTZ
  Basis Set:
  Basis Set: CC-PVTZ
  Basis Set:
  @DF-RHF Final Energy: -1146.61206759413972
    Total Energy =                      -1146.6120675941403988
  Basis Set: CC-PVTZ
  Basis Set:
  Charge       = 0
  Multiplicity = 1
  Basis Set: CC-PVTZ
  Basis Set:

    Orbital Energies (a.u.)
    -----------------------

    Doubly Occupied:

       1A   -104.854957     2A    -26.354607     3A    -26.353624
       4A    -26.351771     5A    -26.343825     6A    -26.343603
       7A    -20.640227     8A    -11.522432     9A    -11.484362
      10A    -11.402408    11A    -10.580554    12A     -8.047326
      13A     -8.045367    14A     -8.045271    15A     -1.768462
      16A     -1.725144    17A     -1.663203    18A     -1.659749
      19A     -1.645223    20A     -1.487775    21A     -1.175012
      22A     -1.048096    23A     -0.991998    24A     -0.924484
      25A     -0.862668    26A     -0.858855    27A     -0.851849
      28A     -0.831847    29A     -0.820314    30A     -0.795767
      31A     -0.734149    32A     -0.732863    33A     -0.710855
      34A     -0.708508    35A     -0.685249    36A     -0.679985
      37A     -0.665400    38A     -0.662760    39A     -0.650865
      40A     -0.634671    41A     -0.598867    42A     -0.579318
      43A     -0.523337    44A     -0.477060    45A     -0.468169

  @DF-RHF Final Energy: -1146.61206774879975

   => Energetics <=

    Nuclear Repulsion Energy =            735.9562958344475874
    One-Electron Energy =               -3055.1510510311204598
    Two-Electron Energy =                1172.5826874478732407
    DFT Exchange-Correlation Energy =       0.0000000000000000
    Empirical Dispersion Energy =           0.0000000000000000
    PCM Polarization Energy =               0.0000000000000000
    EFP Energy =                            0.0000000000000000
    Total Energy =                      -1146.6120677487995181
    Molecular point group: c1
  Basis Set: CC-PVTZ
  Basis Set:

  -Total Gradient:
     Atom            X                  Y                   Z
    ------   -----------------  -----------------  -----------------
       1        0.000006933806    -0.000005747021     0.000003388007
       2        0.000001872928     0.000008261268    -0.000045818046
       3        0.000016610379     0.000012676966     0.000017284249
       4       -0.000009212479     0.000012814534     0.000017945016
       5       -0.000002868640    -0.000012176616     0.000006796892
       6       -0.004178847716    -0.005603604916     0.001635623056
       7        0.003640085383     0.005091737400    -0.000710410523
       8        0.000009830906    -0.000007295093    -0.000002041598
       9        0.002926695641     0.003883597736    -0.001282425859
      10       -0.002407512400    -0.003359763160     0.000373873946
      11        0.000001003330    -0.000024140374    -0.000021354707
      12       -0.000004591122     0.000003639290     0.000007139567

  **** Optimization is complete! (in 10 steps) ****
    Final optimized geometry and variables:
    Molecular point group: c1

    Geometry (in Angstrom), charge = 0, multiplicity = 1:

    H           -2.767281762770    -0.580853976161     1.067996108119
    C           -2.122249606238    -0.351427689662     0.240391665675
    O           -0.899613173895    -0.046881540702     0.729797730129
    F           -2.052541730379    -1.388520015032    -0.582639264131
    F           -2.618943537255     0.653570885289    -0.462479212938
    C            0.086421207844     0.308462344161    -0.160392982666
    C            1.349708590792    -0.567927828411     0.065854791850
    CL           0.468017744743     2.035861578603     0.007888323512
    H           -0.203106310071     0.188284351250    -1.187654433276
    F            1.774977914614    -0.992621551394    -1.104408993975
    F            1.052854149077    -1.624568043520     0.777641569196
    F            2.330549990770     0.051044571579     0.657165570429

  Mulliken Charges: (a.u.)
   Center  Symbol    Alpha    Beta     Spin     Total
       1     H     0.45140  0.45140  0.00000  0.09719
       2     C     2.73806  2.73806  0.00000  0.52389
       3     O     4.14990  4.14990  0.00000 -0.29979
       4     F     4.61831  4.61831  0.00000 -0.23661
       5     F     4.61576  4.61576  0.00000 -0.23151
       6     C     2.95989  2.95989  0.00000  0.08022
       7     C     2.66228  2.66228  0.00000  0.67545
       8    CL     8.57128  8.57128  0.00000 -0.14257
       9     H     0.43171  0.43171  0.00000  0.13659
      10     F     4.60706  4.60706  0.00000 -0.21411
      11     F     4.59999  4.59999  0.00000 -0.19998
      12     F     4.59438  4.59438  0.00000 -0.18876

   Total alpha = 45.00000, Total beta = 45.00000, Total charge =  0.00000

*** Psi4 exiting successfully. Buy a developer a beer!
