  ==> Input File <==

--------------------------------------------------------------------------
set {
	reference rhf
	basis 6-31G*
}

set_num_threads( 4 )
memory 2 gb

molecule MOL {
0 1

O	 0.896010	 0.009202	 -0.810289
C	 0.028650	 0.075053	 -0.000277
C	 -1.233602	 -0.752807	 0.000328
O	 0.059546	 0.906502	 1.032989
C	 -2.501530	 0.091881	 0.000126
H	 -1.193807	 -1.406641	 -0.865785
H	 -1.193516	 -1.405779	 0.867015
H	 -2.545121	 0.729328	 -0.874513
H	 -3.377167	 -0.548497	 0.000561
H	 -2.544818	 0.730135	 0.874258
C	 1.195091	 1.744670	 1.149619
H	 2.094366	 1.154078	 1.249213
H	 1.035476	 2.335754	 2.037879
H	 1.284794	 2.385466	 0.284284

	symmetry c1
}
set optking {
	frozen_dihedral = ("
		4 2 3 6
	")
}

ee = optimize('scf')
oeprop('DIPOLE', 'QUADRUPOLE', 'MULLIKEN_CHARGES')
f=open( 'psi4out.xyz', 'w' )
f.write( "14  " )
f.write( str(ee) + "\n" )
f.write( MOL.save_string_xyz() )
f.close()
--------------------------------------------------------------------------

    Molecular point group: c1
  Charge       = 0
  Multiplicity = 1
  Basis Set: 6-31G*
  Basis Set:
  @DF-RHF Final Energy:  -305.87034490970836
    Total Energy =                       -305.8703449097084786
    Molecular point group: c1
  Basis Set: 6-31G*
  Basis Set:
  Basis Set: 6-31G*
  Basis Set:
  @DF-RHF Final Energy:  -305.87047927997884
    Total Energy =                       -305.8704792799788947
  Basis Set: 6-31G*
  Basis Set:
  Basis Set: 6-31G*
  Basis Set:
  @DF-RHF Final Energy:  -305.87001525701999
    Total Energy =                       -305.8700152570197588
  Basis Set: 6-31G*
  Basis Set:
  Basis Set: 6-31G*
  Basis Set:
  @DF-RHF Final Energy:  -305.87063158138039
    Total Energy =                       -305.8706315813806214
  Basis Set: 6-31G*
  Basis Set:
  Basis Set: 6-31G*
  Basis Set:
  @DF-RHF Final Energy:  -305.87063390618891
    Total Energy =                       -305.8706339061890276
  Basis Set: 6-31G*
  Basis Set:
  Charge       = 0
  Multiplicity = 1
  Basis Set: 6-31G*
  Basis Set:

    Orbital Energies (a.u.)
    -----------------------

    Doubly Occupied:

       1A    -20.605212     2A    -20.544834     3A    -11.372046
       4A    -11.281679     5A    -11.237947     6A    -11.225362
       7A     -1.469914     8A     -1.362493     9A     -1.067466
      10A     -0.975510    11A     -0.885704    12A     -0.774483
      13A     -0.696084    14A     -0.679597    15A     -0.673486
      16A     -0.619643    17A     -0.588546    18A     -0.568549
      19A     -0.544607    20A     -0.519326    21A     -0.513359
      22A     -0.502288    23A     -0.456251    24A     -0.434317

  @DF-RHF Final Energy:  -305.87063423531856

   => Energetics <=

    Nuclear Repulsion Energy =            248.3312472409867553
    One-Electron Energy =                -909.2063544700729381
    Two-Electron Energy =                 355.0044729937677062
    DFT Exchange-Correlation Energy =       0.0000000000000000
    Empirical Dispersion Energy =           0.0000000000000000
    PCM Polarization Energy =               0.0000000000000000
    EFP Energy =                            0.0000000000000000
    Total Energy =                       -305.8706342353185050
    Molecular point group: c1
  Basis Set: 6-31G*
  Basis Set:

  -Total Gradient:
     Atom            X                  Y                   Z
    ------   -----------------  -----------------  -----------------
       1       -0.000015982737     0.000007992143     0.000007266580
       2        0.000177081492    -0.000237723953     0.000123587612
       3        0.000110923108    -0.000164725618     0.000171079014
       4       -0.000134349238     0.000217585100    -0.000124968649
       5        0.000015642018    -0.000020276105    -0.000005559887
       6       -0.000145472151     0.000219536667    -0.000161142794
       7        0.000004017231    -0.000006298341    -0.000009018636
       8       -0.000002166394     0.000003340203     0.000003019313
       9       -0.000011306176    -0.000001967917     0.000000625637
      10        0.000002771009    -0.000001864368    -0.000003840469
      11       -0.000001054062    -0.000023703793     0.000000204401
      12        0.000003889947     0.000005832318     0.000001419513
      13       -0.000002991055     0.000000292396    -0.000000315811
      14       -0.000001002990     0.000001981268    -0.000002355822

  **** Optimization is complete! (in 6 steps) ****
    Final optimized geometry and variables:
    Molecular point group: c1

    Geometry (in Angstrom), charge = 0, multiplicity = 1:

    O            1.129685335996    -0.355339120680    -1.050636656911
    C            0.267746060275    -0.290233582423    -0.234446912491
    C           -0.989054042294    -1.126038259912    -0.236059487981
    O            0.311116049570     0.538649514311     0.801050533046
    C           -2.269811499935    -0.285748848131    -0.242875805237
    H           -0.941770304801    -1.766845114046    -1.106047520727
    H           -0.968299786877    -1.755138555744     0.648852198119
    H           -2.308285674906     0.360473962302    -1.113862597296
    H           -3.138274042955    -0.934371604521    -0.272546137527
    H           -2.337129535225     0.332838766786     0.642932381249
    C            1.449687991562     1.373928294164     0.908351417466
    H            2.347908012105     0.780691429894     1.001265977129
    H            1.298619125110     1.966136154464     1.797380933887
    H            1.534229338555     2.013485944052     0.041672668095

  Mulliken Charges: (a.u.)
   Center  Symbol    Alpha    Beta     Spin     Total
       1     O     4.28504  4.28504  0.00000 -0.57008
       2     C     2.61416  2.61416  0.00000  0.77168
       3     C     3.19816  3.19816  0.00000 -0.39632
       4     O     4.30240  4.30240  0.00000 -0.60480
       5     C     3.24865  3.24865  0.00000 -0.49730
       6     H     0.39774  0.39774  0.00000  0.20451
       7     H     0.40306  0.40306  0.00000  0.19388
       8     H     0.41345  0.41345  0.00000  0.17310
       9     H     0.41302  0.41302  0.00000  0.17396
      10     H     0.40607  0.40607  0.00000  0.18785
      11     C     3.09219  3.09219  0.00000 -0.18438
      12     H     0.40862  0.40862  0.00000  0.18277
      13     H     0.40875  0.40875  0.00000  0.18250
      14     H     0.40869  0.40869  0.00000  0.18263

   Total alpha = 24.00000, Total beta = 24.00000, Total charge = -0.00000
