  ==> Input File <==

--------------------------------------------------------------------------
set {
	reference rhf
	basis cc-pvtz
}

set_num_threads( 4 )
memory 2 gb

molecule MOL {
0 1

H	 -1.752232	 -2.214755	 -0.011938
C	 -1.343852	 -1.221619	 -0.018179
N	 -0.058800	 -1.097635	 -0.261688
C	 -2.148159	 -0.124236	 0.219734
C	 0.449026	 0.119242	 -0.273393
H	 -3.196988	 -0.237571	 0.417076
N	 -1.655094	 1.094230	 0.209506
C	 -0.370318	 1.215445	 -0.035100
C	 1.924033	 0.265863	 -0.538106
H	 0.033214	 2.210441	 -0.046812
C	 2.218467	 1.084385	 -1.796192
H	 2.374558	 0.750308	 0.319859
H	 2.372935	 -0.716549	 -0.625103
H	 3.287267	 1.196604	 -1.934058
H	 1.779640	 2.070619	 -1.720347
H	 1.814642	 0.601815	 -2.679140

	symmetry c1
}
set optking {
	frozen_dihedral = ("
		12 9 5 3
	")
}

ee = optimize('scf')
oeprop('DIPOLE', 'QUADRUPOLE', 'MULLIKEN_CHARGES')
f=open( 'psi4out.xyz', 'w' )
f.write( "16  " )
f.write( str(ee) + "\n" )
f.write( MOL.save_string_xyz() )
f.close()
--------------------------------------------------------------------------

    Molecular point group: c1
  Charge       = 0
  Multiplicity = 1
  Basis Set: CC-PVTZ
  Basis Set:
  @DF-RHF Final Energy:  -340.87055822690303
    Total Energy =                       -340.8705582269026877
    Molecular point group: c1
  Basis Set: CC-PVTZ
  Basis Set:
  Basis Set: CC-PVTZ
  Basis Set:
  @DF-RHF Final Energy:  -340.87091223332226
    Total Energy =                       -340.8709122333221444
  Basis Set: CC-PVTZ
  Basis Set:
  Basis Set: CC-PVTZ
  Basis Set:
  @DF-RHF Final Energy:  -340.87097694717977
    Total Energy =                       -340.8709769471799973
  Basis Set: CC-PVTZ
  Basis Set:
  Basis Set: CC-PVTZ
  Basis Set:
  @DF-RHF Final Energy:  -340.87099588721179
    Total Energy =                       -340.8709958872113930
  Basis Set: CC-PVTZ
  Basis Set:
  Basis Set: CC-PVTZ
  Basis Set:
  @DF-RHF Final Energy:  -340.87100196020532
    Total Energy =                       -340.8710019602049783
  Basis Set: CC-PVTZ
  Basis Set:
  Basis Set: CC-PVTZ
  Basis Set:
  @DF-RHF Final Energy:  -340.87100312082430
    Total Energy =                       -340.8710031208242981
  Basis Set: CC-PVTZ
  Basis Set:
  Charge       = 0
  Multiplicity = 1
  Basis Set: CC-PVTZ
  Basis Set:

    Orbital Energies (a.u.)
    -----------------------

    Doubly Occupied:

       1A    -15.580441     2A    -15.575688     3A    -11.279112
       4A    -11.270691     5A    -11.269390     6A    -11.266726
       7A    -11.231413     8A    -11.221472     9A     -1.315599
      10A     -1.223607    11A     -1.086659    12A     -1.016499
      13A     -0.905988    14A     -0.896756    15A     -0.831642
      16A     -0.717153    17A     -0.713972    18A     -0.657656
      19A     -0.615737    20A     -0.607268    21A     -0.583375
      22A     -0.565091    23A     -0.524577    24A     -0.511356
      25A     -0.505370    26A     -0.483754    27A     -0.434066
      28A     -0.397654    29A     -0.346385

  @DF-RHF Final Energy:  -340.87100336836596

   => Energetics <=

    Nuclear Repulsion Energy =            350.1727469341848860
    One-Electron Energy =               -1154.8173131635655864
    Two-Electron Energy =                 463.7735628610144545
    DFT Exchange-Correlation Energy =       0.0000000000000000
    Empirical Dispersion Energy =           0.0000000000000000
    PCM Polarization Energy =               0.0000000000000000
    EFP Energy =                            0.0000000000000000
    Total Energy =                       -340.8710033683661891
    Molecular point group: c1
  Basis Set: CC-PVTZ
  Basis Set:

  -Total Gradient:
     Atom            X                  Y                   Z
    ------   -----------------  -----------------  -----------------
       1        0.000008181081    -0.000000189363     0.000001296490
       2        0.000016263896     0.000010709074     0.000005452266
       3        0.000223490835    -0.000092597623     0.001131325690
       4        0.000009914886     0.000014777773    -0.000012270007
       5       -0.000264970668    -0.000190249341    -0.001496504406
       6        0.000000604792     0.000006241244     0.000005024118
       7        0.000003188915     0.000007356353    -0.000000570704
       8       -0.000016450345    -0.000003834960     0.000010374520
       9       -0.000183811175     0.001422730413    -0.000204281159
      10       -0.000008918703     0.000000732347    -0.000000921252
      11       -0.000009931703    -0.000009758953     0.000025618323
      12        0.000236200075    -0.001176601750     0.000542916947
      13       -0.000012370041     0.000000529248     0.000007937646
      14       -0.000004170454    -0.000000089299    -0.000002683427
      15       -0.000000658493     0.000009362640    -0.000006844856
      16        0.000003437100     0.000000882200    -0.000005870191

  **** Optimization is complete! (in 7 steps) ****
    Final optimized geometry and variables:
    Molecular point group: c1

    Geometry (in Angstrom), charge = 0, multiplicity = 1:

    H           -1.665876836270    -2.403396299397     0.306578004094
    C           -1.265906406543    -1.407208890012     0.307500690958
    N            0.024847051350    -1.274572281008     0.066894645362
    C           -2.072719075661    -0.321011676175     0.553700635681
    C            0.524850910276    -0.059754615163     0.063557874716
    H           -3.121040350002    -0.438828634951     0.749441762645
    N           -1.582355779564     0.904388860806     0.562380135098
    C           -0.303115617970     1.033053446311     0.321515371714
    C            1.999975373926     0.108011011395    -0.201973670861
    H            0.097880752644     2.029291554231     0.334704313841
    C            2.313562247865     0.896226085706    -1.474556208261
    H            2.462076740011     0.590731000420     0.653631763281
    H            2.426614121930    -0.882699214141    -0.270075983025
    H            3.384832317413     0.964108458823    -1.620373576396
    H            1.921551080080     1.905338716858    -1.430582008283
    H            1.886258023660     0.410357217682    -2.343712271487

  Mulliken Charges: (a.u.)
   Center  Symbol    Alpha    Beta     Spin     Total
       1     H     0.41374  0.41374  0.00000  0.17253
       2     C     3.04086  3.04086  0.00000 -0.08171
       3     N     3.59077  3.59077  0.00000 -0.18154
       4     C     3.04840  3.04840  0.00000 -0.09679
       5     C     2.94571  2.94571  0.00000  0.10857
       6     H     0.41346  0.41346  0.00000  0.17308
       7     N     3.58727  3.58727  0.00000 -0.17453
       8     C     3.07726  3.07726  0.00000 -0.15452
       9     C     3.08561  3.08561  0.00000 -0.17122
      10     H     0.41472  0.41472  0.00000  0.17057
      11     C     3.14524  3.14524  0.00000 -0.29047
      12     H     0.44620  0.44620  0.00000  0.10761
      13     H     0.44032  0.44032  0.00000  0.11936
      14     H     0.44723  0.44723  0.00000  0.10554
      15     H     0.45454  0.45454  0.00000  0.09092
      16     H     0.44870  0.44870  0.00000  0.10260

   Total alpha = 29.00000, Total beta = 29.00000, Total charge = -0.00000
