  ==> Input File <==

--------------------------------------------------------------------------
set {
	reference rhf
	basis 6-31G*
}

set_num_threads( 4 )
memory 2 gb

molecule MOL {
0 1

H	 2.542107	 0.693428	 0.132525
O	 2.064459	 -0.086912	 -0.111827
C	 0.745630	 0.005118	 0.354752
H	 0.739005	 0.037656	 1.444976
C	 -0.064159	 -1.194875	 -0.122754
C	 -0.046302	 1.193543	 -0.190431
H	 0.197384	 -1.376065	 -1.160690
H	 0.162855	 -2.097978	 0.431858
C	 -1.535782	 -0.752177	 0.006642
H	 0.154512	 1.271315	 -1.255561
H	 0.226209	 2.140461	 0.267302
C	 -1.509193	 0.801505	 0.065617
H	 -2.127797	 -1.112194	 -0.826847
H	 -1.986849	 -1.158408	 0.905561
H	 -2.183670	 1.254107	 -0.651985
H	 -1.821727	 1.144320	 1.047089

	symmetry c1
}
set optking {
	frozen_dihedral = ("
		1 2 3 6
	")
}

ee = optimize('scf')
oeprop('DIPOLE', 'QUADRUPOLE', 'MULLIKEN_CHARGES')
f=open( 'psi4out.xyz', 'w' )
f.write( "16  " )
f.write( str(ee) + "\n" )
f.write( MOL.save_string_xyz() )
f.close()
--------------------------------------------------------------------------

    Molecular point group: c1
  Charge       = 0
  Multiplicity = 1
  Basis Set: 6-31G*
  Basis Set:
  @DF-RHF Final Energy:  -270.01444818753964
    Total Energy =                       -270.0144481875396423
    Molecular point group: c1
  Basis Set: 6-31G*
  Basis Set:
  Basis Set: 6-31G*
  Basis Set:
  @DF-RHF Final Energy:  -270.01445058495875
    Total Energy =                       -270.0144505849585812
  Basis Set: 6-31G*
  Basis Set:
  Charge       = 0
  Multiplicity = 1
  Basis Set: 6-31G*
  Basis Set:

    Orbital Energies (a.u.)
    -----------------------

    Doubly Occupied:

       1A    -20.552105     2A    -11.268339     3A    -11.217458
       4A    -11.215319     5A    -11.212719     6A    -11.208318
       7A     -1.361106     8A     -1.113491     9A     -0.966162
      10A     -0.948029    11A     -0.789478    12A     -0.776346
      13A     -0.700831    14A     -0.657389    15A     -0.616821
      16A     -0.589068    17A     -0.568065    18A     -0.523638
      19A     -0.503789    20A     -0.482305    21A     -0.470757
      22A     -0.456976    23A     -0.447286    24A     -0.419969

  @DF-RHF Final Energy:  -270.01445101344507

   => Energetics <=

    Nuclear Repulsion Energy =            255.1890303023189119
    One-Electron Energy =                -872.2754366572371509
    Two-Electron Energy =                 347.0719553414734264
    DFT Exchange-Correlation Energy =       0.0000000000000000
    Empirical Dispersion Energy =           0.0000000000000000
    PCM Polarization Energy =               0.0000000000000000
    EFP Energy =                            0.0000000000000000
    Total Energy =                       -270.0144510134448410
    Molecular point group: c1
  Basis Set: 6-31G*
  Basis Set:

  -Total Gradient:
     Atom            X                  Y                   Z
    ------   -----------------  -----------------  -----------------
       1       -0.000189264863     0.000291722869    -0.000547103941
       2        0.000305745894    -0.000263239917     0.000817331608
       3       -0.000258394194    -0.000257073348    -0.000551670436
       4        0.000013564312     0.000005545733    -0.000007096400
       5        0.000000376635    -0.000001955594    -0.000046128859
       6        0.000105614955     0.000209487918     0.000319852295
       7        0.000001714008    -0.000000643720     0.000004095134
       8        0.000000138161     0.000005680950     0.000007137780
       9        0.000009117163     0.000003601845     0.000039403397
      10       -0.000004099144    -0.000003167002    -0.000025705039
      11       -0.000000894715    -0.000002637996     0.000008675216
      12        0.000017840226     0.000005932458    -0.000007490269
      13        0.000007675483     0.000005207038    -0.000012082290
      14       -0.000011320663     0.000002994547    -0.000009433547
      15       -0.000003936746     0.000000393227     0.000002877272
      16        0.000006123483    -0.000001849006     0.000007338078

  **** Optimization is complete! (in 3 steps) ****
    Final optimized geometry and variables:
    Molecular point group: c1

    Geometry (in Angstrom), charge = 0, multiplicity = 1:

    H            2.542389402170     0.692738110793     0.140436403775
    O            2.065981218531    -0.087272173871    -0.107719087540
    C            0.745320965612     0.004203126836     0.353668770122
    H            0.736224088130     0.037780999826     1.443944873452
    C           -0.064106162974    -1.195700795668    -0.123882016458
    C           -0.046095493178     1.193006665774    -0.190844759947
    H            0.195463731493    -1.375618573134    -1.162488636042
    H            0.163715949307    -2.099331570366     0.429551302967
    C           -1.535481268682    -0.752783453448     0.009223100133
    H            0.152953185408     1.271835982269    -1.256451827554
    H            0.226759267840     2.139564597538     0.267712426936
    C           -1.508984338559     0.800987899083     0.066319599178
    H           -2.129931644544    -1.113823631381    -0.822136262482
    H           -1.984030780688    -1.157859040435     0.909915752430
    H           -2.183648310530     1.252830419451    -0.651562825705
    H           -1.820842464936     1.145025992593     1.047509254506

  Mulliken Charges: (a.u.)
   Center  Symbol    Alpha    Beta     Spin     Total
       1     H     0.28201  0.28201  0.00000  0.43598
       2     O     4.37654  4.37654  0.00000 -0.75307
       3     C     2.90582  2.90582  0.00000  0.18835
       4     H     0.43096  0.43096  0.00000  0.13807
       5     C     3.16707  3.16707  0.00000 -0.33413
       6     C     3.17767  3.17767  0.00000 -0.35534
       7     H     0.41122  0.41122  0.00000  0.17755
       8     H     0.41245  0.41245  0.00000  0.17509
       9     C     3.16906  3.16906  0.00000 -0.33812
      10     H     0.41436  0.41436  0.00000  0.17128
      11     H     0.42097  0.42097  0.00000  0.15805
      12     C     3.16873  3.16873  0.00000 -0.33745
      13     H     0.41454  0.41454  0.00000  0.17091
      14     H     0.41682  0.41682  0.00000  0.16635
      15     H     0.41389  0.41389  0.00000  0.17223
      16     H     0.41788  0.41788  0.00000  0.16425

   Total alpha = 24.00000, Total beta = 24.00000, Total charge =  0.00000
