  ==> Input File <==

--------------------------------------------------------------------------
set {
	reference rhf
	basis 6-31G*
}

set_num_threads( 1 )
memory 2 gb

molecule MOL {
0 1

O	 -2.042549	 -1.228399	 -0.269030
C	 -1.653912	 -0.146171	 0.050137
C	 -0.332303	 0.024011	 0.778412
C	 -2.438579	 1.106236	 -0.272369
C	 0.321368	 1.368742	 0.423043
H	 -0.477777	 -0.043935	 1.852937
H	 0.318609	 -0.787678	 0.472804
C	 1.671886	 1.567503	 1.112700
H	 -0.344475	 2.185312	 0.696810
H	 0.447720	 1.418194	 -0.654330
C	 2.328353	 2.900036	 0.754074
H	 1.539661	 1.507613	 2.190826
H	 2.336608	 0.751390	 0.839440
H	 1.701732	 3.737859	 1.046394
H	 2.503015	 2.975245	 -0.315169
H	 3.284873	 3.012264	 1.254576
H	 -3.277823	 0.863061	 -0.908988
H	 -1.806773	 1.843019	 -0.759671
H	 -2.802853	 1.554979	 0.648059

	symmetry c1
}
set optking {
	frozen_dihedral = ("
		11 8 5 9,
		9 5 3 2
	")
}

ee = energy('scf')
oeprop('DIPOLE', 'QUADRUPOLE', 'MULLIKEN_CHARGES')
f=open( 'psi4out.xyz', 'w' )
f.write( "19  " )
f.write( str(ee) + "\n" )
f.write( MOL.save_string_xyz() )
f.close()
--------------------------------------------------------------------------

    Molecular point group: c1

    Geometry (in Angstrom), charge = 0, multiplicity = 1:

       Center              X                  Y                   Z               Mass
    ------------   -----------------  -----------------  -----------------  -----------------
           O         -1.738225859051    -2.041299832476    -0.631331583658    15.994914619560
           C         -1.349588859051    -0.959071832476    -0.312164583658    12.000000000000
           C         -0.027979859051    -0.788889832476     0.416110416342    12.000000000000
           C         -2.134255859051     0.293335167524    -0.634670583658    12.000000000000
           C          0.625691140949     0.555841167524     0.060741416342    12.000000000000
           H         -0.173453859051    -0.856835832476     1.490635416342     1.007825032070
           H          0.622932140949    -1.600578832476     0.110502416342     1.007825032070
           C          1.976209140949     0.754602167524     0.750398416342    12.000000000000
           H         -0.040151859051     1.372411167524     0.334508416342     1.007825032070
           H          0.752043140949     0.605293167524    -1.016631583658     1.007825032070
           C          2.632676140949     2.087135167524     0.391772416342    12.000000000000
           H          1.843984140949     0.694712167524     1.828524416342     1.007825032070
           H          2.640931140949    -0.061510832476     0.477138416342     1.007825032070
           H          2.006055140949     2.924958167524     0.684092416342     1.007825032070
           H          2.807338140949     2.162344167524    -0.677470583658     1.007825032070
           H          3.589196140949     2.199363167524     0.892274416342     1.007825032070
           H         -2.973499859051     0.050160167524    -1.271289583658     1.007825032070
           H         -1.502449859051     1.030118167524    -1.121972583658     1.007825032070
           H         -2.498529859051     0.742078167524     0.285757416342     1.007825032070

  Charge       = 0
  Multiplicity = 1
  Basis Set: 6-31G*
  Basis Set:

    Orbital Energies (a.u.)
    -----------------------

    Doubly Occupied:

       1A    -20.547073     2A    -11.324696     3A    -11.231306
       4A    -11.230554     5A    -11.226639     6A    -11.226441
       7A    -11.217154     8A     -1.392588     9A     -1.097174
      10A     -1.030579    11A     -0.980122    12A     -0.894319
      13A     -0.810672    14A     -0.732934    15A     -0.664475
      16A     -0.650138    17A     -0.628019    18A     -0.612801
      19A     -0.583668    20A     -0.575524    21A     -0.549366
      22A     -0.535930    23A     -0.520824    24A     -0.490753
      25A     -0.486518    26A     -0.478302    27A     -0.471730
      28A     -0.396717

  @DF-RHF Final Energy:  -309.05959456181512

   => Energetics <=

    Nuclear Repulsion Energy =            303.0824240757282837
    One-Electron Energy =               -1019.1100784114769340
    Two-Electron Energy =                 406.9680597739333052
    DFT Exchange-Correlation Energy =       0.0000000000000000
    Empirical Dispersion Energy =           0.0000000000000000
    PCM Polarization Energy =               0.0000000000000000
    EFP Energy =                            0.0000000000000000
    Total Energy =                       -309.0595945618152882

  Mulliken Charges: (a.u.)
   Center  Symbol    Alpha    Beta     Spin     Total
       1     O     4.26281  4.26281  0.00000 -0.52561
       2     C     2.73167  2.73167  0.00000  0.53665
       3     C     3.20266  3.20266  0.00000 -0.40533
       4     C     3.29583  3.29583  0.00000 -0.59166
       5     C     3.17123  3.17123  0.00000 -0.34245
       6     H     0.40411  0.40411  0.00000  0.19178
       7     H     0.39899  0.39899  0.00000  0.20203
       8     C     3.15058  3.15058  0.00000 -0.30117
       9     H     0.41786  0.41786  0.00000  0.16428
      10     H     0.41722  0.41722  0.00000  0.16556
      11     C     3.24000  3.24000  0.00000 -0.48001
      12     H     0.42129  0.42129  0.00000  0.15742
      13     H     0.41961  0.41961  0.00000  0.16078
      14     H     0.42133  0.42133  0.00000  0.15735
      15     H     0.42040  0.42040  0.00000  0.15920
      16     H     0.41682  0.41682  0.00000  0.16637
      17     H     0.39581  0.39581  0.00000  0.20837
      18     H     0.40451  0.40451  0.00000  0.19097
      19     H     0.40727  0.40727  0.00000  0.18547

   Total alpha = 28.00000, Total beta = 28.00000, Total charge = -0.00000
