  ==> Input File <==

--------------------------------------------------------------------------
set {
	reference rhf
	basis 6-31G*
}

set_num_threads( 4 )
memory 2 gb

molecule MOL {
0 1

O	 -0.749146	 -1.284378	 -1.155475
C	 -0.570064	 -0.205051	 -0.657796
C	 -1.682424	 0.826813	 -0.656771
N	 0.623947	 0.147590	 -0.102813
H	 -1.386875	 1.730392	 -1.178575
H	 -2.529946	 0.387926	 -1.160885
H	 -1.971962	 1.100235	 0.352183
C	 1.665360	 -0.855771	 0.000151
C	 0.824959	 1.333443	 0.700674
H	 2.465253	 -0.618490	 -0.692587
H	 1.257730	 -1.821716	 -0.242189
H	 2.081488	 -0.891645	 1.004627
H	 1.840780	 1.685259	 0.565130
H	 0.161634	 2.130594	 0.404897
H	 0.677185	 1.135772	 1.760816

	symmetry c1
}
set optking {
	frozen_dihedral = ("
		2 4 8 10
	")
}

ee = optimize('scf')
oeprop('DIPOLE', 'QUADRUPOLE', 'MULLIKEN_CHARGES')
f=open( 'psi4out.xyz', 'w' )
f.write( "15  " )
f.write( str(ee) + "\n" )
f.write( MOL.save_string_xyz() )
f.close()
--------------------------------------------------------------------------

    Molecular point group: c1
  Charge       = 0
  Multiplicity = 1
  Basis Set: 6-31G*
  Basis Set:
  @DF-RHF Final Energy:  -286.02864786237842
    Total Energy =                       -286.0286478623782500
    Molecular point group: c1
  Basis Set: 6-31G*
  Basis Set:
  Basis Set: 6-31G*
  Basis Set:
  @DF-RHF Final Energy:  -286.02913915026335
    Total Energy =                       -286.0291391502635747
  Basis Set: 6-31G*
  Basis Set:
  Basis Set: 6-31G*
  Basis Set:
  @DF-RHF Final Energy:  -286.02923429748125
    Total Energy =                       -286.0292342974811390
  Basis Set: 6-31G*
  Basis Set:
  Basis Set: 6-31G*
  Basis Set:
  @DF-RHF Final Energy:  -286.02939638759722
    Total Energy =                       -286.0293963875971031
  Basis Set: 6-31G*
  Basis Set:
  @DF-RHF Final Energy:  -286.02949062862064
    Total Energy =                       -286.0294906286206924
  @DF-RHF Final Energy:  -286.02952066769024
    Total Energy =                       -286.0295206676900079
  @DF-RHF Final Energy:  -286.02954498552862
    Total Energy =                       -286.0295449855286165
  @DF-RHF Final Energy:  -286.02959505949775
    Total Energy =                       -286.0295950594975238
  @DF-RHF Final Energy:  -286.02965586571219
    Total Energy =                       -286.0296558657119022
  @DF-RHF Final Energy:  -286.02971312938303
    Total Energy =                       -286.0297131293829693
  @DF-RHF Final Energy:  -286.02974443029979
    Total Energy =                       -286.0297444302999565
  @DF-RHF Final Energy:  -286.02976339208055
    Total Energy =                       -286.0297633920806106
  Basis Set: 6-31G*
  Basis Set:
  @DF-RHF Final Energy:  -286.02976939044959
    Total Energy =                       -286.0297693904495873
  Basis Set: 6-31G*
  Basis Set:
  Basis Set: 6-31G*
  Basis Set:
  @DF-RHF Final Energy:  -286.02976743641932
    Total Energy =                       -286.0297674364193767
  Basis Set: 6-31G*
  Basis Set:
  Basis Set: 6-31G*
  Basis Set:
  @DF-RHF Final Energy:  -286.02977086911551
    Total Energy =                       -286.0297708691153957
  Basis Set: 6-31G*
  Basis Set:
  Charge       = 0
  Multiplicity = 1
  Basis Set: 6-31G*
  Basis Set:

    Orbital Energies (a.u.)
    -----------------------

    Doubly Occupied:

       1A    -20.512889     2A    -15.584391     3A    -11.341869
       4A    -11.266607     5A    -11.247749     6A    -11.228226
       7A     -1.383247     8A     -1.243967     9A     -1.014207
      10A     -0.972924    11A     -0.919969    12A     -0.738269
      13A     -0.681184    14A     -0.659435    15A     -0.651324
      16A     -0.589664    17A     -0.575746    18A     -0.566889
      19A     -0.561280    20A     -0.547278    21A     -0.529790
      22A     -0.504014    23A     -0.409263    24A     -0.365636

  @DF-RHF Final Energy:  -286.02977109245029

   => Energetics <=

    Nuclear Repulsion Energy =            252.2798551020245554
    One-Electron Energy =                -888.4276159138757976
    Two-Electron Energy =                 350.1179897194013506
    DFT Exchange-Correlation Energy =       0.0000000000000000
    Empirical Dispersion Energy =           0.0000000000000000
    PCM Polarization Energy =               0.0000000000000000
    EFP Energy =                            0.0000000000000000
    Total Energy =                       -286.0297710924498347
    Molecular point group: c1
  Basis Set: 6-31G*
  Basis Set:

  -Total Gradient:
     Atom            X                  Y                   Z
    ------   -----------------  -----------------  -----------------
       1       -0.000002332933    -0.000001406649    -0.000003234839
       2       -0.000064430014    -0.000076354123     0.000146633894
       3       -0.000001210341     0.000000543869    -0.000004146260
       4        0.000124645175     0.000136824595    -0.000163032359
       5       -0.000000857229    -0.000000590021    -0.000000546654
       6       -0.000002168511     0.000002112278    -0.000000578825
       7        0.000000566015    -0.000000944954     0.000000832471
       8       -0.000124375091    -0.000139411202    -0.000150469966
       9       -0.000003821953    -0.000004164962     0.000008346800
      10        0.000072311516     0.000082623309     0.000171054128
      11       -0.000000384970     0.000001682810    -0.000000292617
      12        0.000001987584    -0.000001311379    -0.000001223646
      13       -0.000002413421    -0.000005436231    -0.000002966813
      14        0.000002085915     0.000000673935    -0.000000253020
      15        0.000000398261     0.000005158728    -0.000000122295

  **** Optimization is complete! (in 16 steps) ****
    Final optimized geometry and variables:
    Molecular point group: c1

    Geometry (in Angstrom), charge = 0, multiplicity = 1:

    O           -0.748817335452    -1.246902797725    -0.929141490280
    C           -0.594814061777    -0.198197641811    -0.361601715477
    C           -1.676093506634     0.864737784955    -0.424718292704
    N            0.524414272846     0.076865632418     0.363613422515
    H           -1.307391752823     1.786505973095    -0.861290614896
    H           -2.473714720893     0.475835115312    -1.039133837889
    H           -2.067156205092     1.091612166514     0.561197077620
    C            1.611159263434    -0.881604237288     0.380123494734
    C            0.829264393102     1.361419491181     0.952758041255
    H            2.470298272023    -0.500312353122    -0.166651718066
    H            1.284139806587    -1.800955947556    -0.072839283459
    H            1.918596137381    -1.073897972185     1.403265527008
    H            1.511071488965     1.936666413348     0.329688020729
    H           -0.060945682258     1.946875997728     1.116584400910
    H            1.304582560015     1.209467518266     1.915343408754

  Mulliken Charges: (a.u.)
   Center  Symbol    Alpha    Beta     Spin     Total
       1     O     4.30574  4.30574  0.00000 -0.61148
       2     C     2.62267  2.62267  0.00000  0.75466
       3     C     3.29898  3.29898  0.00000 -0.59797
       4     N     3.82451  3.82451  0.00000 -0.64902
       5     H     0.40797  0.40797  0.00000  0.18406
       6     H     0.39025  0.39025  0.00000  0.21950
       7     H     0.40674  0.40674  0.00000  0.18652
       8     C     3.14654  3.14654  0.00000 -0.29307
       9     C     3.14117  3.14117  0.00000 -0.28233
      10     H     0.42024  0.42024  0.00000  0.15951
      11     H     0.38230  0.38230  0.00000  0.23540
      12     H     0.41875  0.41875  0.00000  0.16251
      13     H     0.41593  0.41593  0.00000  0.16813
      14     H     0.40695  0.40695  0.00000  0.18611
      15     H     0.41126  0.41126  0.00000  0.17747

   Total alpha = 24.00000, Total beta = 24.00000, Total charge =  0.00000
