  ==> Input File <==

--------------------------------------------------------------------------
set {
	reference rhf
	basis 6-31G*
}

set_num_threads( 4 )
memory 2 gb

molecule MOL {
0 1

H	 -3.161837	 0.500524	 -0.000234
C	 -2.367097	 -0.232926	 -0.000000
O	 -1.158440	 0.455814	 -0.000122
H	 -2.468853	 -0.861886	 -0.882833
H	 -2.468942	 -0.861421	 0.883154
C	 -0.029776	 -0.365156	 0.000148
C	 1.212217	 0.508981	 0.000007
H	 -0.036772	 -1.013236	 -0.877259
H	 -0.036869	 -1.012778	 0.877897
C	 0.878712	 1.998202	 -0.076649
H	 1.781635	 0.298149	 0.899993
H	 1.836197	 0.220487	 -0.840302
H	 0.274170	 2.313135	 0.769382
H	 1.782653	 2.597982	 -0.075591
H	 0.328422	 2.234878	 -0.983053

	symmetry c1
}
set optking {
	frozen_dihedral = ("
		11 7 6 8
	")
}

ee = optimize('scf')
oeprop('DIPOLE', 'QUADRUPOLE', 'MULLIKEN_CHARGES')
f=open( 'psi4out.xyz', 'w' )
f.write( "15  " )
f.write( str(ee) + "\n" )
f.write( MOL.save_string_xyz() )
f.close()
--------------------------------------------------------------------------

    Molecular point group: c1
  Charge       = 0
  Multiplicity = 1
  Basis Set: 6-31G*
  Basis Set:
  @DF-RHF Final Energy:  -232.12954871638991
    Total Energy =                       -232.1295487163898770
    Molecular point group: c1
  Basis Set: 6-31G*
  Basis Set:
  Basis Set: 6-31G*
  Basis Set:
  @DF-RHF Final Energy:  -232.13002659142941
    Total Energy =                       -232.1300265914294414
  Basis Set: 6-31G*
  Basis Set:
  Basis Set: 6-31G*
  Basis Set:
  @DF-RHF Final Energy:  -232.13129775545457
    Total Energy =                       -232.1312977554544545
  Basis Set: 6-31G*
  Basis Set:
  Basis Set: 6-31G*
  Basis Set:
  @DF-RHF Final Energy:  -232.13134395880556
    Total Energy =                       -232.1313439588056440
  Basis Set: 6-31G*
  Basis Set:
  Basis Set: 6-31G*
  Basis Set:
  @DF-RHF Final Energy:  -232.13134595625399
    Total Energy =                       -232.1313459562540515
  Basis Set: 6-31G*
  Basis Set:
  Charge       = 0
  Multiplicity = 1
  Basis Set: 6-31G*
  Basis Set:

    Orbital Energies (a.u.)
    -----------------------

    Doubly Occupied:

       1A    -20.554075     2A    -11.267441     3A    -11.264658
       4A    -11.215696     5A    -11.200277     6A     -1.379076
       7A     -1.047416     8A     -0.948292     9A     -0.890104
      10A     -0.793043    11A     -0.672464    12A     -0.655983
      13A     -0.634361    14A     -0.601784    15A     -0.551287
      16A     -0.539965    17A     -0.505045    18A     -0.478578
      19A     -0.475459    20A     -0.460935    21A     -0.408045

  @DF-RHF Final Energy:  -232.13134597719178

   => Energetics <=

    Nuclear Repulsion Energy =            193.3191855328496729
    One-Electron Energy =                -697.8130966494391032
    Two-Electron Energy =                 272.3625651393974749
    DFT Exchange-Correlation Energy =       0.0000000000000000
    Empirical Dispersion Energy =           0.0000000000000000
    PCM Polarization Energy =               0.0000000000000000
    EFP Energy =                            0.0000000000000000
    Total Energy =                       -232.1313459771919270
    Molecular point group: c1
  Basis Set: 6-31G*
  Basis Set:

  -Total Gradient:
     Atom            X                  Y                   Z
    ------   -----------------  -----------------  -----------------
       1        0.000008748954     0.000005239556    -0.000000038209
       2        0.000011297732    -0.000004365415     0.000005988001
       3       -0.000022271412     0.000017411994     0.000011545767
       4        0.000004569116     0.000001380170    -0.000002030583
       5        0.000000406848     0.000000398933     0.000000509497
       6       -0.000702100291     0.001012569289    -0.001061960888
       7       -0.000705429125     0.000990259290     0.001011651840
       8        0.000705313654    -0.001010069571     0.000720009200
       9        0.000007655551     0.000002466171     0.000004726432
      10       -0.000001499522    -0.000005537539    -0.000033295940
      11        0.000707410092    -0.001014175446    -0.000684056029
      12       -0.000010068472    -0.000006945881    -0.000005843531
      13       -0.000017201034     0.000006098678     0.000004412468
      14       -0.000002648450     0.000003868126     0.000020098814
      15        0.000015816358     0.000001401645     0.000008283162

  **** Optimization is complete! (in 6 steps) ****
    Final optimized geometry and variables:
    Molecular point group: c1

    Geometry (in Angstrom), charge = 0, multiplicity = 1:

    H           -2.881107417536    -0.056212566627     0.031803721996
    C           -2.059600830748    -0.759512556814     0.019294517111
    O           -0.877899591342    -0.026795707579     0.024333823336
    H           -2.140772442996    -1.380153366396    -0.871608800822
    H           -2.133916676543    -1.403562781578     0.894025687026
    C            0.276194722019    -0.813230695182     0.007624065839
    C            1.545624030227     0.064336495314     0.021185157083
    H            0.269795695156    -1.454525523642    -0.872920438523
    H            0.272008246051    -1.476878182233     0.871562978397
    C            1.291594457677     1.569468615114    -0.070689756255
    H            2.116575953302    -0.148433742307     0.920013018535
    H            2.182501209182    -0.233550974738    -0.806840998371
    H            0.698391632304     1.923114595889     0.763176839996
    H            2.238272730336     2.101498522850    -0.065493141434
    H            0.763591197782     1.826918255765    -0.980986475968

  Mulliken Charges: (a.u.)
   Center  Symbol    Alpha    Beta     Spin     Total
       1     H     0.41211  0.41211  0.00000  0.17579
       2     C     3.07899  3.07899  0.00000 -0.15798
       3     O     4.30491  4.30491  0.00000 -0.60982
       4     H     0.43029  0.43029  0.00000  0.13942
       5     H     0.43032  0.43032  0.00000  0.13936
       6     C     2.98472  2.98472  0.00000  0.03056
       7     C     3.17471  3.17471  0.00000 -0.34943
       8     H     0.43087  0.43087  0.00000  0.13826
       9     H     0.43072  0.43072  0.00000  0.13855
      10     C     3.22920  3.22920  0.00000 -0.45839
      11     H     0.41896  0.41896  0.00000  0.16208
      12     H     0.41963  0.41963  0.00000  0.16075
      13     H     0.41351  0.41351  0.00000  0.17298
      14     H     0.42521  0.42521  0.00000  0.14958
      15     H     0.41585  0.41585  0.00000  0.16830

   Total alpha = 21.00000, Total beta = 21.00000, Total charge =  0.00000
