  ==> Input File <==

--------------------------------------------------------------------------
set {
	reference rhf
	basis cc-pvtz
}

set_num_threads( 4 )
memory 2 gb

molecule MOL {
0 1

H	 -3.144994	 -1.202467	 -0.018751
O	 -2.321472	 -0.864941	 -0.318626
C	 -2.021813	 0.336996	 0.342658
C	 -0.669613	 0.837286	 -0.127252
H	 -2.780861	 1.084746	 0.127159
H	 -2.006390	 0.184138	 1.420053
C	 0.490865	 -0.082543	 0.241244
H	 -0.708709	 0.967192	 -1.204587
H	 -0.507562	 1.822272	 0.303070
C	 0.259941	 -1.531963	 -0.176443
H	 0.656983	 -0.035366	 1.311401
H	 1.401025	 0.284637	 -0.228767
C	 1.422602	 -2.450496	 0.184530
H	 -0.647787	 -1.899625	 0.294255
H	 0.085942	 -1.576538	 -1.248556
H	 1.598731	 -2.454769	 1.254986
H	 1.227628	 -3.471665	 -0.122887
H	 2.339731	 -2.129372	 -0.298376

	symmetry c1
}
set optking {
	frozen_dihedral = ("
		10 7 4 8
	")
}

ee = optimize('scf')
oeprop('DIPOLE', 'QUADRUPOLE', 'MULLIKEN_CHARGES')
f=open( 'psi4out.xyz', 'w' )
f.write( "18  " )
f.write( str(ee) + "\n" )
f.write( MOL.save_string_xyz() )
f.close()
--------------------------------------------------------------------------

    Molecular point group: c1
  Charge       = 0
  Multiplicity = 1
  Basis Set: CC-PVTZ
  Basis Set:
  @DF-RHF Final Energy:  -271.27543148792921
    Total Energy =                       -271.2754314879291542
    Molecular point group: c1
  Basis Set: CC-PVTZ
  Basis Set:
  Basis Set: CC-PVTZ
  Basis Set:
  @DF-RHF Final Energy:  -271.28161860905436
    Total Energy =                       -271.2816186090544761
  Basis Set: CC-PVTZ
  Basis Set:
  Basis Set: CC-PVTZ
  Basis Set:
  @DF-RHF Final Energy:  -271.28273495787334
    Total Energy =                       -271.2827349578734584
  Basis Set: CC-PVTZ
  Basis Set:
  Basis Set: CC-PVTZ
  Basis Set:
  @DF-RHF Final Energy:  -271.28302026064495
    Total Energy =                       -271.2830202606446619
  Basis Set: CC-PVTZ
  Basis Set:
  Basis Set: CC-PVTZ
  Basis Set:
  @DF-RHF Final Energy:  -271.28306560363853
    Total Energy =                       -271.2830656036382493
  Basis Set: CC-PVTZ
  Basis Set:
  Basis Set: CC-PVTZ
  Basis Set:
  @DF-RHF Final Energy:  -271.28307531543578
    Total Energy =                       -271.2830753154357808
  Basis Set: CC-PVTZ
  Basis Set:
  Basis Set: CC-PVTZ
  Basis Set:
  @DF-RHF Final Energy:  -271.28307735052283
    Total Energy =                       -271.2830773505228308
  Basis Set: CC-PVTZ
  Basis Set:
  Charge       = 0
  Multiplicity = 1
  Basis Set: CC-PVTZ
  Basis Set:

    Orbital Energies (a.u.)
    -----------------------

    Doubly Occupied:

       1A    -20.546520     2A    -11.267180     3A    -11.211837
       4A    -11.208494     5A    -11.201459     6A    -11.199371
       7A     -1.364629     8A     -1.073590     9A     -1.007575
      10A     -0.913984    11A     -0.828586    12A     -0.772385
      13A     -0.705356    14A     -0.651429    15A     -0.618570
      16A     -0.577476    17A     -0.572551    18A     -0.555318
      19A     -0.531209    20A     -0.506350    21A     -0.486712
      22A     -0.464686    23A     -0.452791    24A     -0.448817
      25A     -0.428364

  @DF-RHF Final Energy:  -271.28307761083556

   => Energetics <=

    Nuclear Repulsion Energy =            254.7051112142186184
    One-Electron Energy =                -872.7858964347708479
    Two-Electron Energy =                 346.7977076097166673
    DFT Exchange-Correlation Energy =       0.0000000000000000
    Empirical Dispersion Energy =           0.0000000000000000
    PCM Polarization Energy =               0.0000000000000000
    EFP Energy =                            0.0000000000000000
    Total Energy =                       -271.2830776108355622
    Molecular point group: c1
  Basis Set: CC-PVTZ
  Basis Set:

  -Total Gradient:
     Atom            X                  Y                   Z
    ------   -----------------  -----------------  -----------------
       1       -0.000002206860     0.000000660414    -0.000002659623
       2       -0.000005910188     0.000012594467     0.000007977375
       3       -0.000003411897    -0.000005747036    -0.000014592222
       4       -0.002454773724    -0.002855782364     0.000552896137
       5       -0.000004046553    -0.000003504407    -0.000003200406
       6        0.000007077008     0.000004850716    -0.000002471235
       7        0.001695778824     0.001082278829    -0.002545256234
       8        0.001644268538     0.002157772355     0.000209664396
       9       -0.000005754330    -0.000000444038    -0.000000557411
      10       -0.000880475661    -0.000372422309     0.001800310176
      11        0.000003281979    -0.000005687380    -0.000003777717
      12        0.000004249249     0.000001734831     0.000001598587
      13       -0.000013212611     0.000001072925    -0.000016343890
      14       -0.000000639110    -0.000008217482     0.000004179400
      15        0.000009570350    -0.000000049777     0.000009362954
      16       -0.000001765619     0.000002281246     0.000000428749
      17        0.000003772284    -0.000011334837    -0.000001397691
      18        0.000004198321    -0.000000056150     0.000003838655

  **** Optimization is complete! (in 8 steps) ****
    Final optimized geometry and variables:
    Molecular point group: c1

    Geometry (in Angstrom), charge = 0, multiplicity = 1:

    H           -2.896839281955    -0.264611566488    -0.143145229555
    O           -2.040969474425    -0.025457668215    -0.447461740476
    C           -1.523016176236     1.013218581059     0.343197818772
    C           -0.141774683007     1.405243962034    -0.151521343180
    H           -2.176600789891     1.879734393480     0.286943148719
    H           -1.471930511513     0.710122394804     1.387616887700
    C            1.018161596632     0.480204894880     0.229335831473
    H           -0.180692456342     1.538030169349    -1.228243310323
    H            0.076655127393     2.387691228156     0.258891013871
    C            0.871832104999    -0.992698695307    -0.148545696184
    H            1.175022797816     0.546347066869     1.304394418409
    H            1.921590227278     0.875122494152    -0.227399636141
    C            2.121221693985    -1.800674626381     0.188288921958
    H            0.016635666213    -1.419978012554     0.359019894196
    H            0.659853516531    -1.076381364949    -1.209886839640
    H            2.343602888250    -1.756414838066     1.249909681670
    H            1.996729803926    -2.844095112727    -0.078476972594
    H            2.989164692653    -1.425254187280    -0.344217714536

  Mulliken Charges: (a.u.)
   Center  Symbol    Alpha    Beta     Spin     Total
       1     H     0.39606  0.39606  0.00000  0.20788
       2     O     4.19796  4.19796  0.00000 -0.39592
       3     C     2.98178  2.98178  0.00000  0.03645
       4     C     3.09644  3.09644  0.00000 -0.19288
       5     H     0.45953  0.45953  0.00000  0.08094
       6     H     0.47019  0.47019  0.00000  0.05962
       7     C     3.09713  3.09713  0.00000 -0.19425
       8     H     0.45017  0.45017  0.00000  0.09966
       9     H     0.44939  0.44939  0.00000  0.10122
      10     C     3.07659  3.07659  0.00000 -0.15318
      11     H     0.45665  0.45665  0.00000  0.08669
      12     H     0.45092  0.45092  0.00000  0.09815
      13     C     3.15099  3.15099  0.00000 -0.30198
      14     H     0.45137  0.45137  0.00000  0.09725
      15     H     0.45157  0.45157  0.00000  0.09686
      16     H     0.45771  0.45771  0.00000  0.08458
      17     H     0.44898  0.44898  0.00000  0.10204
      18     H     0.45656  0.45656  0.00000  0.08687

   Total alpha = 25.00000, Total beta = 25.00000, Total charge = -0.00000
