  ==> Input File <==

--------------------------------------------------------------------------
set {
	reference rhf
	basis cc-pvtz
}

set_num_threads( 4 )
memory 2 gb

molecule MOL {
0 1

H	 -2.531549	 -0.609576	 -0.477449
N	 -1.798277	 0.067096	 -0.477542
C	 -0.561396	 -0.500007	 0.035200
H	 -2.102140	 0.831001	 0.089426
C	 0.575129	 0.507849	 -0.048832
H	 -0.316071	 -1.365335	 -0.571629
H	 -0.649915	 -0.854086	 1.063406
C	 1.951750	 -0.141983	 0.035101
H	 0.478254	 1.061643	 -0.975981
H	 0.467676	 1.231891	 0.755499
H	 2.101550	 -0.848142	 -0.774949
H	 2.738260	 0.600794	 -0.026526
H	 2.078939	 -0.679792	 0.968824

	symmetry c1
}
set optking {
	frozen_dihedral = ("
		6 3 5 9
	")
}

ee = optimize('scf')
oeprop('DIPOLE', 'QUADRUPOLE', 'MULLIKEN_CHARGES')
f=open( 'psi4out.xyz', 'w' )
f.write( "13  " )
f.write( str(ee) + "\n" )
f.write( MOL.save_string_xyz() )
f.close()
--------------------------------------------------------------------------

    Molecular point group: c1
  Charge       = 0
  Multiplicity = 1
  Basis Set: CC-PVTZ
  Basis Set:
  @DF-RHF Final Energy:  -173.35132980947796
    Total Energy =                       -173.3513298094781021
    Molecular point group: c1
  Basis Set: CC-PVTZ
  Basis Set:
  Basis Set: CC-PVTZ
  Basis Set:
  @DF-RHF Final Energy:  -173.35148506060045
    Total Energy =                       -173.3514850606004245
  Basis Set: CC-PVTZ
  Basis Set:
  Basis Set: CC-PVTZ
  Basis Set:
  @DF-RHF Final Energy:  -173.35151341761772
    Total Energy =                       -173.3515134176178947
  Basis Set: CC-PVTZ
  Basis Set:
  Charge       = 0
  Multiplicity = 1
  Basis Set: CC-PVTZ
  Basis Set:

    Orbital Energies (a.u.)
    -----------------------

    Doubly Occupied:

       1A    -15.527349     2A    -11.238278     3A    -11.210365
       4A    -11.207380     5A     -1.178770     6A     -1.036307
       7A     -0.899488     8A     -0.801058     9A     -0.657856
      10A     -0.637491    11A     -0.601806    12A     -0.565828
      13A     -0.533048    14A     -0.493213    15A     -0.475988
      16A     -0.468553    17A     -0.384266

  @DF-RHF Final Energy:  -173.35151426596167

   => Energetics <=

    Nuclear Repulsion Energy =            131.9328363257335468
    One-Electron Energy =                -494.7346149119055099
    Two-Electron Energy =                 189.4502643202104650
    DFT Exchange-Correlation Energy =       0.0000000000000000
    Empirical Dispersion Energy =           0.0000000000000000
    PCM Polarization Energy =               0.0000000000000000
    EFP Energy =                            0.0000000000000000
    Total Energy =                       -173.3515142659614980
    Molecular point group: c1
  Basis Set: CC-PVTZ
  Basis Set:

  -Total Gradient:
     Atom            X                  Y                   Z
    ------   -----------------  -----------------  -----------------
       1       -0.000026152657    -0.000024866321    -0.000007981110
       2       -0.000037211743     0.000039786136    -0.000020744364
       3       -0.002284824866     0.002394115198    -0.003077772138
       4       -0.000017601658     0.000005922478     0.000020418206
       5        0.002808917164    -0.003299317863    -0.001318077662
       6        0.001529996245    -0.001512056681     0.002774658866
       7        0.000004777929     0.000004900580     0.000006875731
       8        0.000022502688    -0.000001829197    -0.000012610968
       9       -0.001976538390     0.002371602452     0.001623473702
      10       -0.000002923346     0.000005825856     0.000000004862
      11       -0.000012712077     0.000004723239     0.000012386647
      12        0.000007192049     0.000003348185    -0.000000488835
      13       -0.000015421337     0.000007845937    -0.000000142938

  **** Optimization is complete! (in 4 steps) ****
    Final optimized geometry and variables:
    Molecular point group: c1

    Geometry (in Angstrom), charge = 0, multiplicity = 1:

    H           -2.561243177156    -0.577571239088    -0.305296601048
    N           -1.820855320402     0.089956450902    -0.352440215426
    C           -0.572449885163    -0.480997607159     0.124615504145
    H           -2.092894348517     0.868761783000     0.210979290124
    C            0.568336601161     0.525723556634     0.038312905231
    H           -0.333545843339    -1.350579932830    -0.478760957009
    H           -0.638790089633    -0.844848752005     1.151710109192
    C            1.944999581632    -0.115511706851     0.157336691763
    H            0.473085384857     1.077623807300    -0.890193507713
    H            0.446624423062     1.261548013177     0.830598663899
    H            2.127021443813    -0.804508897488    -0.660300062034
    H            2.728046617993     0.633244928586     0.139977943287
    H            2.041496558139    -0.670722262052     1.084871230453

  Mulliken Charges: (a.u.)
   Center  Symbol    Alpha    Beta     Spin     Total
       1     H     0.43015  0.43015  0.00000  0.13969
       2     N     3.68801  3.68801  0.00000 -0.37602
       3     C     3.02123  3.02123  0.00000 -0.04247
       4     H     0.43087  0.43087  0.00000  0.13826
       5     C     3.08191  3.08191  0.00000 -0.16381
       6     H     0.45988  0.45988  0.00000  0.08024
       7     H     0.46937  0.46937  0.00000  0.06126
       8     C     3.15100  3.15100  0.00000 -0.30200
       9     H     0.44896  0.44896  0.00000  0.10208
      10     H     0.45948  0.45948  0.00000  0.08104
      11     H     0.45416  0.45416  0.00000  0.09168
      12     H     0.44825  0.44825  0.00000  0.10349
      13     H     0.45672  0.45672  0.00000  0.08655

   Total alpha = 17.00000, Total beta = 17.00000, Total charge = -0.00000
