  ==> Input File <==

--------------------------------------------------------------------------
set {
	reference rhf
	basis 6-31G*
}

set_num_threads( 4 )
memory 2 gb

molecule MOL {
0 1

O	 -0.164370	 -2.042397	 -2.312722
C	 -0.536708	 -0.926779	 -2.109755
C	 -0.889235	 -0.467034	 -0.705952
C	 -0.645261	 0.089188	 -3.224835
C	 0.379448	 -0.143569	 0.099626
H	 -1.429515	 -1.273272	 -0.221821
H	 -1.539025	 0.402798	 -0.740472
C	 1.631333	 -0.777471	 -0.511575
H	 0.482768	 0.934507	 0.149241
H	 0.263088	 -0.495696	 1.123449
C	 2.915987	 -0.544314	 0.291766
H	 1.766672	 -0.399098	 -1.523130
H	 1.471257	 -1.849544	 -0.605828
C	 3.373361	 0.914346	 0.347591
H	 3.708709	 -1.142521	 -0.150311
H	 2.780642	 -0.921148	 1.303579
H	 3.506512	 1.320010	 -0.651625
H	 4.322697	 0.999599	 0.867103
H	 2.660624	 1.545032	 0.868198
H	 -1.688117	 0.355164	 -3.376404
H	 -0.242857	 -0.321484	 -4.140370
H	 -0.116529	 1.002024	 -2.966036

	symmetry c1
}
set optking {
	frozen_dihedral = ("
		6 3 5 8
	")
}

ee = optimize('scf')
oeprop('DIPOLE', 'QUADRUPOLE', 'MULLIKEN_CHARGES')
f=open( 'psi4out.xyz', 'w' )
f.write( "22  " )
f.write( str(ee) + "\n" )
f.write( MOL.save_string_xyz() )
f.close()
--------------------------------------------------------------------------

    Molecular point group: c1
  Charge       = 0
  Multiplicity = 1
  Basis Set: 6-31G*
  Basis Set:
  @DF-RHF Final Energy:  -348.08649781460605
    Total Energy =                       -348.0864978146060480
    Molecular point group: c1
  Basis Set: 6-31G*
  Basis Set:
  Basis Set: 6-31G*
  Basis Set:
  @DF-RHF Final Energy:  -348.08980359352518
    Total Energy =                       -348.0898035935252892
  Basis Set: 6-31G*
  Basis Set:
  Basis Set: 6-31G*
  Basis Set:
  @DF-RHF Final Energy:  -348.09025011865810
    Total Energy =                       -348.0902501186583322
  Basis Set: 6-31G*
  Basis Set:
  Basis Set: 6-31G*
  Basis Set:
  @DF-RHF Final Energy:  -348.09118621678806
    Total Energy =                       -348.0911862167878326
  Basis Set: 6-31G*
  Basis Set:
  @DF-RHF Final Energy:  -348.09144207174342
    Total Energy =                       -348.0914420717431881
  @DF-RHF Final Energy:  -348.09151064181049
    Total Energy =                       -348.0915106418104870
  @DF-RHF Final Energy:  -348.09163846677222
    Total Energy =                       -348.0916384667723378
  @DF-RHF Final Energy:  -348.09161735800996
    Total Energy =                       -348.0916173580098985
  Basis Set: 6-31G*
  Basis Set:
  @DF-RHF Final Energy:  -348.09170259854687
    Total Energy =                       -348.0917025985467603
  Basis Set: 6-31G*
  Basis Set:
  Basis Set: 6-31G*
  Basis Set:
  @DF-RHF Final Energy:  -348.09170843837188
    Total Energy =                       -348.0917084383718247
  Basis Set: 6-31G*
  Basis Set:
  Basis Set: 6-31G*
  Basis Set:
  @DF-RHF Final Energy:  -348.09171030664618
    Total Energy =                       -348.0917103066462346
  Basis Set: 6-31G*
  Basis Set:
  Charge       = 0
  Multiplicity = 1
  Basis Set: 6-31G*
  Basis Set:

    Orbital Energies (a.u.)
    -----------------------

    Doubly Occupied:

       1A    -20.547686     2A    -11.324668     3A    -11.231773
       4A    -11.229372     5A    -11.227825     6A    -11.220336
       7A    -11.219738     8A    -11.213033     9A     -1.393208
      10A     -1.093853    11A     -1.042873    12A     -0.996755
      13A     -0.939563    14A     -0.861484    15A     -0.791755
      16A     -0.724828    17A     -0.656694    18A     -0.642667
      19A     -0.627183    20A     -0.622420    21A     -0.598349
      22A     -0.580279    23A     -0.566779    24A     -0.543450
      25A     -0.535690    26A     -0.522388    27A     -0.498454
      28A     -0.484635    29A     -0.470377    30A     -0.462287
      31A     -0.453695    32A     -0.397481

  @DF-RHF Final Energy:  -348.09171039488007

   => Energetics <=

    Nuclear Repulsion Energy =            382.4350998524473084
    One-Electron Energy =               -1229.6104677604719200
    Two-Electron Energy =                 499.0836575131443169
    DFT Exchange-Correlation Energy =       0.0000000000000000
    Empirical Dispersion Energy =           0.0000000000000000
    PCM Polarization Energy =               0.0000000000000000
    EFP Energy =                            0.0000000000000000
    Total Energy =                       -348.0917103948802378
    Molecular point group: c1
  Basis Set: 6-31G*
  Basis Set:

  -Total Gradient:
     Atom            X                  Y                   Z
    ------   -----------------  -----------------  -----------------
       1        0.000003549429     0.000005562255     0.000031260869
       2       -0.000005405649    -0.000007872473    -0.000018472454
       3        0.003763956643    -0.003614978648    -0.004886884055
       4        0.000020068849     0.000011463391    -0.000004951840
       5       -0.001363206328    -0.003792020614     0.004408304330
       6       -0.002880261742     0.004056581732     0.003055203763
       7       -0.000006474997    -0.000004113055    -0.000007896496
       8        0.000464588221     0.003349538104    -0.002591463947
       9       -0.000014630547    -0.000007678602     0.000012136180
      10        0.000011584385    -0.000012444585    -0.000007296935
      11        0.000021048383     0.000010043799    -0.000005051750
      12       -0.000004130771    -0.000002569413    -0.000011391009
      13       -0.000002460875     0.000005805730     0.000007025876
      14       -0.000008386566    -0.000014031381     0.000007489500
      15        0.000013523339     0.000006126939     0.000009399016
      16       -0.000008281424     0.000008244473    -0.000006364947
      17       -0.000016693063    -0.000014437879     0.000001462184
      18        0.000008009296    -0.000001765521    -0.000007777017
      19        0.000012165871     0.000003687771     0.000012947071
      20       -0.000004450655     0.000001844933    -0.000000321540
      21       -0.000004594375     0.000002156858     0.000004064797
      22        0.000000482577     0.000010856188    -0.000001421595

  **** Optimization is complete! (in 12 steps) ****
    Final optimized geometry and variables:
    Molecular point group: c1

    Geometry (in Angstrom), charge = 0, multiplicity = 1:

    O           -1.386454638993    -1.646522534348    -1.391504970075
    C           -1.421846429840    -0.490128538215    -1.099951375781
    C           -1.598128250091    -0.037391738295     0.337105548858
    C           -1.317399772399     0.592160169377    -2.153987139856
    C           -0.282793655552     0.345857564245     1.072814851512
    H           -2.117218064297    -0.815711412695     0.882341509978
    H           -2.258196341901     0.826493665574     0.345976965073
    C            0.998652995526    -0.276446974119     0.503993886748
    H           -0.182593968935     1.426232905168     1.061851363760
    H           -0.387755572431     0.063565321637     2.115506617745
    C            2.245213315677    -0.012772310093     1.356680939089
    H            1.176427172089     0.096539176506    -0.502476653590
    H            0.862640425069    -1.349728405622     0.408261473221
    C            2.665151477354     1.456130338322     1.438662944790
    H            3.068584451966    -0.588050222887     0.941579188013
    H            2.081725833788    -0.399053723169     2.360550433868
    H            2.815365215405     1.875195906217     0.447130363208
    H            3.598323888290     1.559081971536     1.983547742998
    H            1.924721332941     2.064870250148     1.947190615114
    H           -2.300263048883     1.028813377394    -2.312931848792
    H           -0.966661146541     0.168031925256    -3.084729064186
    H           -0.657171277226     1.393293829668    -1.837846857421

  Mulliken Charges: (a.u.)
   Center  Symbol    Alpha    Beta     Spin     Total
       1     O     4.26206  4.26206  0.00000 -0.52413
       2     C     2.73566  2.73566  0.00000  0.52867
       3     C     3.20420  3.20420  0.00000 -0.40840
       4     C     3.28894  3.28894  0.00000 -0.57789
       5     C     3.15971  3.15971  0.00000 -0.31941
       6     H     0.39961  0.39961  0.00000  0.20079
       7     H     0.41489  0.41489  0.00000  0.17023
       8     C     3.16528  3.16528  0.00000 -0.33056
       9     H     0.41748  0.41748  0.00000  0.16505
      10     H     0.41289  0.41289  0.00000  0.17422
      11     C     3.15318  3.15318  0.00000 -0.30636
      12     H     0.42321  0.42321  0.00000  0.15359
      13     H     0.40633  0.40633  0.00000  0.18734
      14     C     3.24221  3.24221  0.00000 -0.48442
      15     H     0.41783  0.41783  0.00000  0.16434
      16     H     0.42189  0.42189  0.00000  0.15622
      17     H     0.42247  0.42247  0.00000  0.15506
      18     H     0.41750  0.41750  0.00000  0.16499
      19     H     0.42079  0.42079  0.00000  0.15842
      20     H     0.40553  0.40553  0.00000  0.18894
      21     H     0.39720  0.39720  0.00000  0.20560
      22     H     0.41115  0.41115  0.00000  0.17771

   Total alpha = 32.00000, Total beta = 32.00000, Total charge = -0.00000
