  ==> Input File <==

--------------------------------------------------------------------------
set {
	reference rhf
	basis 6-31G*
}

set_num_threads( 1 )
memory 2 gb

molecule MOL {
0 1

O	 -2.042549	 -1.228399	 -0.269030
C	 -1.653912	 -0.146171	 0.050137
C	 -0.332303	 0.024011	 0.778412
C	 -2.438579	 1.106236	 -0.272369
C	 0.335830	 -1.337102	 1.029095
H	 0.336099	 0.665020	 0.210320
H	 -0.539278	 0.506678	 1.727157
C	 1.657404	 -1.213349	 1.788804
H	 0.513675	 -1.840068	 0.080159
H	 -0.352897	 -1.962948	 1.588659
C	 2.319570	 -2.566090	 2.047329
H	 2.339059	 -0.577966	 1.227503
H	 1.479505	 -0.710432	 2.736430
H	 2.541258	 -3.079295	 1.115917
H	 1.674026	 -3.212077	 2.635051
H	 3.252254	 -2.447938	 2.589700
H	 -3.277823	 0.863061	 -0.908988
H	 -1.806773	 1.843019	 -0.759671
H	 -2.802853	 1.554979	 0.648059

	symmetry c1
}
set optking {
	frozen_dihedral = ("
		11 8 5 9,
		9 5 3 2
	")
}

ee = energy('scf')
oeprop('DIPOLE', 'QUADRUPOLE', 'MULLIKEN_CHARGES')
f=open( 'psi4out.xyz', 'w' )
f.write( "19  " )
f.write( str(ee) + "\n" )
f.write( MOL.save_string_xyz() )
f.close()
--------------------------------------------------------------------------

    Molecular point group: c1

    Geometry (in Angstrom), charge = 0, multiplicity = 1:

       Center              X                  Y                   Z               Mass
    ------------   -----------------  -----------------  -----------------  -----------------
           O         -1.736503193779    -0.452074507783    -1.005825086407    15.994914619560
           C         -1.347866193779     0.630153492217    -0.686658086407    12.000000000000
           C         -0.026257193779     0.800335492217     0.041616913593    12.000000000000
           C         -2.132533193779     1.882560492217    -1.009164086407    12.000000000000
           C          0.641875806221    -0.560777507783     0.292299913593    12.000000000000
           H          0.642144806221     1.441344492217    -0.526475086407     1.007825032070
           H         -0.233232193779     1.283002492217     0.990361913593     1.007825032070
           C          1.963449806221    -0.437024507783     1.052008913593    12.000000000000
           H          0.819720806221    -1.063743507783    -0.656636086407     1.007825032070
           H         -0.046851193779    -1.186623507783     0.851863913593     1.007825032070
           C          2.625615806221    -1.789765507783     1.310533913593    12.000000000000
           H          2.645104806221     0.198358492217     0.490707913593     1.007825032070
           H          1.785550806221     0.065892492217     1.999634913593     1.007825032070
           H          2.847303806221    -2.302970507783     0.379121913593     1.007825032070
           H          1.980071806221    -2.435752507783     1.898255913593     1.007825032070
           H          3.558299806221    -1.671613507783     1.852904913593     1.007825032070
           H         -2.971777193779     1.639385492217    -1.645783086407     1.007825032070
           H         -1.500727193779     2.619343492217    -1.496466086407     1.007825032070
           H         -2.496807193779     2.331303492217    -0.088736086407     1.007825032070

  Charge       = 0
  Multiplicity = 1
  Basis Set: 6-31G*
  Basis Set:

    Orbital Energies (a.u.)
    -----------------------

    Doubly Occupied:

       1A    -20.550372     2A    -11.326327     3A    -11.231418
       4A    -11.229241     5A    -11.217210     6A    -11.215314
       7A    -11.208796     8A     -1.396308     9A     -1.083057
      10A     -1.028519    11A     -0.983764    12A     -0.884464
      13A     -0.798233    14A     -0.730888    15A     -0.657271
      16A     -0.652047    17A     -0.625367    18A     -0.610990
      19A     -0.578485    20A     -0.571471    21A     -0.554699
      22A     -0.527693    23A     -0.511074    24A     -0.487839
      25A     -0.472704    26A     -0.468955    27A     -0.467233
      28A     -0.401428

  @DF-RHF Final Energy:  -309.06596986841646

   => Energetics <=

    Nuclear Repulsion Energy =            301.5648861751252525
    One-Electron Energy =               -1016.3193525219849107
    Two-Electron Energy =                 405.6884964784430281
    DFT Exchange-Correlation Energy =       0.0000000000000000
    Empirical Dispersion Energy =           0.0000000000000000
    PCM Polarization Energy =               0.0000000000000000
    EFP Energy =                            0.0000000000000000
    Total Energy =                       -309.0659698684166301

  Mulliken Charges: (a.u.)
   Center  Symbol    Alpha    Beta     Spin     Total
       1     O     4.26040  4.26040  0.00000 -0.52080
       2     C     2.73707  2.73707  0.00000  0.52587
       3     C     3.21149  3.21149  0.00000 -0.42297
       4     C     3.28568  3.28568  0.00000 -0.57137
       5     C     3.14707  3.14707  0.00000 -0.29415
       6     H     0.40811  0.40811  0.00000  0.18378
       7     H     0.40969  0.40969  0.00000  0.18062
       8     C     3.15296  3.15296  0.00000 -0.30592
       9     H     0.41288  0.41288  0.00000  0.17424
      10     H     0.41247  0.41247  0.00000  0.17507
      11     C     3.23905  3.23905  0.00000 -0.47810
      12     H     0.42490  0.42490  0.00000  0.15020
      13     H     0.42492  0.42492  0.00000  0.15016
      14     H     0.42026  0.42026  0.00000  0.15949
      15     H     0.42014  0.42014  0.00000  0.15972
      16     H     0.41961  0.41961  0.00000  0.16077
      17     H     0.39634  0.39634  0.00000  0.20732
      18     H     0.40962  0.40962  0.00000  0.18075
      19     H     0.40734  0.40734  0.00000  0.18532

   Total alpha = 28.00000, Total beta = 28.00000, Total charge =  0.00000
