  ==> Input File <==

--------------------------------------------------------------------------
set {
	reference rhf
	basis cc-pvtz
}

set_num_threads( 4 )
memory 2 gb

molecule MOL {
0 1

H	 2.612194	 -1.433240	 1.711391
C	 2.010133	 -1.235231	 0.830993
C	 0.865609	 -0.292631	 1.177510
H	 1.622075	 -2.176136	 0.460819
H	 2.665187	 -0.824171	 0.072925
N	 0.000297	 0.000045	 0.046090
H	 0.270724	 -0.758835	 1.950738
H	 1.262026	 0.627949	 1.614907
C	 -1.359159	 0.315706	 0.454404
C	 0.562979	 1.009567	 -0.836395
C	 -2.416729	 -0.286720	 -0.460525
H	 -1.478729	 1.390261	 0.442008
H	 -1.539692	 0.003361	 1.486761
C	 0.096736	 0.873548	 -2.279501
H	 1.639886	 0.914026	 -0.822169
H	 0.343920	 2.015931	 -0.468760
H	 -2.285276	 0.073129	 -1.473515
H	 -2.371743	 -1.368476	 -0.483209
H	 -3.408658	 -0.007405	 -0.121593
H	 0.372179	 -0.097253	 -2.672673
H	 -0.976762	 0.979094	 -2.375618
H	 0.557284	 1.638302	 -2.895829

	symmetry c1
}
set optking {
	frozen_dihedral = ("
		3 6 9 11
	")
}

ee = optimize('scf')
oeprop('DIPOLE', 'QUADRUPOLE', 'MULLIKEN_CHARGES')
f=open( 'psi4out.xyz', 'w' )
f.write( "22  " )
f.write( str(ee) + "\n" )
f.write( MOL.save_string_xyz() )
f.close()
--------------------------------------------------------------------------

    Molecular point group: c1
  Charge       = 0
  Multiplicity = 1
  Basis Set: CC-PVTZ
  Basis Set:
  @DF-RHF Final Energy:  -290.46880546248821
    Total Energy =                       -290.4688054624879214
    Molecular point group: c1
  Basis Set: CC-PVTZ
  Basis Set:
  Basis Set: CC-PVTZ
  Basis Set:
  @DF-RHF Final Energy:  -290.47139099981365
    Total Energy =                       -290.4713909998131953
  Basis Set: CC-PVTZ
  Basis Set:
  Basis Set: CC-PVTZ
  Basis Set:
  @DF-RHF Final Energy:  -290.47177786352620
    Total Energy =                       -290.4717778635264267
  Basis Set: CC-PVTZ
  Basis Set:
  Basis Set: CC-PVTZ
  Basis Set:
  @DF-RHF Final Energy:  -290.47204832215584
    Total Energy =                       -290.4720483221555014
  Basis Set: CC-PVTZ
  Basis Set:
  @DF-RHF Final Energy:  -290.47208846004315
    Total Energy =                       -290.4720884600428121
  @DF-RHF Final Energy:  -290.47211637177969
    Total Energy =                       -290.4721163717795207
  @DF-RHF Final Energy:  -290.47218692201841
    Total Energy =                       -290.4721869220186932
  @DF-RHF Final Energy:  -290.47224422229567
    Total Energy =                       -290.4722442222957852
  @DF-RHF Final Energy:  -290.47228612065385
    Total Energy =                       -290.4722861206534503
  @DF-RHF Final Energy:  -290.47231413288534
    Total Energy =                       -290.4723141328857992
  Basis Set: CC-PVTZ
  Basis Set:
  @DF-RHF Final Energy:  -290.47233272956720
    Total Energy =                       -290.4723327295666309
  Basis Set: CC-PVTZ
  Basis Set:
  Basis Set: CC-PVTZ
  Basis Set:
  @DF-RHF Final Energy:  -290.47234749145218
    Total Energy =                       -290.4723474914529788
  Basis Set: CC-PVTZ
  Basis Set:
  Basis Set: CC-PVTZ
  Basis Set:
  @DF-RHF Final Energy:  -290.47234896763263
    Total Energy =                       -290.4723489676326835
  Basis Set: CC-PVTZ
  Basis Set:
  Charge       = 0
  Multiplicity = 1
  Basis Set: CC-PVTZ
  Basis Set:

    Orbital Energies (a.u.)
    -----------------------

    Doubly Occupied:

       1A    -15.535305     2A    -11.239457     3A    -11.238451
       4A    -11.238099     5A    -11.205486     6A    -11.204494
       7A    -11.200855     8A     -1.224352     9A     -1.027029
      10A     -1.020403    11A     -0.960565    12A     -0.855135
      13A     -0.834605    14A     -0.774331    15A     -0.661352
      16A     -0.636290    17A     -0.616910    18A     -0.600628
      19A     -0.568235    20A     -0.560004    21A     -0.542894
      22A     -0.525723    23A     -0.519271    24A     -0.497021
      25A     -0.490339    26A     -0.478414    27A     -0.464968
      28A     -0.458505    29A     -0.346144

  @DF-RHF Final Energy:  -290.47234908039218

   => Energetics <=

    Nuclear Repulsion Energy =            338.2827855345925627
    One-Electron Energy =               -1062.4597353314177326
    Two-Electron Energy =                 433.7046007164333332
    DFT Exchange-Correlation Energy =       0.0000000000000000
    Empirical Dispersion Energy =           0.0000000000000000
    PCM Polarization Energy =               0.0000000000000000
    EFP Energy =                            0.0000000000000000
    Total Energy =                       -290.4723490803918367
    Molecular point group: c1
  Basis Set: CC-PVTZ
  Basis Set:

  -Total Gradient:
     Atom            X                  Y                   Z
    ------   -----------------  -----------------  -----------------
       1        0.000001311796    -0.000001470336    -0.000001176949
       2        0.000004918786    -0.000001491015     0.000010818312
       3        0.000664883586     0.002304026098    -0.000058822153
       4       -0.000004736789     0.000001530713    -0.000000750427
       5       -0.000000047127     0.000001294681     0.000004663366
       6       -0.000856886138    -0.002397390340    -0.000588659283
       7        0.000002413992    -0.000000438978     0.000002687874
       8        0.000002749751     0.000000538742     0.000000140437
       9        0.000081454251    -0.001721268413     0.002090982619
      10        0.000001017188     0.000021113594    -0.000002909348
      11        0.000109418748     0.001797329089    -0.001467112834
      12        0.000003971385    -0.000003116403    -0.000005159195
      13       -0.000004104608     0.000006080539     0.000003121412
      14       -0.000000841439     0.000000905612     0.000012024250
      15       -0.000009363638    -0.000005388892     0.000007400434
      16       -0.000002313590     0.000003142829    -0.000000027475
      17        0.000006634686    -0.000000195551    -0.000004780508
      18        0.000001489512     0.000002069120     0.000000287029
      19       -0.000001048741    -0.000003552999    -0.000002278484
      20       -0.000010403536    -0.000005668190    -0.000002674560
      21        0.000003044272     0.000004321993    -0.000002777287
      22        0.000006437649    -0.000002371893     0.000005002770

  **** Optimization is complete! (in 14 steps) ****
    Final optimized geometry and variables:
    Molecular point group: c1

    Geometry (in Angstrom), charge = 0, multiplicity = 1:

    H            2.603191408861    -1.420331977984     2.029921739722
    C            2.122015203904    -1.173666626206     1.089776590058
    C            0.870445685845    -0.347364574562     1.360996985766
    H            1.860116552860    -2.096785497421     0.587075522445
    H            2.851670967368    -0.652848963158     0.484119209591
    N            0.035081603545    -0.127183847799     0.187082082624
    H            0.278479936404    -0.889149750145     2.086311039322
    H            1.152275474891     0.598635002519     1.834014093408
    C           -1.323166697587     0.266614419631     0.552875932515
    C            0.678622785597     0.803103885647    -0.729766182627
    C           -2.411433149628    -0.366123922913    -0.308515842586
    H           -1.428818291123     1.353115745814     0.536884570464
    H           -1.503320569599    -0.032584577184     1.576535799761
    C            0.036373852444     0.929177241165    -2.104276165030
    H            1.694240510515     0.468830408296    -0.878841668317
    H            0.743555781224     1.798921442541    -0.278541406194
    H           -2.342098491848    -0.082604393015    -1.347384016927
    H           -2.347649319316    -1.446433786578    -0.254734246719
    H           -3.389197716806    -0.065416508605     0.054696655259
    H           -0.094185883458    -0.043576246980    -2.562256894665
    H           -0.924236886549     1.425072613726    -2.070052469455
    H            0.681719386433     1.521819347100    -2.743170034487

  Mulliken Charges: (a.u.)
   Center  Symbol    Alpha    Beta     Spin     Total
       1     H     0.45073  0.45073  0.00000  0.09854
       2     C     3.14717  3.14717  0.00000 -0.29433
       3     C     3.03592  3.03592  0.00000 -0.07184
       4     H     0.45023  0.45023  0.00000  0.09954
       5     H     0.45513  0.45513  0.00000  0.08974
       6     N     3.61991  3.61991  0.00000 -0.23982
       7     H     0.45342  0.45342  0.00000  0.09315
       8     H     0.46886  0.46886  0.00000  0.06228
       9     C     3.04735  3.04735  0.00000 -0.09471
      10     C     3.03483  3.03483  0.00000 -0.06966
      11     C     3.13685  3.13685  0.00000 -0.27371
      12     H     0.46184  0.46184  0.00000  0.07632
      13     H     0.45057  0.45057  0.00000  0.09886
      14     C     3.15901  3.15901  0.00000 -0.31802
      15     H     0.45270  0.45270  0.00000  0.09460
      16     H     0.46852  0.46852  0.00000  0.06295
      17     H     0.45239  0.45239  0.00000  0.09522
      18     H     0.45325  0.45325  0.00000  0.09349
      19     H     0.45507  0.45507  0.00000  0.08985
      20     H     0.44856  0.44856  0.00000  0.10289
      21     H     0.45167  0.45167  0.00000  0.09666
      22     H     0.44601  0.44601  0.00000  0.10798

   Total alpha = 29.00000, Total beta = 29.00000, Total charge = -0.00000
