  ==> Input File <==

--------------------------------------------------------------------------
set {
	reference rhf
	basis 6-31G*
}

set_num_threads( 1 )
memory 2 gb

molecule MOL {
0 1

O	 -0.282018	 0.342890	 -0.889868
C	 0.486307	 0.169203	 0.000779
C	 1.608116	 -0.841643	 0.000302
O	 0.455825	 0.854108	 1.135497
C	 2.990107	 -0.200498	 -0.000684
H	 1.468623	 -1.481519	 -0.865924
H	 1.469683	 -1.481289	 0.866878
H	 3.129736	 0.423364	 -0.875135
H	 3.757882	 -0.966877	 -0.001197
H	 3.130964	 0.423383	 0.873533
C	 -0.555466	 1.846259	 1.278073
C	 -0.381975	 2.478248	 2.642918
H	 -1.525117	 1.378694	 1.174423
H	 -0.450437	 2.573410	 0.484465
H	 -0.484584	 1.736105	 3.426405
H	 -1.136095	 3.243820	 2.794084
H	 0.595940	 2.937450	 2.732758

	symmetry c1
}
set optking {
	frozen_dihedral = ("
		2 4 11 13,
		11 4 2 3
	")
}

ee = energy('scf')
oeprop('DIPOLE', 'QUADRUPOLE', 'MULLIKEN_CHARGES')
f=open( 'psi4out.xyz', 'w' )
f.write( "17  " )
f.write( str(ee) + "\n" )
f.write( MOL.save_string_xyz() )
f.close()
--------------------------------------------------------------------------

    Molecular point group: c1

    Geometry (in Angstrom), charge = 0, multiplicity = 1:

       Center              X                  Y                   Z               Mass
    ------------   -----------------  -----------------  -----------------  -----------------
           O         -0.895134285428    -0.337244328717    -1.494158655890    15.994914619560
           C         -0.126809285428    -0.510931328717    -0.603511655890    12.000000000000
           C          0.994999714572    -1.521777328717    -0.603988655890    12.000000000000
           O         -0.157291285428     0.173973671283     0.531206344110    15.994914619560
           C          2.376990714572    -0.880632328717    -0.604974655890    12.000000000000
           H          0.855506714572    -2.161653328717    -1.470214655890     1.007825032070
           H          0.856566714572    -2.161423328717     0.262587344110     1.007825032070
           H          2.516619714572    -0.256770328717    -1.479425655890     1.007825032070
           H          3.144765714572    -1.647011328717    -0.605487655890     1.007825032070
           H          2.517847714572    -0.256751328717     0.269242344110     1.007825032070
           C         -1.168582285428     1.166124671283     0.673782344110    12.000000000000
           C         -0.995091285428     1.798113671283     2.038627344110    12.000000000000
           H         -2.138233285428     0.698559671283     0.570132344110     1.007825032070
           H         -1.063553285428     1.893275671283    -0.119825655890     1.007825032070
           H         -1.097700285428     1.055970671283     2.822114344110     1.007825032070
           H         -1.749211285428     2.563685671283     2.189793344110     1.007825032070
           H         -0.017176285428     2.257315671283     2.128467344110     1.007825032070

  Charge       = 0
  Multiplicity = 1
  Basis Set: 6-31G*
  Basis Set:

    Orbital Energies (a.u.)
    -----------------------

    Doubly Occupied:

       1A    -20.601505     2A    -20.543149     3A    -11.370372
       4A    -11.284895     5A    -11.236176     6A    -11.225397
       7A    -11.222616     8A     -1.467363     9A     -1.360932
      10A     -1.073891    11A     -1.031041    12A     -0.908156
      13A     -0.856354    14A     -0.777671    15A     -0.692787
      16A     -0.679736    17A     -0.670528    18A     -0.617384
      19A     -0.594150    20A     -0.574275    21A     -0.553467
      22A     -0.543045    23A     -0.528134    24A     -0.506834
      25A     -0.503563    26A     -0.497119    27A     -0.451739
      28A     -0.431144

  @DF-RHF Final Energy:  -344.91012697559489

   => Energetics <=

    Nuclear Repulsion Energy =            316.9957883632327480
    One-Electron Energy =               -1098.2050580770057877
    Two-Electron Energy =                 436.2991427381775793
    DFT Exchange-Correlation Energy =       0.0000000000000000
    Empirical Dispersion Energy =           0.0000000000000000
    PCM Polarization Energy =               0.0000000000000000
    EFP Energy =                            0.0000000000000000
    Total Energy =                       -344.9101269755954036

  Mulliken Charges: (a.u.)
   Center  Symbol    Alpha    Beta     Spin     Total
       1     O     4.28531  4.28531  0.00000 -0.57061
       2     C     2.61444  2.61444  0.00000  0.77112
       3     C     3.19530  3.19530  0.00000 -0.39060
       4     O     4.30901  4.30901  0.00000 -0.61801
       5     C     3.24938  3.24938  0.00000 -0.49877
       6     H     0.39951  0.39951  0.00000  0.20099
       7     H     0.40448  0.40448  0.00000  0.19103
       8     H     0.41158  0.41158  0.00000  0.17685
       9     H     0.41223  0.41223  0.00000  0.17553
      10     H     0.40749  0.40749  0.00000  0.18503
      11     C     3.00227  3.00227  0.00000 -0.00455
      12     C     3.24859  3.24859  0.00000 -0.49718
      13     H     0.40996  0.40996  0.00000  0.18007
      14     H     0.41023  0.41023  0.00000  0.17953
      15     H     0.41185  0.41185  0.00000  0.17631
      16     H     0.41617  0.41617  0.00000  0.16766
      17     H     0.41220  0.41220  0.00000  0.17560

   Total alpha = 28.00000, Total beta = 28.00000, Total charge =  0.00000
