                              Psi4 1.0.54 Driver

  ==> Input File <==

--------------------------------------------------------------------------
set {
	reference rhf
	basis cc-pvtz
}

set_num_threads( 4 )
memory 2 gb

molecule MOL {
0 1

H	 1.051776	 -2.550251	 -0.424099
C	 0.481849	 -2.543611	 0.514407
C	 -0.796107	 -1.752149	 0.479559
O	 0.888687	 -3.129150	 1.457413
C	 -0.554654	 -0.292621	 0.086567
H	 -1.271759	 -1.825927	 1.448656
H	 -1.448917	 -2.220241	 -0.254340
C	 -1.846385	 0.513195	 -0.016346
H	 0.101998	 0.169946	 0.817852
H	 -0.031101	 -0.254551	 -0.865334
C	 -3.089953	 -0.365049	 -0.098564
H	 -1.798267	 1.154820	 -0.891143
H	 -1.925398	 1.173265	 0.842889
H	 -3.055079	 -1.012299	 -0.968245
H	 -3.988403	 0.236438	 -0.170014
H	 -3.183055	 -0.995885	 0.779079

	symmetry c1
}
set optking {
	frozen_dihedral = ("
		9 5 8 12
	")
}

ee,wfn = optimize('scf', return_wfn=True)
oeprop( wfn, 'DIPOLE', 'QUADRUPOLE', 'MULLIKEN_CHARGES')
f=open( 'psi4out.xyz', 'w' )
f.write( "16  " )
f.write( str(ee) + "\n" )
f.write( MOL.save_string_xyz() )
f.close()
--------------------------------------------------------------------------

    Molecular point group: c1
  Charge       = 0
  Multiplicity = 1
  Basis Set: CC-PVTZ
  Basis Set:
  @DF-RHF Final Energy:  -270.10709546879264
    Total Energy =                       -270.1070954687927497
    Molecular point group: c1
  Basis Set: CC-PVTZ
  Basis Set:
  Basis Set: CC-PVTZ
  Basis Set:
  @DF-RHF Final Energy:  -270.10667763554574
    Total Energy =                       -270.1066776355456227
  Basis Set: CC-PVTZ
  Basis Set:
  Basis Set: CC-PVTZ
  Basis Set:
  @DF-RHF Final Energy:  -270.11038277698748
    Total Energy =                       -270.1103827769874215
  Basis Set: CC-PVTZ
  Basis Set:
  Basis Set: CC-PVTZ
  Basis Set:
  @DF-RHF Final Energy:  -270.11064108082849
    Total Energy =                       -270.1106410808286569
  Basis Set: CC-PVTZ
  Basis Set:
  @DF-RHF Final Energy:  -270.10758092991500
    Total Energy =                       -270.1075809299148887
  @DF-RHF Final Energy:  -270.11066816842856
    Total Energy =                       -270.1106681684287310
  Basis Set: CC-PVTZ
  Basis Set:
  @DF-RHF Final Energy:  -270.11072085439940
    Total Energy =                       -270.1107208543995739
  Basis Set: CC-PVTZ
  Basis Set:
  Basis Set: CC-PVTZ
  Basis Set:
  @DF-RHF Final Energy:  -270.11070820166009
    Total Energy =                       -270.1107082016602590
  Basis Set: CC-PVTZ
  Basis Set:
  Basis Set: CC-PVTZ
  Basis Set:
  @DF-RHF Final Energy:  -270.11072413768602
    Total Energy =                       -270.1107241376862476
  Basis Set: CC-PVTZ
  Basis Set:
  Charge       = 0
  Multiplicity = 1
  Basis Set: CC-PVTZ
  Basis Set:

    Orbital Energies (a.u.)
    -----------------------

    Doubly Occupied:

       1A    -20.551581     2A    -11.320694     3A    -11.235292
       4A    -11.233066     5A    -11.228156     6A    -11.217397
       7A     -1.406327     8A     -1.094422     9A     -1.015667
      10A     -0.916195    11A     -0.810705    12A     -0.785843
      13A     -0.679752    14A     -0.651643    15A     -0.640672
      16A     -0.587438    17A     -0.577703    18A     -0.568807
      19A     -0.532923    20A     -0.520758    21A     -0.486903
      22A     -0.473020    23A     -0.470247    24A     -0.411719

  @DF-RHF Final Energy:  -270.11072443411797

   => Energetics <=

    Nuclear Repulsion Energy =            232.7335647899001572
    One-Electron Energy =                -826.8547268029329871
    Two-Electron Energy =                 324.0104375789147753
    DFT Exchange-Correlation Energy =       0.0000000000000000
    Empirical Dispersion Energy =           0.0000000000000000
    PCM Polarization Energy =               0.0000000000000000
    EFP Energy =                            0.0000000000000000
    Total Energy =                       -270.1107244341180831
    Molecular point group: c1
  Basis Set: CC-PVTZ
  Basis Set:

  -Total Gradient:
     Atom            X                  Y                   Z
    ------   -----------------  -----------------  -----------------
       1        0.000008494093     0.000005942556    -0.000005480860
       2        0.000000136568     0.000001687404    -0.000014836830
       3        0.000017573577     0.000049203338     0.000002991800
       4        0.000000845437    -0.000029415330     0.000018826846
       5        0.002066017574     0.002758885409    -0.005259904015
       6        0.000001761878    -0.000003082382     0.000000957758
       7       -0.000016084873    -0.000016423804     0.000002709365
       8        0.002333765432     0.003846805707     0.004358714365
       9       -0.002117572444    -0.002915217201     0.003784371703
      10       -0.000000113981     0.000001856674     0.000002150031
      11       -0.000003203016    -0.000011421916     0.000001607136
      12       -0.002295160111    -0.003689396956    -0.002888200869
      13        0.000002627847    -0.000001364381    -0.000000229945
      14        0.000000444982    -0.000000683989    -0.000001170616
      15        0.000002480733     0.000000456787     0.000000018552
      16       -0.000002013693     0.000002168081    -0.000002524421

  **** Optimization is complete! (in 10 steps) ****
    Final optimized geometry and variables:
    Molecular point group: c1

    Geometry (in Angstrom), charge = 0, multiplicity = 1:

    H            1.885355775038    -1.303788224113    -0.866206647355
    C            1.361773123608    -1.276298079013     0.098678623869
    C            0.043637134986    -0.552844652348     0.089326710150
    O            1.844695382957    -1.789646681400     1.048013111091
    C            0.228650030593     0.909327528897    -0.341332178594
    H           -0.389559321514    -0.626915573656     1.077566322704
    H           -0.604813465873    -1.075477585714    -0.607459065020
    C           -1.061492506660     1.761952052564    -0.402923276679
    H            0.901861600861     1.356613898456     0.381679151163
    H            0.728011429884     0.929437149728    -1.303837001764
    C           -2.379556260752     0.995844883913    -0.522012927770
    H           -0.998379168785     2.404731758455    -1.273705881604
    H           -1.110125356993     2.404616179565     0.467609894886
    H           -2.404059322822     0.375318900568    -1.411192439328
    H           -3.204597452569     1.694887628177    -0.592568839848
    H           -2.564846863574     0.359033786302     0.334079309468

  Mulliken Charges: (a.u.)
   Center  Symbol    Alpha    Beta     Spin     Total
       1     H     0.46596  0.46596  0.00000  0.06808
       2     C     2.91145  2.91145  0.00000  0.17709
       3     C     3.07814  3.07814  0.00000 -0.15628
       4     O     4.16415  4.16415  0.00000 -0.32829
       5     C     3.11080  3.11080  0.00000 -0.22161
       6     H     0.44201  0.44201  0.00000  0.11598
       7     H     0.44791  0.44791  0.00000  0.10418
       8     C     3.08629  3.08629  0.00000 -0.17258
       9     H     0.44277  0.44277  0.00000  0.11447
      10     H     0.44842  0.44842  0.00000  0.10315
      11     C     3.15892  3.15892  0.00000 -0.31783
      12     H     0.44935  0.44935  0.00000  0.10131
      13     H     0.44761  0.44761  0.00000  0.10479
      14     H     0.45339  0.45339  0.00000  0.09322
      15     H     0.44262  0.44262  0.00000  0.11477
      16     H     0.45022  0.45022  0.00000  0.09957

   Total alpha = 24.00000, Total beta = 24.00000, Total charge = -0.00000

*** Psi4 exiting successfully. Buy a developer a beer!
