  ==> Input File <==

--------------------------------------------------------------------------
set {
	reference rhf
	basis 6-31G*
}

set_num_threads( 1 )
memory 2 gb

molecule MOL {
0 1

H	 2.927717	 -1.199966	 0.189387
N	 3.092854	 -0.246221	 -0.068770
C	 1.865559	 0.531981	 0.018834
H	 3.435502	 -0.256564	 -1.010744
C	 0.645745	 -0.382037	 -0.029944
H	 1.841966	 1.207024	 -0.831236
H	 1.815756	 1.155410	 0.915079
C	 -0.679275	 0.379305	 0.025956
H	 0.698998	 -0.976915	 -0.937203
H	 0.693479	 -1.083846	 0.802235
C	 -1.903357	 -0.536963	 -0.023547
H	 -0.726309	 1.082987	 -0.803784
H	 -0.717680	 0.977832	 0.934877
C	 -3.225172	 0.228290	 0.028445
H	 -1.867824	 -1.134999	 -0.931459
H	 -1.860449	 -1.239604	 0.805977
H	 -3.313397	 0.915643	 -0.808262
H	 -4.073500	 -0.448134	 -0.008893
H	 -3.306061	 0.809945	 0.942516

	symmetry c1
}
set optking {
	frozen_dihedral = ("
		6 3 5 9,
		12 8 5 9,
		12 8 11 15
	")
}

ee = energy('scf')
oeprop('DIPOLE', 'QUADRUPOLE', 'MULLIKEN_CHARGES')
f=open( 'psi4out.xyz', 'w' )
f.write( "19  " )
f.write( str(ee) + "\n" )
f.write( MOL.save_string_xyz() )
f.close()
--------------------------------------------------------------------------

    Molecular point group: c1

    Geometry (in Angstrom), charge = 0, multiplicity = 1:

       Center              X                  Y                   Z               Mass
    ------------   -----------------  -----------------  -----------------  -----------------
           H          2.936157109504    -1.188558799300     0.206301977689     1.007825032070
           N          3.101294109504    -0.234813799300    -0.051855022311    14.003074004780
           C          1.873999109504     0.543388200700     0.035748977689    12.000000000000
           H          3.443942109504    -0.245156799300    -0.993829022311     1.007825032070
           C          0.654185109504    -0.370629799300    -0.013029022311    12.000000000000
           H          1.850406109504     1.218431200700    -0.814321022311     1.007825032070
           H          1.824196109504     1.166817200700     0.931993977689     1.007825032070
           C         -0.670834890496     0.390712200700     0.042870977689    12.000000000000
           H          0.707438109504    -0.965507799300    -0.920288022311     1.007825032070
           H          0.701919109504    -1.072438799300     0.819149977689     1.007825032070
           C         -1.894916890496    -0.525555799300    -0.006632022311    12.000000000000
           H         -0.717868890496     1.094394200700    -0.786869022311     1.007825032070
           H         -0.709239890496     0.989239200700     0.951791977689     1.007825032070
           C         -3.216731890496     0.239697200700     0.045359977689    12.000000000000
           H         -1.859383890496    -1.123591799300    -0.914544022311     1.007825032070
           H         -1.852008890496    -1.228196799300     0.822891977689     1.007825032070
           H         -3.304956890496     0.927050200700    -0.791347022311     1.007825032070
           H         -4.065059890496    -0.436726799300     0.008021977689     1.007825032070
           H         -3.297620890496     0.821352200700     0.959430977689     1.007825032070

  Charge       = 0
  Multiplicity = 1
  Basis Set: 6-31G*
  Basis Set:

    Orbital Energies (a.u.)
    -----------------------

    Doubly Occupied:

       1A    -15.529985     2A    -11.240275     3A    -11.216814
       4A    -11.215658     5A    -11.214437     6A    -11.209590
       7A     -1.178013     8A     -1.075462     9A     -0.999809
      10A     -0.901094    11A     -0.819531    12A     -0.794216
      13A     -0.673280    14A     -0.639994    15A     -0.601086
      16A     -0.595029    17A     -0.568086    18A     -0.556325
      19A     -0.527004    20A     -0.502506    21A     -0.485351
      22A     -0.469740    23A     -0.465833    24A     -0.462363
      25A     -0.372408

  @DF-RHF Final Energy:  -251.34711121653774

   => Energetics <=

    Nuclear Repulsion Energy =            246.2272152840903061
    One-Electron Energy =                -826.5209242664769818
    Two-Electron Energy =                 328.9465977658489919
    DFT Exchange-Correlation Energy =       0.0000000000000000
    Empirical Dispersion Energy =           0.0000000000000000
    PCM Polarization Energy =               0.0000000000000000
    EFP Energy =                            0.0000000000000000
    Total Energy =                       -251.3471112165376553

  Mulliken Charges: (a.u.)
   Center  Symbol    Alpha    Beta     Spin     Total
       1     H     0.33263  0.33263  0.00000  0.33475
       2     N     3.92470  3.92470  0.00000 -0.84941
       3     C     3.05118  3.05118  0.00000 -0.10236
       4     H     0.33265  0.33265  0.00000  0.33471
       5     C     3.16572  3.16572  0.00000 -0.33144
       6     H     0.42453  0.42453  0.00000  0.15094
       7     H     0.42029  0.42029  0.00000  0.15942
       8     C     3.15470  3.15470  0.00000 -0.30941
       9     H     0.42501  0.42501  0.00000  0.14999
      10     H     0.42371  0.42371  0.00000  0.15259
      11     C     3.15095  3.15095  0.00000 -0.30190
      12     H     0.42381  0.42381  0.00000  0.15238
      13     H     0.42220  0.42220  0.00000  0.15560
      14     C     3.23938  3.23938  0.00000 -0.47876
      15     H     0.42329  0.42329  0.00000  0.15342
      16     H     0.42285  0.42285  0.00000  0.15430
      17     H     0.42179  0.42179  0.00000  0.15641
      18     H     0.41918  0.41918  0.00000  0.16164
      19     H     0.42143  0.42143  0.00000  0.15714

   Total alpha = 25.00000, Total beta = 25.00000, Total charge = -0.00000
