  ==> Input File <==

--------------------------------------------------------------------------
set {
	reference rhf
	basis 6-31G*
}

set_num_threads( 4 )
memory 2 gb

molecule MOL {
0 1

H	 -0.832346	 -1.188146	 -0.821264
N	 -0.626943	 -0.667432	 -0.000092
C	 -1.513373	 -0.800925	 1.133547
C	 0.469286	 0.129090	 0.000148
H	 -2.521161	 -0.491695	 0.877137
H	 -1.144580	 -0.169944	 1.925748
H	 -1.543021	 -1.826781	 1.485361
C	 1.788933	 -0.616240	 -0.000037
O	 0.411098	 1.327768	 -0.000049
H	 1.872803	 -1.245775	 -0.880381
H	 2.595421	 0.101576	 0.003713
H	 1.870096	 -1.252171	 0.875943

	symmetry c1
}
set optking {
	frozen_dihedral = ("
		3 2 4 9
	")
}

ee = optimize('scf')
oeprop('DIPOLE', 'QUADRUPOLE', 'MULLIKEN_CHARGES')
f=open( 'psi4out.xyz', 'w' )
f.write( "12  " )
f.write( str(ee) + "\n" )
f.write( MOL.save_string_xyz() )
f.close()
--------------------------------------------------------------------------

    Molecular point group: c1
  Charge       = 0
  Multiplicity = 1
  Basis Set: 6-31G*
  Basis Set:
  @DF-RHF Final Energy:  -246.96862929788813
    Total Energy =                       -246.9686292978880147
    Molecular point group: c1
  Basis Set: 6-31G*
  Basis Set:
  Basis Set: 6-31G*
  Basis Set:
  @DF-RHF Final Energy:  -246.97304139143029
    Total Energy =                       -246.9730413914301721
  Basis Set: 6-31G*
  Basis Set:
  Basis Set: 6-31G*
  Basis Set:
  @DF-RHF Final Energy:  -246.97716151406553
    Total Energy =                       -246.9771615140655854
  Basis Set: 6-31G*
  Basis Set:
  Basis Set: 6-31G*
  Basis Set:
  @DF-RHF Final Energy:  -246.98150238690857
    Total Energy =                       -246.9815023869086872
  Basis Set: 6-31G*
  Basis Set:
  @DF-RHF Final Energy:  -246.98439116347839
    Total Energy =                       -246.9843911634784490
  @DF-RHF Final Energy:  -246.98525046953085
    Total Energy =                       -246.9852504695309108
  @DF-RHF Final Energy:  -246.98677911762744
    Total Energy =                       -246.9867791176275205
  Basis Set: 6-31G*
  Basis Set:
  @DF-RHF Final Energy:  -246.98708770627132
    Total Energy =                       -246.9870877062713248
  Basis Set: 6-31G*
  Basis Set:
  Basis Set: 6-31G*
  Basis Set:
  @DF-RHF Final Energy:  -246.98722940974938
    Total Energy =                       -246.9872294097494319
  Basis Set: 6-31G*
  Basis Set:
  Basis Set: 6-31G*
  Basis Set:
  @DF-RHF Final Energy:  -246.98724313028936
    Total Energy =                       -246.9872431302891300
  Basis Set: 6-31G*
  Basis Set:
  Charge       = 0
  Multiplicity = 1
  Basis Set: 6-31G*
  Basis Set:

    Orbital Energies (a.u.)
    -----------------------

    Doubly Occupied:

       1A    -20.539641     2A    -15.572015     3A    -11.349266
       4A    -11.260768     5A    -11.236206     6A     -1.400847
       7A     -1.225026     8A     -1.015357     9A     -0.930914
      10A     -0.771129    11A     -0.691104    12A     -0.650762
      13A     -0.632836    14A     -0.597105    15A     -0.585092
      16A     -0.562050    17A     -0.547750    18A     -0.504166
      19A     -0.426509    20A     -0.393836

  @DF-RHF Final Energy:  -246.98724349125061

   => Energetics <=

    Nuclear Repulsion Energy =            180.6467260045079968
    One-Electron Energy =                -693.4831794294442489
    Two-Electron Energy =                 265.8492099336855290
    DFT Exchange-Correlation Energy =       0.0000000000000000
    Empirical Dispersion Energy =           0.0000000000000000
    PCM Polarization Energy =               0.0000000000000000
    EFP Energy =                            0.0000000000000000
    Total Energy =                       -246.9872434912507515
    Molecular point group: c1
  Basis Set: 6-31G*
  Basis Set:

  -Total Gradient:
     Atom            X                  Y                   Z
    ------   -----------------  -----------------  -----------------
       1        0.000065271258     0.000022281884    -0.000002597600
       2       -0.006143819675     0.015089764847    -0.008014468883
       3        0.004442281182    -0.009214152809     0.001463625447
       4        0.000770737953    -0.009470518226     0.019635054908
       5       -0.000008737421    -0.000005055396    -0.000005476822
       6       -0.000006614970     0.000001103786     0.000008561090
       7        0.000010701545     0.000000203473    -0.000000933199
       8       -0.000004238343     0.000073482251    -0.000086151147
       9        0.000896722757     0.003530934010    -0.013009755371
      10        0.000000008510    -0.000021559987     0.000005945671
      11       -0.000016669328     0.000003975281     0.000005411544
      12       -0.000005643468    -0.000010459117     0.000000784360

  **** Optimization is complete! (in 11 steps) ****
    Final optimized geometry and variables:
    Molecular point group: c1

    Geometry (in Angstrom), charge = 0, multiplicity = 1:

    H           -0.673580841608    -1.251021867330    -0.867279107193
    N           -0.819529630125    -0.378705201148    -0.399639313120
    C           -1.679978173796    -0.604612915894     0.760012323113
    C            0.408705488715     0.244627528001    -0.145121224708
    H           -2.627682457046    -1.001746552583     0.420850773750
    H           -1.863659198400     0.338428151904     1.254337505414
    H           -1.247661004206    -1.298810906725     1.478253461786
    C            1.642398405820    -0.582133321879    -0.439463426373
    O            0.475977026220     1.390233684538     0.171650764337
    H            1.616360758765    -0.944493433788    -1.463335292831
    H            2.526401483843     0.021757921727    -0.297451750702
    H            1.683621803811    -1.448621964396     0.214343576083

  Mulliken Charges: (a.u.)
   Center  Symbol    Alpha    Beta     Spin     Total
       1     H     0.32439  0.32439  0.00000  0.35122
       2     N     3.86319  3.86319  0.00000 -0.72639
       3     C     3.15859  3.15859  0.00000 -0.31719
       4     C     2.65315  2.65315  0.00000  0.69369
       5     H     0.40854  0.40854  0.00000  0.18292
       6     H     0.39528  0.39528  0.00000  0.20944
       7     H     0.42439  0.42439  0.00000  0.15122
       8     C     3.29830  3.29830  0.00000 -0.59659
       9     O     4.26709  4.26709  0.00000 -0.53419
      10     H     0.40598  0.40598  0.00000  0.18803
      11     H     0.39228  0.39228  0.00000  0.21543
      12     H     0.40880  0.40880  0.00000  0.18239

   Total alpha = 20.00000, Total beta = 20.00000, Total charge = -0.00000
