                              Psi4 1.0.54 Driver

  ==> Input File <==

--------------------------------------------------------------------------
set {
	reference rhf
	basis cc-pvtz
}

set_num_threads( 4 )
memory 2 gb

molecule MOL {
0 1

O	 -2.081319	 -0.951530	 -0.502732
N	 -1.613558	 0.006676	 0.014756
C	 -0.329345	 -0.171618	 0.743966
O	 -2.068523	 1.100482	 -0.024385
C	 0.835904	 0.041968	 -0.213982
H	 -0.346048	 -1.174374	 1.137184
H	 -0.333613	 0.555559	 1.538590
C	 2.177039	 -0.130175	 0.494460
H	 0.754456	 -0.665923	 -1.030569
H	 0.765464	 1.037260	 -0.637266
C	 3.320141	 0.550228	 -0.250423
H	 2.395106	 -1.188600	 0.602256
H	 2.108857	 0.275035	 1.499727
H	 3.434152	 0.141761	 -1.248348
H	 3.144620	 1.615940	 -0.346167
H	 4.258547	 0.414168	 0.273069

	symmetry c1
}
set optking {
	frozen_dihedral = ("
		11 8 5 9
	")
}

ee,wfn = optimize('scf', return_wfn=True)
oeprop( wfn, 'DIPOLE', 'QUADRUPOLE', 'MULLIKEN_CHARGES')
f=open( 'psi4out.xyz', 'w' )
f.write( "16  " )
f.write( str(ee) + "\n" )
f.write( MOL.save_string_xyz() )
f.close()
--------------------------------------------------------------------------

    Molecular point group: c1
  Charge       = 0
  Multiplicity = 1
  Basis Set: CC-PVTZ
  Basis Set:
  @DF-RHF Final Energy:  -360.90801061801528
    Total Energy =                       -360.9080106180155099
    Molecular point group: c1
  Basis Set: CC-PVTZ
  Basis Set:
  Basis Set: CC-PVTZ
  Basis Set:
  @DF-RHF Final Energy:  -360.90817411461791
    Total Energy =                       -360.9081741146180775
  Basis Set: CC-PVTZ
  Basis Set:
  Basis Set: CC-PVTZ
  Basis Set:
  @DF-RHF Final Energy:  -360.90703597904746
    Total Energy =                       -360.9070359790473503
  Basis Set: CC-PVTZ
  Basis Set:
  Basis Set: CC-PVTZ
  Basis Set:
  @DF-RHF Final Energy:  -360.90817193577271
    Total Energy =                       -360.9081719357728275
  Basis Set: CC-PVTZ
  Basis Set:
  Basis Set: CC-PVTZ
  Basis Set:
  @DF-RHF Final Energy:  -360.90818906939467
    Total Energy =                       -360.9081890693944388
  Basis Set: CC-PVTZ
  Basis Set:
  Basis Set: CC-PVTZ
  Basis Set:
  @DF-RHF Final Energy:  -360.90820143150313
    Total Energy =                       -360.9082014315037554
  Basis Set: CC-PVTZ
  Basis Set:
  Charge       = 0
  Multiplicity = 1
  Basis Set: CC-PVTZ
  Basis Set:

    Orbital Energies (a.u.)
    -----------------------

    Doubly Occupied:

       1A    -20.589649     2A    -20.589470     3A    -15.836008
       4A    -11.296177     5A    -11.250864     6A    -11.242043
       7A    -11.226069     8A     -1.635075     9A     -1.419350
      10A     -1.136411    11A     -1.059601    12A     -0.948873
      13A     -0.843428    14A     -0.829373    15A     -0.757882
      16A     -0.737773    17A     -0.727672    18A     -0.678367
      19A     -0.617431    20A     -0.607640    21A     -0.566139
      22A     -0.544355    23A     -0.516748    24A     -0.504631
      25A     -0.495625    26A     -0.485977    27A     -0.469542
      28A     -0.452101

  @DF-RHF Final Energy:  -360.90820182653601

   => Energetics <=

    Nuclear Repulsion Energy =            313.0151053847400817
    One-Electron Energy =               -1111.7180666731555903
    Two-Electron Energy =                 437.7947594618798348
    DFT Exchange-Correlation Energy =       0.0000000000000000
    Empirical Dispersion Energy =           0.0000000000000000
    PCM Polarization Energy =               0.0000000000000000
    EFP Energy =                            0.0000000000000000
    Total Energy =                       -360.9082018265356737
    Molecular point group: c1
  Basis Set: CC-PVTZ
  Basis Set:

  -Total Gradient:
     Atom            X                  Y                   Z
    ------   -----------------  -----------------  -----------------
       1       -0.000056452577     0.000070790407    -0.000030823320
       2        0.000051494472     0.000002519120     0.000056503499
       3        0.000004864675     0.000004686307     0.000005055979
       4       -0.000053425306    -0.000065035956    -0.000056123050
       5        0.001693323415     0.003724752564    -0.002164971045
       6        0.000021175711    -0.000000573593     0.000007793313
       7        0.000022181839    -0.000005816427     0.000002117045
       8        0.000163447556    -0.003511660811    -0.001331446415
       9       -0.001477742772    -0.002346834661     0.002175973211
      10        0.000001933603    -0.000001252914    -0.000001021267
      11       -0.000371531013     0.002126805339     0.001340788237
      12        0.000003372244    -0.000003299832    -0.000005046407
      13       -0.000000778048     0.000001687522    -0.000002892029
      14       -0.000000169665     0.000001163769     0.000003843462
      15       -0.000002605223     0.000002423714     0.000002203018
      16        0.000000911077    -0.000000354550    -0.000001954232

  **** Optimization is complete! (in 7 steps) ****
    Final optimized geometry and variables:
    Molecular point group: c1

    Geometry (in Angstrom), charge = 0, multiplicity = 1:

    O           -2.045850875393    -1.063893740338    -0.519147373120
    N           -1.609740625914    -0.087593975495    -0.007508773856
    C           -0.317982848212    -0.217023430479     0.718763151297
    O           -2.102398424406     0.989632809221    -0.050889032187
    C            0.838113322953     0.031713522647    -0.244208465330
    H           -0.298129413825    -1.217939887145     1.117110818335
    H           -0.345270507739     0.513450762277     1.509710966791
    C            2.184744102900    -0.170044110392     0.454122025622
    H            0.739573456799    -0.665412113735    -1.067728963323
    H            0.758353350015     1.037529764906    -0.637223124816
    C            3.337067621387     0.498689642713    -0.287617913416
    H            2.377755035383    -1.231443923578     0.567629922471
    H            2.135735966337     0.241681328445     1.458461260004
    H            3.423737548608     0.123962693976    -1.301859057557
    H            3.190471042265     1.571312593019    -0.342079610364
    H            4.279429637338     0.315822300364     0.214221453902

  Mulliken Charges: (a.u.)
   Center  Symbol    Alpha    Beta     Spin     Total
       1     O     4.17410  4.17410  0.00000 -0.34820
       2     N     3.27604  3.27604  0.00000  0.44791
       3     C     3.04012  3.04012  0.00000 -0.08023
       4     O     4.17419  4.17419  0.00000 -0.34838
       5     C     3.10143  3.10143  0.00000 -0.20286
       6     H     0.43424  0.43424  0.00000  0.13151
       7     H     0.43406  0.43406  0.00000  0.13187
       8     C     3.09356  3.09356  0.00000 -0.18713
       9     H     0.43687  0.43687  0.00000  0.12625
      10     H     0.43826  0.43826  0.00000  0.12349
      11     C     3.14746  3.14746  0.00000 -0.29492
      12     H     0.44707  0.44707  0.00000  0.10586
      13     H     0.45362  0.45362  0.00000  0.09275
      14     H     0.45139  0.45139  0.00000  0.09722
      15     H     0.45192  0.45192  0.00000  0.09616
      16     H     0.44566  0.44566  0.00000  0.10868

   Total alpha = 28.00000, Total beta = 28.00000, Total charge =  0.00000

*** Psi4 exiting successfully. Buy a developer a beer!
