  ==> Input File <==

--------------------------------------------------------------------------
set {
	reference rhf
	basis 6-31G*
}

set_num_threads( 1 )
memory 2 gb

molecule MOL {
0 1

H	 1.666915	 -5.421343	 -0.083811
O	 2.523165	 -5.198637	 -0.418937
C	 2.389797	 -4.372826	 -1.547788
C	 1.948030	 -2.954130	 -1.205928
H	 3.367180	 -4.349338	 -2.012379
H	 1.701356	 -4.817097	 -2.265738
C	 0.551881	 -2.869825	 -0.584215
H	 2.676962	 -2.520302	 -0.526355
H	 1.973667	 -2.361740	 -2.119046
C	 0.115918	 -1.429151	 -0.302766
H	 0.537621	 -3.440385	 0.340244
H	 -0.171031	 -3.337588	 -1.252748
C	 -1.309753	 -1.282496	 0.241564
H	 0.816106	 -0.973036	 0.394761
H	 0.192523	 -0.857866	 -1.225514
C	 -2.037799	 -0.007733	 -0.193645
H	 -1.890610	 -2.142323	 -0.085726
H	 -1.285946	 -1.330893	 1.329189
C	 -3.489788	 0.042957	 0.286558
H	 -2.017067	 0.064384	 -1.280144
H	 -1.513726	 0.868678	 0.179924
C	 -4.216917	 1.317354	 -0.141063
H	 -4.025645	 -0.823308	 -0.095450
H	 -3.513059	 -0.038752	 1.371301
H	 -4.239342	 1.411634	 -1.223113
H	 -5.243387	 1.322503	 0.212445
H	 -3.726170	 2.201406	 0.256408

	symmetry c1
}
set optking {
	frozen_dihedral = ("
		14 10 7 4,
		10 7 4 8,
		8 4 3 2,
		10 13 16 20,
		20 16 19 22,
		4 3 2 1
	")
}

ee = energy('scf')
oeprop('DIPOLE', 'QUADRUPOLE', 'MULLIKEN_CHARGES')
f=open( 'psi4out.xyz', 'w' )
f.write( "27  " )
f.write( str(ee) + "\n" )
f.write( MOL.save_string_xyz() )
f.close()
--------------------------------------------------------------------------

    Molecular point group: c1

    Geometry (in Angstrom), charge = 0, multiplicity = 1:

       Center              X                  Y                   Z               Mass
    ------------   -----------------  -----------------  -----------------  -----------------
           H          2.028340581113    -3.511222143390     0.348178474451     1.007825032070
           O          2.884590581113    -3.288516143390     0.013052474451    15.994914619560
           C          2.751222581113    -2.462705143390    -1.115798525549    12.000000000000
           C          2.309455581113    -1.044009143390    -0.773938525549    12.000000000000
           H          3.728605581113    -2.439217143390    -1.580389525549     1.007825032070
           H          2.062781581113    -2.906976143390    -1.833748525549     1.007825032070
           C          0.913306581113    -0.959704143390    -0.152225525549    12.000000000000
           H          3.038387581113    -0.610181143390    -0.094365525549     1.007825032070
           H          2.335092581113    -0.451619143390    -1.687056525549     1.007825032070
           C          0.477343581113     0.480969856610     0.129223474451    12.000000000000
           H          0.899046581113    -1.530264143390     0.772233474451     1.007825032070
           H          0.190394581113    -1.427467143390    -0.820758525549     1.007825032070
           C         -0.948327418887     0.627624856610     0.673553474451    12.000000000000
           H          1.177531581113     0.937084856610     0.826750474451     1.007825032070
           H          0.553948581113     1.052254856610    -0.793524525549     1.007825032070
           C         -1.676373418887     1.902387856610     0.238344474451    12.000000000000
           H         -1.529184418887    -0.232202143390     0.346263474451     1.007825032070
           H         -0.924520418887     0.579227856610     1.761178474451     1.007825032070
           C         -3.128362418887     1.953077856610     0.718547474451    12.000000000000
           H         -1.655641418887     1.974504856610    -0.848154525549     1.007825032070
           H         -1.152300418887     2.778798856610     0.611913474451     1.007825032070
           C         -3.855491418887     3.227474856610     0.290926474451    12.000000000000
           H         -3.664219418887     1.086812856610     0.336539474451     1.007825032070
           H         -3.151633418887     1.871368856610     1.803290474451     1.007825032070
           H         -3.877916418887     3.321754856610    -0.791123525549     1.007825032070
           H         -4.881961418887     3.232623856610     0.644434474451     1.007825032070
           H         -3.364744418887     4.111526856610     0.688397474451     1.007825032070

  Charge       = 0
  Multiplicity = 1
  Basis Set: 6-31G*
  Basis Set:

    Orbital Energies (a.u.)
    -----------------------

    Doubly Occupied:

       1A    -20.552307     2A    -11.267228     3A    -11.220967
       4A    -11.216375     5A    -11.215963     6A    -11.215326
       7A    -11.215110     8A    -11.214519     9A    -11.209356
      10A     -1.359091    11A     -1.094151    12A     -1.062878
      13A     -1.011544    14A     -0.950538    15A     -0.883679
      16A     -0.819848    17A     -0.791954    18A     -0.790373
      19A     -0.694218    20A     -0.657901    21A     -0.633785
      22A     -0.614430    23A     -0.601299    24A     -0.585096
      25A     -0.577196    26A     -0.554992    27A     -0.534012
      28A     -0.525356    29A     -0.508572    30A     -0.497303
      31A     -0.479595    32A     -0.475983    33A     -0.468987
      34A     -0.459704    35A     -0.457300    36A     -0.443220
      37A     -0.421533

  @DF-RHF Final Energy:  -388.27985925927925

   => Energetics <=

    Nuclear Repulsion Energy =            451.2898918677198594
    One-Electron Energy =               -1420.5762161736931830
    Two-Electron Energy =                 581.0064650466915737
    DFT Exchange-Correlation Energy =       0.0000000000000000
    Empirical Dispersion Energy =           0.0000000000000000
    PCM Polarization Energy =               0.0000000000000000
    EFP Energy =                            0.0000000000000000
    Total Energy =                       -388.2798592592816931

  Mulliken Charges: (a.u.)
   Center  Symbol    Alpha    Beta     Spin     Total
       1     H     0.27989  0.27989  0.00000  0.44022
       2     O     4.37095  4.37095  0.00000 -0.74190
       3     C     2.99739  2.99739  0.00000  0.00522
       4     C     3.16178  3.16178  0.00000 -0.32356
       5     H     0.41434  0.41434  0.00000  0.17131
       6     H     0.43204  0.43204  0.00000  0.13593
       7     C     3.16264  3.16264  0.00000 -0.32528
       8     H     0.41486  0.41486  0.00000  0.17029
       9     H     0.42399  0.42399  0.00000  0.15202
      10     C     3.15202  3.15202  0.00000 -0.30404
      11     H     0.42442  0.42442  0.00000  0.15116
      12     H     0.42479  0.42479  0.00000  0.15041
      13     C     3.15381  3.15381  0.00000 -0.30762
      14     H     0.41986  0.41986  0.00000  0.16027
      15     H     0.42255  0.42255  0.00000  0.15490
      16     C     3.15181  3.15181  0.00000 -0.30361
      17     H     0.42417  0.42417  0.00000  0.15165
      18     H     0.42149  0.42149  0.00000  0.15702
      19     C     3.15201  3.15201  0.00000 -0.30402
      20     H     0.42413  0.42413  0.00000  0.15175
      21     H     0.42297  0.42297  0.00000  0.15405
      22     C     3.23931  3.23931  0.00000 -0.47862
      23     H     0.42318  0.42318  0.00000  0.15363
      24     H     0.42283  0.42283  0.00000  0.15433
      25     H     0.42189  0.42189  0.00000  0.15622
      26     H     0.41921  0.41921  0.00000  0.16157
      27     H     0.42165  0.42165  0.00000  0.15670

   Total alpha = 37.00000, Total beta = 37.00000, Total charge = -0.00000
