  ==> Input File <==

--------------------------------------------------------------------------
set {
	reference rhf
	basis cc-pvtz
}

set_num_threads( 4 )
memory 2 gb

molecule MOL {
0 1

H	 -3.941973	 0.934228	 -0.390224
C	 -3.240162	 0.342701	 0.161016
C	 -2.105997	 -0.000418	 -0.398703
H	 -3.485368	 0.047206	 1.162193
O	 -1.189946	 -0.765863	 0.237511
H	 -1.846458	 0.297311	 -1.398265
C	 0.026572	 -0.995256	 -0.379403
C	 1.057223	 0.049888	 -0.004615
H	 -0.054361	 -1.010670	 -1.459674
H	 0.397526	 -1.952058	 -0.044198
F	 0.462010	 1.214429	 0.158620
F	 1.670235	 -0.246630	 1.121352
F	 1.973730	 0.192706	 -0.930938

	symmetry c1
}
set optking {
	frozen_dihedral = ("
		11 8 7 9
	")
}

ee = optimize('scf')
oeprop('DIPOLE', 'QUADRUPOLE', 'MULLIKEN_CHARGES')
f=open( 'psi4out.xyz', 'w' )
f.write( "13  " )
f.write( str(ee) + "\n" )
f.write( MOL.save_string_xyz() )
f.close()
--------------------------------------------------------------------------

    Molecular point group: c1
  Charge       = 0
  Multiplicity = 1
  Basis Set: CC-PVTZ
  Basis Set:
  @DF-RHF Final Energy:  -527.73835439547554
    Total Energy =                       -527.7383543954751985
    Molecular point group: c1
  Basis Set: CC-PVTZ
  Basis Set:
  Basis Set: CC-PVTZ
  Basis Set:
  @DF-RHF Final Energy:  -527.73907465540242
    Total Energy =                       -527.7390746554024190
  Basis Set: CC-PVTZ
  Basis Set:
  Basis Set: CC-PVTZ
  Basis Set:
  @DF-RHF Final Energy:  -527.73920917490398
    Total Energy =                       -527.7392091749040901
  Basis Set: CC-PVTZ
  Basis Set:
  Basis Set: CC-PVTZ
  Basis Set:
  @DF-RHF Final Energy:  -527.73923155315333
    Total Energy =                       -527.7392315531533313
  Basis Set: CC-PVTZ
  Basis Set:
  Basis Set: CC-PVTZ
  Basis Set:
  @DF-RHF Final Energy:  -527.73923917512832
    Total Energy =                       -527.7392391751278637
  Basis Set: CC-PVTZ
  Basis Set:
  Basis Set: CC-PVTZ
  Basis Set:
  @DF-RHF Final Energy:  -527.73924271299938
    Total Energy =                       -527.7392427129993848
  Basis Set: CC-PVTZ
  Basis Set:
  Basis Set: CC-PVTZ
  Basis Set:
  @DF-RHF Final Energy:  -527.73924386521094
    Total Energy =                       -527.7392438652109377
  Basis Set: CC-PVTZ
  Basis Set:
  Charge       = 0
  Multiplicity = 1
  Basis Set: CC-PVTZ
  Basis Set:

    Orbital Energies (a.u.)
    -----------------------

    Doubly Occupied:

       1A    -26.342891     2A    -26.340671     3A    -26.336213
       4A    -20.604452     5A    -11.498698     6A    -11.319777
       7A    -11.298766     8A    -11.214035     9A     -1.750630
      10A     -1.648592    11A     -1.643281    12A     -1.445236
      13A     -1.086839    14A     -1.020086    15A     -0.932531
      16A     -0.844128    17A     -0.839099    18A     -0.827830
      19A     -0.796451    20A     -0.732249    21A     -0.720573
      22A     -0.704067    23A     -0.680135    24A     -0.669404
      25A     -0.660926    26A     -0.650303    27A     -0.637288
      28A     -0.587503    29A     -0.565408    30A     -0.529960
      31A     -0.517167    32A     -0.356909

  @DF-RHF Final Energy:  -527.73924425481334

   => Energetics <=

    Nuclear Repulsion Energy =            412.9195358254963821
    One-Electron Energy =               -1549.7133594419303790
    Two-Electron Energy =                 609.0545793616206538
    DFT Exchange-Correlation Energy =       0.0000000000000000
    Empirical Dispersion Energy =           0.0000000000000000
    PCM Polarization Energy =               0.0000000000000000
    EFP Energy =                            0.0000000000000000
    Total Energy =                       -527.7392442548134568
    Molecular point group: c1
  Basis Set: CC-PVTZ
  Basis Set:

  -Total Gradient:
     Atom            X                  Y                   Z
    ------   -----------------  -----------------  -----------------
       1        0.000005736801     0.000003666270     0.000002776701
       2        0.000013717687     0.000006950539     0.000002929004
       3       -0.000019190257    -0.000057706070     0.000005534601
       4        0.000002529550     0.000000795308     0.000002773886
       5       -0.000022296291     0.000011545476     0.000012620104
       6        0.000009413987     0.000000865383    -0.000011073937
       7       -0.004543480178     0.004108579858     0.001345614109
       8        0.001686680313     0.000204956145    -0.005406851615
       9        0.003540520980    -0.003565622007    -0.000051835138
      10       -0.000026533226     0.000016622652     0.000002149203
      11       -0.000647854772    -0.000707143917     0.004082861134
      12        0.000033895985    -0.000030733258     0.000004051516
      13       -0.000033140584     0.000007223621     0.000008450433

  **** Optimization is complete! (in 8 steps) ****
    Final optimized geometry and variables:
    Molecular point group: c1

    Geometry (in Angstrom), charge = 0, multiplicity = 1:

    H           -3.966808445146     0.914724881609    -0.382271012514
    C           -3.274516210536     0.302085462954     0.157819804986
    C           -2.110908272919     0.020382328167    -0.374879423343
    H           -3.552168033342    -0.062253594001     1.127370059221
    O           -1.200192855077    -0.759059396353     0.251975405457
    H           -1.819518996232     0.386605386170    -1.342463105355
    C            0.010060004434    -0.988007848891    -0.370913505839
    C            1.064835166732     0.054280960380    -0.017362313098
    H           -0.063064693831    -1.047435128302    -1.449964447746
    H            0.383589782704    -1.939113503244    -0.021654166864
    F            0.555240104987     1.256821771289     0.108819482674
    F            1.661712620294    -0.233069885534     1.120168696079
    F            1.994552280765     0.094097079550    -0.949023982955

  Mulliken Charges: (a.u.)
   Center  Symbol    Alpha    Beta     Spin     Total
       1     H     0.42528  0.42528  0.00000  0.14944
       2     C     3.19696  3.19696  0.00000 -0.39392
       3     C     2.95613  2.95613  0.00000  0.08775
       4     H     0.42500  0.42500  0.00000  0.15000
       5     O     4.14231  4.14231  0.00000 -0.28462
       6     H     0.43484  0.43484  0.00000  0.13032
       7     C     3.02804  3.02804  0.00000 -0.05608
       8     C     2.67229  2.67229  0.00000  0.65543
       9     H     0.45535  0.45535  0.00000  0.08931
      10     H     0.43656  0.43656  0.00000  0.12688
      11     F     4.60602  4.60602  0.00000 -0.21204
      12     F     4.60973  4.60973  0.00000 -0.21947
      13     F     4.61150  4.61150  0.00000 -0.22299

   Total alpha = 32.00000, Total beta = 32.00000, Total charge = -0.00000
