                              Psi4 1.0.54 Driver

  ==> Input File <==

--------------------------------------------------------------------------
set {
	reference rhf
	basis cc-pvtz
}

set_num_threads( 4 )
memory 2 gb

molecule MOL {
0 1

O	 0.623971	 1.347241	 -0.000777
C	 0.485107	 0.171416	 -0.000134
C	 1.606966	 -0.836201	 0.000174
O	 -0.695554	 -0.422406	 0.000602
C	 2.988788	 -0.202529	 -0.000115
H	 1.465110	 -1.474645	 -0.864821
H	 1.465209	 -1.474077	 0.865596
H	 3.131767	 0.419673	 -0.873407
H	 3.750876	 -0.972315	 0.000098
H	 3.131883	 0.420264	 0.872742
C	 -1.843858	 0.385060	 -0.217761
C	 -3.056448	 -0.515009	 -0.173172
H	 -1.751246	 0.879041	 -1.174710
H	 -1.888484	 1.149216	 0.545389
H	 -3.000178	 -1.276496	 -0.940859
H	 -3.953026	 0.071164	 -0.336819
H	 -3.138253	 -1.004736	 0.789038

	symmetry c1
}
set optking {
	frozen_dihedral = ("
		11 4 2 3
	")
}

ee,wfn = optimize('scf', return_wfn=True)
oeprop( wfn, 'DIPOLE', 'QUADRUPOLE', 'MULLIKEN_CHARGES')
f=open( 'psi4out.xyz', 'w' )
f.write( "17  " )
f.write( str(ee) + "\n" )
f.write( MOL.save_string_xyz() )
f.close()
--------------------------------------------------------------------------

    Molecular point group: c1
  Charge       = 0
  Multiplicity = 1
  Basis Set: CC-PVTZ
  Basis Set:
  @DF-RHF Final Energy:  -345.04004190126489
    Total Energy =                       -345.0400419012645443
    Molecular point group: c1
  Basis Set: CC-PVTZ
  Basis Set:
  Basis Set: CC-PVTZ
  Basis Set:
  @DF-RHF Final Energy:  -345.03903337490954
    Total Energy =                       -345.0390333749091383
  Basis Set: CC-PVTZ
  Basis Set:
  Basis Set: CC-PVTZ
  Basis Set:
  @DF-RHF Final Energy:  -345.04010501667119
    Total Energy =                       -345.0401050166711343
  Basis Set: CC-PVTZ
  Basis Set:
  Basis Set: CC-PVTZ
  Basis Set:
  @DF-RHF Final Energy:  -345.04013804981577
    Total Energy =                       -345.0401380498161075
  Basis Set: CC-PVTZ
  Basis Set:
  Basis Set: CC-PVTZ
  Basis Set:
  @DF-RHF Final Energy:  -345.04015435553310
    Total Energy =                       -345.0401543555327635
  Basis Set: CC-PVTZ
  Basis Set:
  Basis Set: CC-PVTZ
  Basis Set:
  @DF-RHF Final Energy:  -345.04015973373902
    Total Energy =                       -345.0401597337388466
  Basis Set: CC-PVTZ
  Basis Set:
  Charge       = 0
  Multiplicity = 1
  Basis Set: CC-PVTZ
  Basis Set:

    Orbital Energies (a.u.)
    -----------------------

    Doubly Occupied:

       1A    -20.593091     2A    -20.533061     3A    -11.363579
       4A    -11.282774     5A    -11.235971     6A    -11.220408
       7A    -11.213927     8A     -1.470205     9A     -1.364940
      10A     -1.070832    11A     -1.032640    12A     -0.911787
      13A     -0.848018    14A     -0.774778    15A     -0.698208
      16A     -0.692016    17A     -0.667946    18A     -0.630316
      19A     -0.584531    20A     -0.574308    21A     -0.558421
      22A     -0.525000    23A     -0.520591    24A     -0.514806
      25A     -0.505638    26A     -0.493932    27A     -0.456033
      28A     -0.439144

  @DF-RHF Final Energy:  -345.04016010400102

   => Energetics <=

    Nuclear Repulsion Energy =            315.2019695566415862
    One-Electron Energy =               -1094.9304607813971870
    Two-Electron Energy =                 434.6883311207544125
    DFT Exchange-Correlation Energy =       0.0000000000000000
    Empirical Dispersion Energy =           0.0000000000000000
    PCM Polarization Energy =               0.0000000000000000
    EFP Energy =                            0.0000000000000000
    Total Energy =                       -345.0401601040011315
    Molecular point group: c1
  Basis Set: CC-PVTZ
  Basis Set:

  -Total Gradient:
     Atom            X                  Y                   Z
    ------   -----------------  -----------------  -----------------
       1        0.000042167793    -0.000008528926     0.000008640617
       2        0.000221573575     0.000001536431     0.001783302634
       3       -0.000066510892    -0.000108297149    -0.002089233858
       4       -0.000297531549     0.000605572556     0.002571255484
       5       -0.000017680646    -0.000001266755     0.000005277246
       6       -0.000009579898     0.000005315102     0.000005558029
       7       -0.000001230870     0.000004224682    -0.000002194285
       8       -0.000001236376     0.000000316242     0.000001820479
       9       -0.000010702941     0.000001650028    -0.000002647613
      10       -0.000002293811     0.000002012597    -0.000002176398
      11        0.000125179939    -0.000479160331    -0.002282536763
      12        0.000001022999    -0.000013762653     0.000001326618
      13        0.000013493685     0.000000052700    -0.000000687591
      14        0.000003637698    -0.000004550203    -0.000002523417
      15       -0.000003792312    -0.000001367125     0.000002123812
      16        0.000006911493     0.000001033446     0.000000943921
      17       -0.000003427889    -0.000004780639     0.000001751083

  **** Optimization is complete! (in 7 steps) ****
    Final optimized geometry and variables:
    Molecular point group: c1

    Geometry (in Angstrom), charge = 0, multiplicity = 1:

    O            0.625275382070     1.350028045154    -0.068523854879
    C            0.484523236505     0.178458796636     0.026956500818
    C            1.603723780114    -0.831617057453     0.045537209267
    O           -0.697600564004    -0.410050213442     0.094282356866
    C            2.985990466131    -0.202540870685     0.113738682053
    H            1.490865428959    -1.433793233186    -0.850010262485
    H            1.430646385932    -1.503260761767     0.878300822789
    H            3.157618394582     0.452005608838    -0.729757161068
    H            3.746422321796    -0.973911910385     0.110339312443
    H            3.102152841634     0.385981648584     1.014443036110
    C           -1.849860258254     0.389954897755    -0.130876446116
    C           -3.058679944533    -0.514303734985    -0.071095769293
    H           -1.760141788630     0.870168317571    -1.095439376409
    H           -1.897339786332     1.164920570845     0.620769733180
    H           -3.001286542384    -1.286663833279    -0.827758621243
    H           -3.957994513186     0.065961431752    -0.240622471936
    H           -3.136018745875    -0.990274887848     0.898340248808

  Mulliken Charges: (a.u.)
   Center  Symbol    Alpha    Beta     Spin     Total
       1     O     4.19640  4.19640  0.00000 -0.39281
       2     C     2.80950  2.80950  0.00000  0.38100
       3     C     3.09285  3.09285  0.00000 -0.18570
       4     O     4.15156  4.15156  0.00000 -0.30312
       5     C     3.13999  3.13999  0.00000 -0.27998
       6     H     0.44325  0.44325  0.00000  0.11350
       7     H     0.44042  0.44042  0.00000  0.11916
       8     H     0.44697  0.44697  0.00000  0.10606
       9     H     0.45052  0.45052  0.00000  0.09896
      10     H     0.44972  0.44972  0.00000  0.10056
      11     C     2.98020  2.98020  0.00000  0.03960
      12     C     3.13310  3.13310  0.00000 -0.26620
      13     H     0.45582  0.45582  0.00000  0.08837
      14     H     0.45239  0.45239  0.00000  0.09522
      15     H     0.45179  0.45179  0.00000  0.09642
      16     H     0.45452  0.45452  0.00000  0.09096
      17     H     0.45100  0.45100  0.00000  0.09800

   Total alpha = 28.00000, Total beta = 28.00000, Total charge = -0.00000

*** Psi4 exiting successfully. Buy a developer a beer!
