  ==> Input File <==

--------------------------------------------------------------------------
set {
	reference rhf
	basis 6-31G*
}

set_num_threads( 4 )
memory 2 gb

molecule MOL {
0 1

H	 -1.886206	 1.845660	 -1.027301
C	 -1.201332	 2.258809	 -0.296821
C	 0.128618	 1.514662	 -0.312259
H	 -1.676023	 2.185849	 0.674069
H	 -1.049050	 3.308460	 -0.525556
C	 -0.000005	 0.033229	 -0.000001
H	 0.822275	 1.949131	 0.405007
H	 0.614002	 1.611968	 -1.281449
C	 1.290528	 -0.768786	 0.000276
O	 -1.055461	 -0.472039	 0.232164
C	 2.545731	 0.095645	 -0.000061
H	 1.275672	 -1.427874	 -0.865626
H	 1.275566	 -1.427086	 0.866768
H	 2.577157	 0.734767	 -0.874036
H	 3.433520	 -0.528139	 0.000137
H	 2.577172	 0.735117	 0.873581

	symmetry c1
}
set optking {
	frozen_dihedral = ("
		3 6 9 12
	")
}

ee = optimize('scf')
oeprop('DIPOLE', 'QUADRUPOLE', 'MULLIKEN_CHARGES')
f=open( 'psi4out.xyz', 'w' )
f.write( "16  " )
f.write( str(ee) + "\n" )
f.write( MOL.save_string_xyz() )
f.close()
--------------------------------------------------------------------------

    Molecular point group: c1
  Charge       = 0
  Multiplicity = 1
  Basis Set: 6-31G*
  Basis Set:
  @DF-RHF Final Energy:  -270.02615563690426
    Total Energy =                       -270.0261556369041500
    Molecular point group: c1
  Basis Set: 6-31G*
  Basis Set:
  Basis Set: 6-31G*
  Basis Set:
  @DF-RHF Final Energy:  -270.02758497917137
    Total Energy =                       -270.0275849791713654
  Basis Set: 6-31G*
  Basis Set:
  Basis Set: 6-31G*
  Basis Set:
  @DF-RHF Final Energy:  -270.02883495756146
    Total Energy =                       -270.0288349575614575
  Basis Set: 6-31G*
  Basis Set:
  Basis Set: 6-31G*
  Basis Set:
  @DF-RHF Final Energy:  -270.02892893346041
    Total Energy =                       -270.0289289334603495
  Basis Set: 6-31G*
  Basis Set:
  Basis Set: 6-31G*
  Basis Set:
  @DF-RHF Final Energy:  -270.02888962231572
    Total Energy =                       -270.0288896223160009
  Basis Set: 6-31G*
  Basis Set:
  Basis Set: 6-31G*
  Basis Set:
  @DF-RHF Final Energy:  -270.02901286014776
    Total Energy =                       -270.0290128601478727
  Basis Set: 6-31G*
  Basis Set:
  Charge       = 0
  Multiplicity = 1
  Basis Set: 6-31G*
  Basis Set:

    Orbital Energies (a.u.)
    -----------------------

    Doubly Occupied:

       1A    -20.546223     2A    -11.324086     3A    -11.233711
       4A    -11.233491     5A    -11.227796     6A    -11.212612
       7A     -1.393413     8A     -1.071778     9A     -1.035090
      10A     -0.906920    11A     -0.867227    12A     -0.721753
      13A     -0.654884    14A     -0.646708    15A     -0.629501
      16A     -0.609097    17A     -0.552604    18A     -0.541596
      19A     -0.536155    20A     -0.510439    21A     -0.506630
      22A     -0.502409    23A     -0.470899    24A     -0.396097

  @DF-RHF Final Energy:  -270.02901316046825

   => Energetics <=

    Nuclear Repulsion Energy =            240.3999121711705413
    One-Electron Energy =                -842.1956115946821910
    Two-Electron Energy =                 331.7666862630433116
    DFT Exchange-Correlation Energy =       0.0000000000000000
    Empirical Dispersion Energy =           0.0000000000000000
    PCM Polarization Energy =               0.0000000000000000
    EFP Energy =                            0.0000000000000000
    Total Energy =                       -270.0290131604683666
    Molecular point group: c1
  Basis Set: 6-31G*
  Basis Set:

  -Total Gradient:
     Atom            X                  Y                   Z
    ------   -----------------  -----------------  -----------------
       1       -0.000006119143    -0.000001755692    -0.000008191575
       2       -0.000005285276    -0.000007283913     0.000044825359
       3        0.000108552791     0.000144194668     0.000719728986
       4       -0.000005510004     0.000002181777    -0.000003551420
       5        0.000006462656    -0.000007855998     0.000000384225
       6       -0.000247039070    -0.000403755225    -0.001064211023
       7        0.000011716555    -0.000023846557     0.000021866870
       8       -0.000006456691     0.000017916599     0.000007590424
       9        0.000624055236     0.000986503307    -0.000306296469
      10       -0.000010830057     0.000018729805    -0.000003259048
      11        0.000008986729     0.000002503044     0.000006989420
      12       -0.000490661378    -0.000742192967     0.000581971288
      13       -0.000009716155     0.000008615223    -0.000007629371
      14        0.000014550662    -0.000009351155     0.000006721186
      15        0.000003073698     0.000002051042     0.000002354946
      16        0.000004219446     0.000013346044     0.000000706199

  **** Optimization is complete! (in 7 steps) ****
    Final optimized geometry and variables:
    Molecular point group: c1

    Geometry (in Angstrom), charge = 0, multiplicity = 1:

    H           -2.228135206027     1.335791649326    -0.982701191070
    C           -1.571715253822     1.784038344608    -0.246955064799
    C           -0.205012510548     1.109856292707    -0.249821417457
    H           -2.050471871373     1.687128739338     0.719624016652
    H           -1.470736058117     2.839986390067    -0.475495380485
    C           -0.268138680344    -0.373205029430     0.065673093306
    H            0.458307286452     1.582718824341     0.470687016534
    H            0.282155437366     1.231021410422    -1.215419325377
    C            1.015635809760    -1.197969485195     0.062420089259
    O           -1.305245032430    -0.914719913851     0.302941021862
    C            2.349868440341    -0.452537153411     0.063196317509
    H            0.950025878110    -1.849050804946    -0.806360785282
    H            0.950280211483    -1.855912211779     0.922394145112
    H            2.471266030629     0.174054870013    -0.813642105908
    H            3.167645186242    -1.164950472317     0.068977675148
    H            2.460240860931     0.175360895556     0.941423240791

  Mulliken Charges: (a.u.)
   Center  Symbol    Alpha    Beta     Spin     Total
       1     H     0.41066  0.41066  0.00000  0.17868
       2     C     3.23388  3.23388  0.00000 -0.46777
       3     C     3.21100  3.21100  0.00000 -0.42201
       4     H     0.41015  0.41015  0.00000  0.17969
       5     H     0.42060  0.42060  0.00000  0.15880
       6     C     2.73722  2.73722  0.00000  0.52556
       7     H     0.40714  0.40714  0.00000  0.18572
       8     H     0.40873  0.40873  0.00000  0.18254
       9     C     3.20022  3.20022  0.00000 -0.40044
      10     O     4.26600  4.26600  0.00000 -0.53200
      11     C     3.24965  3.24965  0.00000 -0.49929
      12     H     0.40138  0.40138  0.00000  0.19724
      13     H     0.39857  0.39857  0.00000  0.20286
      14     H     0.41698  0.41698  0.00000  0.16604
      15     H     0.41134  0.41134  0.00000  0.17732
      16     H     0.41647  0.41647  0.00000  0.16706

   Total alpha = 24.00000, Total beta = 24.00000, Total charge = -0.00000
