                              Psi4 1.0.54 Driver

  ==> Input File <==

--------------------------------------------------------------------------
set {
	reference rhf
	basis cc-pvtz
}

set_num_threads( 4 )
memory 2 gb

molecule MOL {
0 1

H	 -3.144994	 -1.202467	 -0.018751
O	 -2.321472	 -0.864941	 -0.318626
C	 -2.021813	 0.336996	 0.342658
C	 -0.669613	 0.837286	 -0.127252
H	 -2.780861	 1.084746	 0.127159
H	 -2.006390	 0.184138	 1.420053
C	 0.490865	 -0.082543	 0.241244
H	 -0.708709	 0.967192	 -1.204587
H	 -0.507562	 1.822272	 0.303070
C	 1.839800	 0.429565	 -0.255472
H	 0.305636	 -1.070211	 -0.165276
H	 0.527397	 -0.195943	 1.322876
C	 1.745842	 1.165959	 -1.587644
H	 2.268116	 1.092093	 0.491727
H	 2.529980	 -0.404530	 -0.353589
H	 1.089801	 2.026685	 -1.512304
H	 2.718380	 1.518463	 -1.912013
H	 1.352332	 0.519602	 -2.365344

	symmetry c1
}
set optking {
	frozen_dihedral = ("
		14 10 7 11
	")
}

ee,wfn = optimize('scf', return_wfn=True)
oeprop( wfn, 'DIPOLE', 'QUADRUPOLE', 'MULLIKEN_CHARGES')
f=open( 'psi4out.xyz', 'w' )
f.write( "18  " )
f.write( str(ee) + "\n" )
f.write( MOL.save_string_xyz() )
f.close()
--------------------------------------------------------------------------

    Molecular point group: c1
  Charge       = 0
  Multiplicity = 1
  Basis Set: CC-PVTZ
  Basis Set:
  @DF-RHF Final Energy:  -271.27921245726583
    Total Energy =                       -271.2792124572658850
    Molecular point group: c1
  Basis Set: CC-PVTZ
  Basis Set:
  Basis Set: CC-PVTZ
  Basis Set:
  @DF-RHF Final Energy:  -271.27966512020521
    Total Energy =                       -271.2796651202053226
  Basis Set: CC-PVTZ
  Basis Set:
  Basis Set: CC-PVTZ
  Basis Set:
  @DF-RHF Final Energy:  -271.28201983682936
    Total Energy =                       -271.2820198368290221
  Basis Set: CC-PVTZ
  Basis Set:
  Basis Set: CC-PVTZ
  Basis Set:
  @DF-RHF Final Energy:  -271.28216814597175
    Total Energy =                       -271.2821681459721503
  Basis Set: CC-PVTZ
  Basis Set:
  Basis Set: CC-PVTZ
  Basis Set:
  @DF-RHF Final Energy:  -271.28218434772236
    Total Energy =                       -271.2821843477220796
  Basis Set: CC-PVTZ
  Basis Set:
  Basis Set: CC-PVTZ
  Basis Set:
  @DF-RHF Final Energy:  -271.28218593157681
    Total Energy =                       -271.2821859315768052
  Basis Set: CC-PVTZ
  Basis Set:
  Charge       = 0
  Multiplicity = 1
  Basis Set: CC-PVTZ
  Basis Set:

    Orbital Energies (a.u.)
    -----------------------

    Doubly Occupied:

       1A    -20.546017     2A    -11.265779     3A    -11.210151
       4A    -11.209550     5A    -11.205247     6A    -11.202776
       7A     -1.363939     8A     -1.074925     9A     -1.006970
      10A     -0.916551    11A     -0.833621    12A     -0.768047
      13A     -0.707333    14A     -0.643615    15A     -0.615961
      16A     -0.603794    17A     -0.562727    18A     -0.554785
      19A     -0.528998    20A     -0.508739    21A     -0.490563
      22A     -0.463789    23A     -0.451766    24A     -0.449919
      25A     -0.429990

  @DF-RHF Final Energy:  -271.28218628202524

   => Energetics <=

    Nuclear Repulsion Energy =            252.3717438426720889
    One-Electron Energy =                -868.0767569693115320
    Two-Electron Energy =                 344.4228268446140646
    DFT Exchange-Correlation Energy =       0.0000000000000000
    Empirical Dispersion Energy =           0.0000000000000000
    PCM Polarization Energy =               0.0000000000000000
    EFP Energy =                            0.0000000000000000
    Total Energy =                       -271.2821862820253500
    Molecular point group: c1
  Basis Set: CC-PVTZ
  Basis Set:

  -Total Gradient:
     Atom            X                  Y                   Z
    ------   -----------------  -----------------  -----------------
       1        0.000005159888     0.000004320325     0.000003047539
       2        0.000013013932     0.000001674759     0.000011673368
       3       -0.000014107154     0.000021846578    -0.000019515047
       4        0.000000289027     0.000004131358     0.000017260183
       5       -0.000001144518    -0.000005905950     0.000002659680
       6       -0.000001405663    -0.000008648870    -0.000012028309
       7       -0.002252625071     0.001987496333    -0.004956850539
       8       -0.000000456688    -0.000001159044     0.000008502665
       9       -0.000006432387     0.000003731331     0.000004582297
      10       -0.002445174964     0.004832840943    -0.001856202971
      11        0.002298983310    -0.002441290541     0.004455829582
      12        0.000000101816     0.000000457485    -0.000007336351
      13        0.000000743898     0.000008692058    -0.000007951607
      14        0.002414265110    -0.004405863737     0.002354032895
      15       -0.000003143521     0.000004008735     0.000006041347
      16        0.000003119939    -0.000003980494    -0.000005163717
      17       -0.000015498624    -0.000000403365     0.000005876459
      18        0.000004311665    -0.000001947903    -0.000004457474

  **** Optimization is complete! (in 7 steps) ****
    Final optimized geometry and variables:
    Molecular point group: c1

    Geometry (in Angstrom), charge = 0, multiplicity = 1:

    H           -2.949445070256    -1.523909206426     0.353326391697
    O           -2.147515769800    -1.167274258894     0.019251314423
    C           -1.831070517312     0.023869253782     0.692004823840
    C           -0.517135619337     0.560695956085     0.157085307763
    H           -2.613955328308     0.762356247722     0.538564630204
    H           -1.751114739524    -0.154439032548     1.762486241099
    C            0.669011123194    -0.356778991360     0.438286625895
    H           -0.629407357326     0.724209431111    -0.908441333273
    H           -0.344667059208     1.534041538464     0.610406367878
    C            2.047105907385     0.186281439150     0.029807065336
    H            0.509758523374    -1.329108637441    -0.012109663171
    H            0.699949205245    -0.552244697859     1.508164169995
    C            2.115908879204     0.900515063162    -1.316153307463
    H            2.435494158835     0.823675779665     0.819284737878
    H            2.731969238393    -0.656703677870     0.002468889664
    H            1.538558393633     1.817099497866    -1.321349106751
    H            3.140861850674     1.159258006096    -1.556108534602
    H            1.740215345119     0.268743062600    -2.114495290824

  Mulliken Charges: (a.u.)
   Center  Symbol    Alpha    Beta     Spin     Total
       1     H     0.39574  0.39574  0.00000  0.20852
       2     O     4.19869  4.19869  0.00000 -0.39738
       3     C     2.97522  2.97522  0.00000  0.04956
       4     C     3.09373  3.09373  0.00000 -0.18745
       5     H     0.46551  0.46551  0.00000  0.06898
       6     H     0.47314  0.47314  0.00000  0.05373
       7     C     3.09405  3.09405  0.00000 -0.18809
       8     H     0.44943  0.44943  0.00000  0.10114
       9     H     0.45285  0.45285  0.00000  0.09429
      10     C     3.08912  3.08912  0.00000 -0.17824
      11     H     0.44220  0.44220  0.00000  0.11560
      12     H     0.45709  0.45709  0.00000  0.08583
      13     C     3.15595  3.15595  0.00000 -0.31189
      14     H     0.45418  0.45418  0.00000  0.09165
      15     H     0.45182  0.45182  0.00000  0.09635
      16     H     0.45329  0.45329  0.00000  0.09342
      17     H     0.44629  0.44629  0.00000  0.10741
      18     H     0.45171  0.45171  0.00000  0.09657

   Total alpha = 25.00000, Total beta = 25.00000, Total charge =  0.00000

*** Psi4 exiting successfully. Buy a developer a beer!
