                              Psi4 1.0.54 Driver

  ==> Input File <==

--------------------------------------------------------------------------
set {
	reference rhf
	basis cc-pvtz
}

set_num_threads( 4 )
memory 2 gb

molecule MOL {
0 1

H	 -2.123894	 -0.667238	 -0.609809
O	 -2.041679	 -0.058866	 0.103463
C	 -0.959304	 0.780994	 -0.094939
C	 0.354905	 0.037902	 -0.006215
H	 -0.985899	 1.279578	 -1.057596
H	 -0.969809	 1.529522	 0.682889
F	 0.660829	 -0.234023	 1.250072
F	 0.278135	 -1.106001	 -0.653663
F	 1.353028	 0.720780	 -0.513560

	symmetry c1
}
set optking {
	frozen_dihedral = ("
		7 4 3 5
	")
}

ee,wfn = optimize('scf', return_wfn=True)
oeprop( wfn, 'DIPOLE', 'QUADRUPOLE', 'MULLIKEN_CHARGES')
f=open( 'psi4out.xyz', 'w' )
f.write( "9  " )
f.write( str(ee) + "\n" )
f.write( MOL.save_string_xyz() )
f.close()
--------------------------------------------------------------------------

    Molecular point group: c1
  Charge       = 0
  Multiplicity = 1
  Basis Set: CC-PVTZ
  Basis Set:
  @DF-RHF Final Energy:  -450.84579182077721
    Total Energy =                       -450.8457918207773218
    Molecular point group: c1
  Basis Set: CC-PVTZ
  Basis Set:
  Basis Set: CC-PVTZ
  Basis Set:
  @DF-RHF Final Energy:  -450.84625930865070
    Total Energy =                       -450.8462593086508150
  Basis Set: CC-PVTZ
  Basis Set:
  Basis Set: CC-PVTZ
  Basis Set:
  @DF-RHF Final Energy:  -450.84637262382034
    Total Energy =                       -450.8463726238201161
  Basis Set: CC-PVTZ
  Basis Set:
  Basis Set: CC-PVTZ
  Basis Set:
  @DF-RHF Final Energy:  -450.84638253489487
    Total Energy =                       -450.8463825348947012
  Basis Set: CC-PVTZ
  Basis Set:
  Charge       = 0
  Multiplicity = 1
  Basis Set: CC-PVTZ
  Basis Set:

    Orbital Energies (a.u.)
    -----------------------

    Doubly Occupied:

       1A    -26.341765     2A    -26.338375     3A    -26.335986
       4A    -20.584092     5A    -11.494473     6A    -11.309844
       7A     -1.748291     8A     -1.646034     9A     -1.642534
      10A     -1.407819    11A     -1.050095    12A     -0.930295
      13A     -0.838478    14A     -0.836069    15A     -0.813421
      16A     -0.730677    17A     -0.719438    18A     -0.704152
      19A     -0.672556    20A     -0.666236    21A     -0.649524
      22A     -0.632771    23A     -0.620473    24A     -0.532766
      25A     -0.484887

  @DF-RHF Final Energy:  -450.84638320148571

   => Energetics <=

    Nuclear Repulsion Energy =            277.5092481311655206
    One-Electron Energy =               -1177.2491637156547313
    Two-Electron Energy =                 448.8935323830034463
    DFT Exchange-Correlation Energy =       0.0000000000000000
    Empirical Dispersion Energy =           0.0000000000000000
    PCM Polarization Energy =               0.0000000000000000
    EFP Energy =                            0.0000000000000000
    Total Energy =                       -450.8463832014857076
    Molecular point group: c1
  Basis Set: CC-PVTZ
  Basis Set:

  -Total Gradient:
     Atom            X                  Y                   Z
    ------   -----------------  -----------------  -----------------
       1        0.000015484755    -0.000000687607    -0.000015272334
       2        0.000092511911     0.000105019602    -0.000004568741
       3       -0.001289162824    -0.002733674545    -0.001723078043
       4       -0.001548037587    -0.002968605598    -0.000019069721
       5        0.001422852548     0.002828058611     0.001459862577
       6        0.000006088248    -0.000003518227     0.000028872667
       7        0.001402412702     0.002681238204     0.000372778629
       8       -0.000055312183     0.000078013609    -0.000073651322
       9       -0.000046837573     0.000014155947    -0.000025873713

  **** Optimization is complete! (in 5 steps) ****
    Final optimized geometry and variables:
    Molecular point group: c1

    Geometry (in Angstrom), charge = 0, multiplicity = 1:

    H           -2.107256030066    -0.712259141742    -0.602758648370
    O           -2.051865134057    -0.070327327586     0.083063160532
    C           -0.969660602836     0.765785681400    -0.119131068087
    C            0.353688675513     0.035905764622    -0.005024755972
    H           -0.984061739875     1.272776960698    -1.077565643460
    H           -0.987298371056     1.521264900173     0.652408213414
    F            0.661244372462    -0.254916500555     1.237794487967
    F            0.345072667678    -1.089343586681    -0.692436119402
    F            1.326594925065     0.786661095211    -0.482340373392

  Mulliken Charges: (a.u.)
   Center  Symbol    Alpha    Beta     Spin     Total
       1     H     0.38585  0.38585  0.00000  0.22831
       2     O     4.19157  4.19157  0.00000 -0.38315
       3     C     2.99288  2.99288  0.00000  0.01423
       4     C     2.68201  2.68201  0.00000  0.63598
       5     H     0.46263  0.46263  0.00000  0.07473
       6     H     0.44834  0.44834  0.00000  0.10331
       7     F     4.60833  4.60833  0.00000 -0.21667
       8     F     4.61566  4.61566  0.00000 -0.23132
       9     F     4.61271  4.61271  0.00000 -0.22542

   Total alpha = 25.00000, Total beta = 25.00000, Total charge = -0.00000

*** Psi4 exiting successfully. Buy a developer a beer!
