                              Psi4 1.0.54 Driver

  ==> Input File <==

--------------------------------------------------------------------------
set {
	reference rhf
	basis cc-pvtz
}

set_num_threads( 4 )
memory 2 gb

molecule MOL {
0 1

H	 -3.212708	 1.454216	 -0.276838
C	 -2.619647	 2.108123	 0.358432
O	 -1.267755	 2.023381	 0.053888
H	 -2.932204	 3.129046	 0.194382
H	 -2.812915	 1.846144	 1.397132
C	 -0.718530	 0.758693	 0.228682
C	 0.718529	 0.758687	 -0.228709
H	 -0.754222	 0.473836	 1.280135
H	 -1.274477	 0.015752	 -0.339114
O	 1.401606	 -0.295166	 0.366636
H	 0.748705	 0.673477	 -1.312803
H	 1.176496	 1.708671	 0.046552
C	 2.714315	 -0.441627	 -0.061017
H	 2.765292	 -0.641548	 -1.128869
H	 3.305661	 0.447341	 0.150952
H	 3.143725	 -1.278506	 0.470147

	symmetry c1
}
set optking {
	frozen_dihedral = ("
		3 6 7 11
	")
}

ee,wfn = optimize('scf', return_wfn=True)
oeprop( wfn, 'DIPOLE', 'QUADRUPOLE', 'MULLIKEN_CHARGES')
f=open( 'psi4out.xyz', 'w' )
f.write( "16  " )
f.write( str(ee) + "\n" )
f.write( MOL.save_string_xyz() )
f.close()
--------------------------------------------------------------------------

    Molecular point group: c1
  Charge       = 0
  Multiplicity = 1
  Basis Set: CC-PVTZ
  Basis Set:
  @DF-RHF Final Energy:  -307.09762677711359
    Total Energy =                       -307.0976267771134758
    Molecular point group: c1
  Basis Set: CC-PVTZ
  Basis Set:
  Basis Set: CC-PVTZ
  Basis Set:
  @DF-RHF Final Energy:  -307.09808783623760
    Total Energy =                       -307.0980878362374824
  Basis Set: CC-PVTZ
  Basis Set:
  Basis Set: CC-PVTZ
  Basis Set:
  @DF-RHF Final Energy:  -307.09814981451063
    Total Energy =                       -307.0981498145106343
  Basis Set: CC-PVTZ
  Basis Set:
  Charge       = 0
  Multiplicity = 1
  Basis Set: CC-PVTZ
  Basis Set:

    Orbital Energies (a.u.)
    -----------------------

    Doubly Occupied:

       1A    -20.552390     2A    -20.551952     3A    -11.266131
       4A    -11.265441     5A    -11.264526     6A    -11.264380
       7A     -1.391857     8A     -1.380502     9A     -1.031006
      10A     -0.941862    11A     -0.883479    12A     -0.831920
      13A     -0.693722    14A     -0.676263    15A     -0.661119
      16A     -0.649632    17A     -0.622345    18A     -0.601000
      19A     -0.573891    20A     -0.519829    21A     -0.509091
      22A     -0.484679    23A     -0.468067    24A     -0.421376
      25A     -0.420158

  @DF-RHF Final Energy:  -307.09815273172114

   => Energetics <=

    Nuclear Repulsion Energy =            255.0254680528469464
    One-Electron Energy =                -924.3940091853853573
    Two-Electron Energy =                 362.2703884008170689
    DFT Exchange-Correlation Energy =       0.0000000000000000
    Empirical Dispersion Energy =           0.0000000000000000
    PCM Polarization Energy =               0.0000000000000000
    EFP Energy =                            0.0000000000000000
    Total Energy =                       -307.0981527317213704
    Molecular point group: c1
  Basis Set: CC-PVTZ
  Basis Set:

  -Total Gradient:
     Atom            X                  Y                   Z
    ------   -----------------  -----------------  -----------------
       1       -0.000015595083     0.000009947592    -0.000010504993
       2       -0.000008126351    -0.000098708908     0.000030733532
       3        0.000829497251     0.000834025437     0.002478325734
       4        0.000075295687    -0.000014514387    -0.000015684403
       5       -0.000013962345     0.000014202801     0.000014282004
       6       -0.001069050345    -0.001840221852    -0.003112211260
       7        0.000255626798     0.004521973229     0.000342585566
       8        0.000033377262    -0.000028312532    -0.000008589259
       9        0.000005510790    -0.000005202946     0.000000099079
      10       -0.000107655521     0.000075899504    -0.000003696116
      11        0.000107239389    -0.003524049286     0.000309151156
      12       -0.000069612832     0.000002776009     0.000004334720
      13        0.000045186077     0.000047616156    -0.000045048034
      14        0.000001534587    -0.000010530885    -0.000009613553
      15        0.000003557519    -0.000005970639     0.000010413180
      16       -0.000072822884     0.000021070708     0.000015422645

  **** Optimization is complete! (in 4 steps) ****
    Final optimized geometry and variables:
    Molecular point group: c1

    Geometry (in Angstrom), charge = 0, multiplicity = 1:

    H           -3.258163204088     0.646234626467    -0.368644247316
    C           -2.638185267717     1.319310385174     0.219226308727
    O           -1.295826135234     1.200730708292    -0.118284123556
    H           -2.941002195572     2.336486765589     0.017937036731
    H           -2.803005582831     1.106340016683     1.273092667597
    C           -0.757201994785    -0.063407970973     0.103711276213
    C            0.687178336210    -0.054109039557    -0.354285123093
    H           -0.783493286642    -0.309477309739     1.162384934054
    H           -1.321739161538    -0.825862193369    -0.428087714084
    O            1.336886042063    -1.123553568704     0.259090267647
    H            0.743067415247    -0.166586765253    -1.434890448380
    H            1.144694656933     0.891590934428    -0.078281770860
    C            2.665433334371    -1.278558289766    -0.115608139485
    H            2.759216482189    -1.467707521453    -1.182695156876
    H            3.253411522774    -0.397060611027     0.130061772294
    H            3.064684480566    -2.124788460378     0.424203317359

  Mulliken Charges: (a.u.)
   Center  Symbol    Alpha    Beta     Spin     Total
       1     H     0.47091  0.47091  0.00000  0.05817
       2     C     3.03054  3.03054  0.00000 -0.06109
       3     O     4.17525  4.17525  0.00000 -0.35050
       4     H     0.44685  0.44685  0.00000  0.10630
       5     H     0.47087  0.47087  0.00000  0.05826
       6     C     2.96379  2.96379  0.00000  0.07242
       7     C     2.96414  2.96414  0.00000  0.07172
       8     H     0.46970  0.46970  0.00000  0.06060
       9     H     0.47198  0.47198  0.00000  0.05605
      10     O     4.17568  4.17568  0.00000 -0.35136
      11     H     0.47244  0.47244  0.00000  0.05512
      12     H     0.46829  0.46829  0.00000  0.06342
      13     C     3.03045  3.03045  0.00000 -0.06090
      14     H     0.47126  0.47126  0.00000  0.05748
      15     H     0.47093  0.47093  0.00000  0.05814
      16     H     0.44692  0.44692  0.00000  0.10616

   Total alpha = 25.00000, Total beta = 25.00000, Total charge = -0.00000

*** Psi4 exiting successfully. Buy a developer a beer!
