                              Psi4 1.0.54 Driver

  ==> Input File <==

--------------------------------------------------------------------------
set {
	reference rhf
	basis cc-pvtz
}

set_num_threads( 4 )
memory 2 gb

molecule MOL {
0 1

H	 -4.337654	 -1.627568	 -0.217908
C	 -3.495081	 -1.116821	 0.201038
C	 -2.295292	 -1.361316	 -0.265946
H	 -3.657394	 -0.414030	 0.994472
O	 -1.189946	 -0.765863	 0.237511
H	 -2.122179	 -2.057282	 -1.066440
C	 0.026572	 -0.995256	 -0.379403
C	 1.057223	 0.049888	 -0.004615
H	 -0.054361	 -1.010670	 -1.459674
H	 0.397526	 -1.952058	 -0.044198
F	 2.203233	 -0.234060	 -0.590375
F	 0.698147	 1.254887	 -0.392621
F	 1.266440	 0.094219	 1.288722

	symmetry c1
}
set optking {
	frozen_dihedral = ("
		3 5 7 9
	")
}

ee,wfn = optimize('scf', return_wfn=True)
oeprop( wfn, 'DIPOLE', 'QUADRUPOLE', 'MULLIKEN_CHARGES')
f=open( 'psi4out.xyz', 'w' )
f.write( "13  " )
f.write( str(ee) + "\n" )
f.write( MOL.save_string_xyz() )
f.close()
--------------------------------------------------------------------------

    Molecular point group: c1
  Charge       = 0
  Multiplicity = 1
  Basis Set: CC-PVTZ
  Basis Set:
  @DF-RHF Final Energy:  -527.74011394971558
    Total Energy =                       -527.7401139497151235
    Molecular point group: c1
  Basis Set: CC-PVTZ
  Basis Set:
  Basis Set: CC-PVTZ
  Basis Set:
  @DF-RHF Final Energy:  -527.74114280906088
    Total Energy =                       -527.7411428090613299
  Basis Set: CC-PVTZ
  Basis Set:
  Basis Set: CC-PVTZ
  Basis Set:
  @DF-RHF Final Energy:  -527.74139445938852
    Total Energy =                       -527.7413944593884025
  Basis Set: CC-PVTZ
  Basis Set:
  Basis Set: CC-PVTZ
  Basis Set:
  @DF-RHF Final Energy:  -527.74144145790990
    Total Energy =                       -527.7414414579097865
  Basis Set: CC-PVTZ
  Basis Set:
  @DF-RHF Final Energy:  -527.59190795281961
    Total Energy =                       -527.5919079528194970
  @DF-RHF Final Energy:  -527.70633203452212
    Total Energy =                       -527.7063320345221200
  @DF-RHF Final Energy:  -527.74079785113827
    Total Energy =                       -527.7407978511379270
  @DF-RHF Final Energy:  -527.74140603630985
    Total Energy =                       -527.7414060363100816
  @DF-RHF Final Energy:  -527.74167639413963
    Total Energy =                       -527.7416763941394038
  @DF-RHF Final Energy:  -527.74174022210775
    Total Energy =                       -527.7417402221072962
  Basis Set: CC-PVTZ
  Basis Set:
  @DF-RHF Final Energy:  -527.74174639824889
    Total Energy =                       -527.7417463982484378
  Basis Set: CC-PVTZ
  Basis Set:
  Basis Set: CC-PVTZ
  Basis Set:
  @DF-RHF Final Energy:  -527.74174886844889
    Total Energy =                       -527.7417488684490081
  Basis Set: CC-PVTZ
  Basis Set:
  Basis Set: CC-PVTZ
  Basis Set:
  @DF-RHF Final Energy:  -527.74175047789163
    Total Energy =                       -527.7417504778916282
  Basis Set: CC-PVTZ
  Basis Set:
  Charge       = 0
  Multiplicity = 1
  Basis Set: CC-PVTZ
  Basis Set:

    Orbital Energies (a.u.)
    -----------------------

    Doubly Occupied:

       1A    -26.339774     2A    -26.336538     3A    -26.336181
       4A    -20.602896     5A    -11.498132     6A    -11.319422
       7A    -11.300863     8A    -11.219087     9A     -1.748495
      10A     -1.644561    11A     -1.643095    12A     -1.445430
      13A     -1.091069    14A     -1.020054    15A     -0.929784
      16A     -0.844692    17A     -0.838195    18A     -0.811995
      19A     -0.804657    20A     -0.729892    21A     -0.719841
      22A     -0.705862    23A     -0.685010    24A     -0.664822
      25A     -0.659524    26A     -0.648206    27A     -0.643131
      28A     -0.588907    29A     -0.563353    30A     -0.531265
      31A     -0.512826    32A     -0.362376

  @DF-RHF Final Energy:  -527.74175144956598

   => Energetics <=

    Nuclear Repulsion Energy =            407.8454880567443865
    One-Electron Energy =               -1539.5946053860352549
    Two-Electron Energy =                 604.0073658797243752
    DFT Exchange-Correlation Energy =       0.0000000000000000
    Empirical Dispersion Energy =           0.0000000000000000
    PCM Polarization Energy =               0.0000000000000000
    EFP Energy =                            0.0000000000000000
    Total Energy =                       -527.7417514495664363
    Molecular point group: c1
  Basis Set: CC-PVTZ
  Basis Set:

  -Total Gradient:
     Atom            X                  Y                   Z
    ------   -----------------  -----------------  -----------------
       1       -0.000000103374     0.000007243572    -0.000008613637
       2       -0.000020901860     0.000010684038     0.000006877436
       3        0.000007766922     0.000164743680    -0.000456542448
       4       -0.000002080749     0.000003676562     0.000002479639
       5        0.000012092293    -0.000404011807     0.000778065735
       6        0.000000019061    -0.000014234338     0.000000399383
       7        0.000191847432     0.000678289722    -0.000653072231
       8        0.000013460108     0.000037167191    -0.000015179074
       9       -0.000164785399    -0.000452160982     0.000333465651
      10       -0.000014956239     0.000009500620    -0.000005689172
      11        0.000004299386    -0.000021430177    -0.000008021142
      12       -0.000016576147    -0.000017857110    -0.000012094813
      13       -0.000010081438    -0.000001610971     0.000037924672

  **** Optimization is complete! (in 14 steps) ****
    Final optimized geometry and variables:
    Molecular point group: c1

    Geometry (in Angstrom), charge = 0, multiplicity = 1:

    H           -4.288993644759    -1.022039321223     0.749843953136
    C           -3.377151139654    -0.489875808002     0.929083556915
    C           -2.303263597144    -0.796525574641     0.242914882932
    H           -3.371478105326     0.296732414102     1.657832836979
    O           -1.139430891890    -0.125122264135     0.378215318727
    H           -2.296940314717    -1.583557720985    -0.491020251741
    C            0.020910790194    -0.799830476355     0.039504883779
    C            1.101056487267     0.216021912729    -0.248391017804
    H           -0.105641165831    -1.406051133120    -0.849994783892
    H            0.364959031808    -1.432828973016     0.849570874891
    F            2.217821465157    -0.414791651366    -0.554666884793
    F            0.789294081051     0.991076762680    -1.260174140468
    F            1.345905624287     0.983417824747     0.786433722737

  Mulliken Charges: (a.u.)
   Center  Symbol    Alpha    Beta     Spin     Total
       1     H     0.42494  0.42494  0.00000  0.15012
       2     C     3.18949  3.18949  0.00000 -0.37899
       3     C     2.96878  2.96878  0.00000  0.06244
       4     H     0.42303  0.42303  0.00000  0.15395
       5     O     4.14103  4.14103  0.00000 -0.28206
       6     H     0.43642  0.43642  0.00000  0.12717
       7     C     3.00048  3.00048  0.00000 -0.00096
       8     C     2.67344  2.67344  0.00000  0.65312
       9     H     0.46016  0.46016  0.00000  0.07969
      10     H     0.45539  0.45539  0.00000  0.08922
      11     F     4.61243  4.61243  0.00000 -0.22486
      12     F     4.60767  4.60767  0.00000 -0.21534
      13     F     4.60674  4.60674  0.00000 -0.21349

   Total alpha = 32.00000, Total beta = 32.00000, Total charge =  0.00000

*** Psi4 exiting successfully. Buy a developer a beer!
