  ==> Input File <==

--------------------------------------------------------------------------
set {
	reference rhf
	basis 6-31G*
}

set_num_threads( 4 )
memory 2 gb

molecule MOL {
0 1

H	 5.300261	 0.389017	 0.765574
C	 4.683586	 0.007397	 -0.042263
C	 3.212531	 -0.053148	 0.367014
H	 4.822470	 0.658433	 -0.900287
H	 5.059313	 -0.976778	 -0.308771
C	 2.314963	 -0.593989	 -0.748188
H	 2.878439	 0.939523	 0.650893
H	 3.110370	 -0.683908	 1.248716
C	 0.838583	 -0.683237	 -0.361401
H	 2.411305	 0.031884	 -1.628327
H	 2.655736	 -1.588367	 -1.027702
C	 0.141227	 0.663235	 -0.235111
H	 0.293613	 -1.244586	 -1.118807
H	 0.712340	 -1.240008	 0.564475
C	 -1.181045	 0.701995	 0.511084
O	 0.601300	 1.653900	 -0.718145
C	 -2.285934	 -0.139295	 -0.145128
H	 -1.483764	 1.740803	 0.565433
H	 -1.015216	 0.349101	 1.527278
C	 -3.651768	 0.085446	 0.506485
H	 -2.346596	 0.110469	 -1.202272
H	 -2.034737	 -1.195320	 -0.088721
C	 -4.759797	 -0.746382	 -0.137905
H	 -3.908762	 1.140117	 0.445781
H	 -3.588286	 -0.154158	 1.565709
H	 -4.868882	 -0.505166	 -1.191300
H	 -4.548009	 -1.809175	 -0.062213
H	 -5.715422	 -0.564821	 0.343442

	symmetry c1
}
set optking {
	frozen_dihedral = ("
		12 15 17 21
	")
}

ee = optimize('scf')
oeprop('DIPOLE', 'QUADRUPOLE', 'MULLIKEN_CHARGES')
f=open( 'psi4out.xyz', 'w' )
f.write( "28  " )
f.write( str(ee) + "\n" )
f.write( MOL.save_string_xyz() )
f.close()
--------------------------------------------------------------------------

    Molecular point group: c1
  Charge       = 0
  Multiplicity = 1
  Basis Set: 6-31G*
  Basis Set:
  @DF-RHF Final Energy:  -426.16911958228263
    Total Energy =                       -426.1691195822822920
    Molecular point group: c1
  Basis Set: 6-31G*
  Basis Set:
  Basis Set: 6-31G*
  Basis Set:
  @DF-RHF Final Energy:  -426.16901501219650
    Total Energy =                       -426.1690150121966099
  Basis Set: 6-31G*
  Basis Set:
  Basis Set: 6-31G*
  Basis Set:
  @DF-RHF Final Energy:  -426.16904942903170
    Total Energy =                       -426.1690494290319293
  Basis Set: 6-31G*
  Basis Set:
  Basis Set: 6-31G*
  Basis Set:
  @DF-RHF Final Energy:  -426.16913408704920
    Total Energy =                       -426.1691340870489739
  Basis Set: 6-31G*
  Basis Set:
  Basis Set: 6-31G*
  Basis Set:
  @DF-RHF Final Energy:  -426.16913570949180
    Total Energy =                       -426.1691357094916839
  Basis Set: 6-31G*
  Basis Set:
  Charge       = 0
  Multiplicity = 1
  Basis Set: 6-31G*
  Basis Set:

    Orbital Energies (a.u.)
    -----------------------

    Doubly Occupied:

       1A    -20.548161     2A    -11.322130     3A    -11.232525
       4A    -11.229908     5A    -11.228730     6A    -11.226088
       7A    -11.216383     8A    -11.216305     9A    -11.212149
      10A    -11.205618    11A     -1.393277    12A     -1.095125
      13A     -1.077319    14A     -1.022661    15A     -0.990639
      16A     -0.907355    17A     -0.873090    18A     -0.809294
      19A     -0.799608    20A     -0.723150    21A     -0.669482
      22A     -0.651836    23A     -0.628014    24A     -0.619778
      25A     -0.609263    26A     -0.587965    27A     -0.577268
      28A     -0.574867    29A     -0.542510    30A     -0.532381
      31A     -0.520667    32A     -0.505933    33A     -0.500445
      34A     -0.484628    35A     -0.478847    36A     -0.475498
      37A     -0.471513    38A     -0.464925    39A     -0.455208
      40A     -0.392304

  @DF-RHF Final Energy:  -426.16913608425261

   => Energetics <=

    Nuclear Repulsion Energy =            531.0814390913608349
    One-Electron Energy =               -1630.3554545721767681
    Two-Electron Energy =                 673.1048793965633195
    DFT Exchange-Correlation Energy =       0.0000000000000000
    Empirical Dispersion Energy =           0.0000000000000000
    PCM Polarization Energy =               0.0000000000000000
    EFP Energy =                            0.0000000000000000
    Total Energy =                       -426.1691360842526137
    Molecular point group: c1
  Basis Set: 6-31G*
  Basis Set:

  -Total Gradient:
     Atom            X                  Y                   Z
    ------   -----------------  -----------------  -----------------
       1       -0.000001694033    -0.000000977193     0.000000392671
       2       -0.000001487384    -0.000000625256    -0.000001071205
       3        0.000009146575    -0.000004400140     0.000004860742
       4       -0.000001598564    -0.000001230073     0.000001079333
       5        0.000001232272    -0.000001235749     0.000000125049
       6       -0.000005942170    -0.000001789132     0.000002602968
       7        0.000001700727     0.000004617267     0.000001597554
       8       -0.000003681195     0.000000841068    -0.000001531965
       9        0.000034252459     0.000010098474     0.000014060463
      10       -0.000000070930     0.000004331862    -0.000003466787
      11       -0.000003672925     0.000000709504    -0.000001711599
      12       -0.000184925482     0.000497028833    -0.000417924385
      13        0.000007626638     0.000012301723     0.000001643506
      14       -0.000005712788    -0.000003734953     0.000009077562
      15        0.000330826371    -0.000851532277     0.000360415136
      16        0.000008918679    -0.000007000051     0.000039354198
      17       -0.000784191163     0.000949052016     0.000173929864
      18        0.000000700800     0.000009998860     0.000027385311
      19        0.000014883076    -0.000007970254    -0.000002814255
      20        0.000013264874     0.000011743770    -0.000027795820
      21        0.000581799889    -0.000606080426    -0.000180061641
      22       -0.000014517023    -0.000015402619    -0.000000498272
      23        0.000000126322     0.000001655180     0.000000736119
      24       -0.000009758292     0.000001845729     0.000003283143
      25        0.000011666919    -0.000000858984    -0.000007294034
      26        0.000002782732    -0.000001090580     0.000002255949
      27       -0.000000935668    -0.000000618060     0.000002528592
      28       -0.000000740715     0.000000321460    -0.000001158196

  **** Optimization is complete! (in 6 steps) ****
    Final optimized geometry and variables:
    Molecular point group: c1

    Geometry (in Angstrom), charge = 0, multiplicity = 1:

    H            5.321921644353     0.300800198876     0.830159796918
    C            4.694329467191    -0.085247058527     0.032910113258
    C            3.228579794381    -0.140483665975     0.461425350921
    H            4.823264349421     0.559744518618    -0.831218329806
    H            5.065070223792    -1.071855152544    -0.231680661784
    C            2.315929048357    -0.687564783764    -0.638426940170
    H            2.899576883515     0.854537934845     0.742762681666
    H            3.136740291793    -0.765178401175     1.348569583822
    C            0.844653103794    -0.772284364916    -0.232087217177
    H            2.401917424995    -0.067826703034    -1.524023987061
    H            2.651878702297    -1.684238107016    -0.915549502223
    C            0.147739719599     0.574614441517    -0.110524072439
    H            0.289478006108    -1.342603241471    -0.975293689815
    H            0.730129944869    -1.318257496265     0.701812181907
    C           -1.179746916409     0.612558518954     0.626377377700
    O            0.609662815293     1.565379383258    -0.591430795083
    C           -2.281120652798    -0.219155605687    -0.048890514811
    H           -1.477983600997     1.652682353401     0.682312216061
    H           -1.027413410664     0.254064738847     1.642451908756
    C           -3.651205946389    -0.005114788217     0.596430915066
    H           -2.332594051131     0.039810633786    -1.104389577461
    H           -2.027932365364    -1.275528919104    -0.004080310181
    C           -4.751114791821    -0.840684925434    -0.056914073763
    H           -3.913710556661     1.048292718614     0.538728331848
    H           -3.591480941177    -0.248714968007     1.654996560201
    H           -4.854839447316    -0.597153720297    -1.110325295242
    H           -4.534640485601    -1.902616546282     0.017324609153
    H           -5.710568104941    -0.664980354381     0.418994097056

  Mulliken Charges: (a.u.)
   Center  Symbol    Alpha    Beta     Spin     Total
       1     H     0.41936  0.41936  0.00000  0.16129
       2     C     3.24012  3.24012  0.00000 -0.48025
       3     C     3.15638  3.15638  0.00000 -0.31276
       4     H     0.41833  0.41833  0.00000  0.16333
       5     H     0.42367  0.42367  0.00000  0.15267
       6     C     3.14912  3.14912  0.00000 -0.29823
       7     H     0.41018  0.41018  0.00000  0.17963
       8     H     0.42775  0.42775  0.00000  0.14449
       9     C     3.21201  3.21201  0.00000 -0.42402
      10     H     0.40681  0.40681  0.00000  0.18637
      11     H     0.42196  0.42196  0.00000  0.15609
      12     C     2.73184  2.73184  0.00000  0.53631
      13     H     0.40285  0.40285  0.00000  0.19430
      14     H     0.41306  0.41306  0.00000  0.17388
      15     C     3.20133  3.20133  0.00000 -0.40267
      16     O     4.26671  4.26671  0.00000 -0.53342
      17     C     3.16382  3.16382  0.00000 -0.32764
      18     H     0.39994  0.39994  0.00000  0.20012
      19     H     0.41264  0.41264  0.00000  0.17473
      20     C     3.15180  3.15180  0.00000 -0.30360
      21     H     0.41400  0.41400  0.00000  0.17200
      22     H     0.41881  0.41881  0.00000  0.16239
      23     C     3.24040  3.24040  0.00000 -0.48080
      24     H     0.41812  0.41812  0.00000  0.16376
      25     H     0.42132  0.42132  0.00000  0.15735
      26     H     0.41961  0.41961  0.00000  0.16077
      27     H     0.42119  0.42119  0.00000  0.15763
      28     H     0.41685  0.41685  0.00000  0.16630

   Total alpha = 40.00000, Total beta = 40.00000, Total charge =  0.00000
