  ==> Input File <==

--------------------------------------------------------------------------
set {
	reference rhf
	basis 6-31G*
}

set_num_threads( 1 )
memory 2 gb

molecule MOL {
0 1

O	 -1.412542	 -4.077664	 -0.157306
C	 -0.746484	 -3.793651	 -1.106062
C	 -0.185788	 -2.392100	 -1.272141
C	 -0.401131	 -4.813921	 -2.167737
C	 1.059305	 -2.192157	 -0.392989
H	 -0.957251	 -1.691521	 -0.971581
H	 0.059509	 -2.199340	 -2.312670
C	 1.631333	 -0.777471	 -0.511575
H	 0.786643	 -2.408923	 0.633681
H	 1.825630	 -2.913067	 -0.673669
C	 2.915987	 -0.544314	 0.291766
H	 0.876400	 -0.058698	 -0.198257
H	 1.835205	 -0.568316	 -1.559687
C	 3.373361	 0.914346	 0.347591
H	 3.708709	 -1.142521	 -0.150311
H	 2.780642	 -0.921148	 1.303579
H	 3.506512	 1.320010	 -0.651625
H	 4.322697	 0.999599	 0.867103
H	 2.660624	 1.545032	 0.868198
H	 -0.873938	 -4.538302	 -3.106754
H	 -0.745804	 -5.793233	 -1.866189
H	 0.670415	 -4.837810	 -2.343873

	symmetry c1
}
set optking {
	frozen_dihedral = ("
		6 3 2 1,
		6 3 5 8,
		3 5 8 12
	")
}

ee = energy('scf')
oeprop('DIPOLE', 'QUADRUPOLE', 'MULLIKEN_CHARGES')
f=open( 'psi4out.xyz', 'w' )
f.write( "22  " )
f.write( str(ee) + "\n" )
f.write( MOL.save_string_xyz() )
f.close()
--------------------------------------------------------------------------

    Molecular point group: c1

    Geometry (in Angstrom), charge = 0, multiplicity = 1:

       Center              X                  Y                   Z               Mass
    ------------   -----------------  -----------------  -----------------  -----------------
           O         -2.199378598031    -1.870888423053     0.460473798565    15.994914619560
           C         -1.533320598031    -1.586875423053    -0.488282201435    12.000000000000
           C         -0.972624598031    -0.185324423053    -0.654361201435    12.000000000000
           C         -1.187967598031    -2.607145423053    -1.549957201435    12.000000000000
           C          0.272468401969     0.014618576947     0.224790798565    12.000000000000
           H         -1.744087598031     0.515254576947    -0.353801201435     1.007825032070
           H         -0.727327598031     0.007435576947    -1.694890201435     1.007825032070
           C          0.844496401969     1.429304576947     0.106204798565    12.000000000000
           H         -0.000193598031    -0.202147423053     1.251460798565     1.007825032070
           H          1.038793401969    -0.706291423053    -0.055889201435     1.007825032070
           C          2.129150401969     1.662461576947     0.909545798565    12.000000000000
           H          0.089563401969     2.148077576947     0.419522798565     1.007825032070
           H          1.048368401969     1.638459576947    -0.941907201435     1.007825032070
           C          2.586524401969     3.121121576947     0.965370798565    12.000000000000
           H          2.921872401969     1.064254576947     0.467468798565     1.007825032070
           H          1.993805401969     1.285627576947     1.921358798565     1.007825032070
           H          2.719675401969     3.526785576947    -0.033845201435     1.007825032070
           H          3.535860401969     3.206374576947     1.484882798565     1.007825032070
           H          1.873787401969     3.751807576947     1.485977798565     1.007825032070
           H         -1.660774598031    -2.331526423053    -2.488974201435     1.007825032070
           H         -1.532640598031    -3.586457423053    -1.248409201435     1.007825032070
           H         -0.116421598031    -2.631034423053    -1.726093201435     1.007825032070

  Charge       = 0
  Multiplicity = 1
  Basis Set: 6-31G*
  Basis Set:

    Orbital Energies (a.u.)
    -----------------------

    Doubly Occupied:

       1A    -20.547507     2A    -11.324672     3A    -11.230380
       4A    -11.229414     5A    -11.228320     6A    -11.222414
       7A    -11.220731     8A    -11.213080     9A     -1.393249
      10A     -1.095043    11A     -1.045221    12A     -1.001192
      13A     -0.939249    14A     -0.846791    15A     -0.797702
      16A     -0.732513    17A     -0.665809    18A     -0.646513
      19A     -0.631089    20A     -0.607953    21A     -0.593273
      22A     -0.583251    23A     -0.561669    24A     -0.553006
      25A     -0.530363    26A     -0.516388    27A     -0.498191
      28A     -0.484941    29A     -0.473249    30A     -0.468447
      31A     -0.460147    32A     -0.396519

  @DF-RHF Final Energy:  -348.09920665542063

   => Energetics <=

    Nuclear Repulsion Energy =            368.0451382376605807
    One-Electron Energy =               -1200.8121615644226949
    Two-Electron Energy =                 484.6678166713422797
    DFT Exchange-Correlation Energy =       0.0000000000000000
    Empirical Dispersion Energy =           0.0000000000000000
    PCM Polarization Energy =               0.0000000000000000
    EFP Energy =                            0.0000000000000000
    Total Energy =                       -348.0992066554198345

  Mulliken Charges: (a.u.)
   Center  Symbol    Alpha    Beta     Spin     Total
       1     O     4.26230  4.26230  0.00000 -0.52459
       2     C     2.73718  2.73718  0.00000  0.52565
       3     C     3.20022  3.20022  0.00000 -0.40044
       4     C     3.28957  3.28957  0.00000 -0.57914
       5     C     3.16221  3.16221  0.00000 -0.32442
       6     H     0.40105  0.40105  0.00000  0.19791
       7     H     0.41682  0.41682  0.00000  0.16635
       8     C     3.15094  3.15094  0.00000 -0.30187
       9     H     0.40519  0.40519  0.00000  0.18962
      10     H     0.42098  0.42098  0.00000  0.15805
      11     C     3.15230  3.15230  0.00000 -0.30460
      12     H     0.42064  0.42064  0.00000  0.15873
      13     H     0.42371  0.42371  0.00000  0.15257
      14     C     3.23991  3.23991  0.00000 -0.47982
      15     H     0.42291  0.42291  0.00000  0.15418
      16     H     0.42079  0.42079  0.00000  0.15842
      17     H     0.42179  0.42179  0.00000  0.15643
      18     H     0.41800  0.41800  0.00000  0.16400
      19     H     0.41989  0.41989  0.00000  0.16022
      20     H     0.40690  0.40690  0.00000  0.18619
      21     H     0.39703  0.39703  0.00000  0.20594
      22     H     0.40968  0.40968  0.00000  0.18064

   Total alpha = 32.00000, Total beta = 32.00000, Total charge = -0.00000
