                              Psi4 1.0.54 Driver

  ==> Input File <==

--------------------------------------------------------------------------
set {
	reference rhf
	basis cc-pvtz
}

set_num_threads( 4 )
memory 2 gb

molecule MOL {
0 1

O	 -2.223431	 -0.450156	 1.858057
C	 -1.150973	 0.004455	 2.091712
C	 0.106177	 -0.628719	 1.528941
C	 -0.983361	 1.241765	 2.941264
C	 0.376695	 -0.140025	 0.100361
H	 -0.041045	 -1.701293	 1.524173
H	 0.957121	 -0.403751	 2.163093
C	 1.630207	 -0.772146	 -0.501001
H	 -0.490964	 -0.366977	 -0.506177
H	 0.486509	 0.941748	 0.097665
C	 2.907848	 -0.545876	 0.309149
H	 1.772784	 -0.391628	 -1.509394
H	 1.468529	 -1.842059	 -0.599744
C	 3.373802	 0.906639	 0.372125
H	 3.699140	 -1.146831	 -0.127906
H	 2.764321	 -0.923458	 1.318191
H	 3.519798	 1.311927	 -0.623875
H	 4.316899	 0.983758	 0.900700
H	 2.661122	 1.540651	 0.885346
H	 -0.494625	 0.971908	 3.872023
H	 -1.946207	 1.680222	 3.153992
H	 -0.346964	 1.964772	 2.443420

	symmetry c1
}
set optking {
	frozen_dihedral = ("
		3 5 8 12
	")
}

ee,wfn = optimize('scf', return_wfn=True)
oeprop( wfn, 'DIPOLE', 'QUADRUPOLE', 'MULLIKEN_CHARGES')
f=open( 'psi4out.xyz', 'w' )
f.write( "22  " )
f.write( str(ee) + "\n" )
f.write( MOL.save_string_xyz() )
f.close()
--------------------------------------------------------------------------

    Molecular point group: c1
  Charge       = 0
  Multiplicity = 1
  Basis Set: CC-PVTZ
  Basis Set:
  @DF-RHF Final Energy:  -348.22062254751495
    Total Energy =                       -348.2206225475148926
    Molecular point group: c1
  Basis Set: CC-PVTZ
  Basis Set:
  Basis Set: CC-PVTZ
  Basis Set:
  @DF-RHF Final Energy:  -348.19641883826961
    Total Energy =                       -348.1964188382693237
  Basis Set: CC-PVTZ
  Basis Set:
  Basis Set: CC-PVTZ
  Basis Set:
  @DF-RHF Final Energy:  -348.22062197074200
    Total Energy =                       -348.2206219707421155
  Basis Set: CC-PVTZ
  Basis Set:
  Basis Set: CC-PVTZ
  Basis Set:
  @DF-RHF Final Energy:  -348.22169736643963
    Total Energy =                       -348.2216973664396846
  Basis Set: CC-PVTZ
  Basis Set:
  @DF-RHF Final Energy:  -348.20577547848336
    Total Energy =                       -348.2057754784831332
  @DF-RHF Final Energy:  -348.22105587917730
    Total Energy =                       -348.2210558791771291
  @DF-RHF Final Energy:  -348.22157777124909
    Total Energy =                       -348.2215777712495424
  @DF-RHF Final Energy:  -348.21952512003480
    Total Energy =                       -348.2195251200347457
  Basis Set: CC-PVTZ
  Basis Set:
  @DF-RHF Final Energy:  -348.22139650354234
    Total Energy =                       -348.2213965035422802
  Basis Set: CC-PVTZ
  Basis Set:
  Basis Set: CC-PVTZ
  Basis Set:
  @DF-RHF Final Energy:  -348.22173919664868
    Total Energy =                       -348.2217391966489686
  Basis Set: CC-PVTZ
  Basis Set:
  Basis Set: CC-PVTZ
  Basis Set:
  @DF-RHF Final Energy:  -348.22179836533286
    Total Energy =                       -348.2217983653326314
  Basis Set: CC-PVTZ
  Basis Set:
  Charge       = 0
  Multiplicity = 1
  Basis Set: CC-PVTZ
  Basis Set:

    Orbital Energies (a.u.)
    -----------------------

    Doubly Occupied:

       1A    -20.536676     2A    -11.319271     3A    -11.228368
       4A    -11.227309     5A    -11.226957     6A    -11.221293
       7A    -11.220570     8A    -11.214300     9A     -1.396872
      10A     -1.098274    11A     -1.044420    12A     -1.000156
      13A     -0.943161    14A     -0.865950    15A     -0.779186
      16A     -0.735691    17A     -0.663864    18A     -0.655152
      19A     -0.623015    20A     -0.618182    21A     -0.607504
      22A     -0.573943    23A     -0.568224    24A     -0.552869
      25A     -0.533371    26A     -0.522876    27A     -0.510983
      28A     -0.490084    29A     -0.467913    30A     -0.464428
      31A     -0.459660    32A     -0.399410

  @DF-RHF Final Energy:  -348.22179915870072

   => Energetics <=

    Nuclear Repulsion Energy =            380.2595379313085004
    One-Electron Energy =               -1225.4228107787459976
    Two-Electron Energy =                 496.9414736887367212
    DFT Exchange-Correlation Energy =       0.0000000000000000
    Empirical Dispersion Energy =           0.0000000000000000
    PCM Polarization Energy =               0.0000000000000000
    EFP Energy =                            0.0000000000000000
    Total Energy =                       -348.2217991587007759
    Molecular point group: c1
  Basis Set: CC-PVTZ
  Basis Set:

  -Total Gradient:
     Atom            X                  Y                   Z
    ------   -----------------  -----------------  -----------------
       1        0.000049420280     0.000061254510    -0.000018068231
       2       -0.000038851079    -0.000037532722     0.000020476089
       3        0.000135112747     0.000884891562     0.000209212954
       4       -0.000010301299    -0.000015085274     0.000047923179
       5       -0.000119468138    -0.001027227018    -0.000200396892
       6        0.000000390276     0.000006856284     0.000010450832
       7       -0.000018188910    -0.000016450782     0.000014723353
       8       -0.000139256121    -0.001083503319    -0.000228642002
       9        0.000018622667     0.000010814758    -0.000037820605
      10        0.000023483645    -0.000008127107    -0.000018902754
      11       -0.000020848807     0.000009372684    -0.000015956411
      12        0.000141800448     0.001197132589     0.000225195317
      13       -0.000028352876    -0.000008200218     0.000001797611
      14        0.000006425297     0.000005930936     0.000019527089
      15        0.000004158761    -0.000008969238     0.000007085159
      16       -0.000007102669     0.000006129990    -0.000004626092
      17       -0.000005302563    -0.000010808040     0.000005214773
      18        0.000005671217     0.000014572287    -0.000001860384
      19        0.000004223396     0.000006487484    -0.000000515225
      20       -0.000001668615     0.000007189155    -0.000020093318
      21        0.000001305232     0.000009551231    -0.000003373716
      22       -0.000001272890    -0.000004279753    -0.000011350728

  **** Optimization is complete! (in 12 steps) ****
    Final optimized geometry and variables:
    Molecular point group: c1

    Geometry (in Angstrom), charge = 0, multiplicity = 1:

    O           -2.182401718720    -1.633515469008     0.925577875592
    C           -1.563465967443    -0.623354277934     1.012243397857
    C           -0.105937444936    -0.559926190670     0.600283389524
    C           -2.196004413022     0.650604354975     1.520499717952
    C            0.022212686319    -0.285895726680    -0.904964765227
    H            0.341664169780    -1.517484850484     0.835762188089
    H            0.405078637999     0.206111840290     1.170829055685
    C            1.457310985843    -0.350889194417    -1.434593379944
    H           -0.571365615139    -1.020721339553    -1.436233143003
    H           -0.411348864353     0.682074352971    -1.136191801216
    C            2.467908662415     0.600438244269    -0.788387316365
    H            1.429142255043    -0.142990888043    -2.500642840997
    H            1.821090357395    -1.368508211433    -1.328380270771
    C            2.138979687820     2.082003211278    -0.953639020715
    H            3.438115284397     0.406997067731    -1.234858822240
    H            2.577625975167     0.369506138375     0.266327327723
    H            2.022508322218     2.341337135576    -2.000898866220
    H            2.931394792017     2.699696402786    -0.547274273795
    H            1.221969237475     2.354828854906    -0.444033154039
    H           -1.759519260971     0.906981529183     2.480524867807
    H           -3.260854805505     0.517191905414     1.633616051809
    H           -1.994317958919     1.475257295925     0.846178447933

  Mulliken Charges: (a.u.)
   Center  Symbol    Alpha    Beta     Spin     Total
       1     O     4.17687  4.17687  0.00000 -0.35373
       2     C     2.85661  2.85661  0.00000  0.28678
       3     C     3.10094  3.10094  0.00000 -0.20188
       4     C     3.15624  3.15624  0.00000 -0.31249
       5     C     3.11849  3.11849  0.00000 -0.23698
       6     H     0.43827  0.43827  0.00000  0.12346
       7     H     0.44782  0.44782  0.00000  0.10435
       8     C     3.10097  3.10097  0.00000 -0.20194
       9     H     0.43077  0.43077  0.00000  0.13846
      10     H     0.44778  0.44778  0.00000  0.10444
      11     C     3.09976  3.09976  0.00000 -0.19952
      12     H     0.44609  0.44609  0.00000  0.10781
      13     H     0.44451  0.44451  0.00000  0.11098
      14     C     3.15287  3.15287  0.00000 -0.30574
      15     H     0.44292  0.44292  0.00000  0.11416
      16     H     0.45124  0.45124  0.00000  0.09752
      17     H     0.45221  0.45221  0.00000  0.09559
      18     H     0.44438  0.44438  0.00000  0.11125
      19     H     0.45636  0.45636  0.00000  0.08729
      20     H     0.44856  0.44856  0.00000  0.10287
      21     H     0.43547  0.43547  0.00000  0.12907
      22     H     0.45087  0.45087  0.00000  0.09825

   Total alpha = 32.00000, Total beta = 32.00000, Total charge = -0.00000

*** Psi4 exiting successfully. Buy a developer a beer!
