  ==> Input File <==

--------------------------------------------------------------------------
set {
	reference rhf
	basis 6-31G*
}

set_num_threads( 1 )
memory 2 gb

molecule MOL {
0 1

H	 1.136379	 0.211822	 1.465562
C	 1.135357	 0.094285	 0.374742
C	 0.065331	 0.871482	 -0.349150
O	 1.941633	 -0.601957	 -0.151457
C	 -1.253202	 0.923588	 0.435857
H	 -0.074004	 0.430108	 -1.329297
H	 0.440784	 1.884412	 -0.487600
C	 -1.934504	 -0.439412	 0.564248
H	 -1.922976	 1.617538	 -0.061986
H	 -1.068742	 1.337159	 1.425086
H	 -2.159289	 -0.854823	 -0.413214
H	 -2.866590	 -0.354883	 1.113235
H	 -1.307629	 -1.155343	 1.087565

	symmetry c1
}
set optking {
	frozen_dihedral = ("
		6 3 5 9
	")
}

ee = energy('scf')
oeprop('DIPOLE', 'QUADRUPOLE', 'MULLIKEN_CHARGES')
f=open( 'psi4out.xyz', 'w' )
f.write( "13  " )
f.write( str(ee) + "\n" )
f.write( MOL.save_string_xyz() )
f.close()
--------------------------------------------------------------------------

    Molecular point group: c1

    Geometry (in Angstrom), charge = 0, multiplicity = 1:

       Center              X                  Y                   Z               Mass
    ------------   -----------------  -----------------  -----------------  -----------------
           H          1.145694293051     0.060395213761     1.289215670965     1.007825032070
           C          1.144672293051    -0.057141786239     0.198395670965    12.000000000000
           C          0.074646293051     0.720055213761    -0.525496329035    12.000000000000
           O          1.950948293051    -0.753383786239    -0.327803329035    15.994914619560
           C         -1.243886706949     0.772161213761     0.259510670965    12.000000000000
           H         -0.064688706949     0.278681213761    -1.505643329035     1.007825032070
           H          0.450099293051     1.732985213761    -0.663946329035     1.007825032070
           C         -1.925188706949    -0.590838786239     0.387901670965    12.000000000000
           H         -1.913660706949     1.466111213761    -0.238332329035     1.007825032070
           H         -1.059426706949     1.185732213761     1.248739670965     1.007825032070
           H         -2.149973706949    -1.006249786239    -0.589560329035     1.007825032070
           H         -2.857274706949    -0.506309786239     0.936888670965     1.007825032070
           H         -1.298313706949    -1.306769786239     0.911218670965     1.007825032070

  Charge       = 0
  Multiplicity = 1
  Basis Set: 6-31G*
  Basis Set:

    Orbital Energies (a.u.)
    -----------------------

    Doubly Occupied:

       1A    -20.562699     2A    -11.327347     3A    -11.238179
       4A    -11.236227     5A    -11.223260     6A     -1.402775
       7A     -1.087804     8A     -0.973203     9A     -0.848105
      10A     -0.790977    11A     -0.661070    12A     -0.648454
      13A     -0.633326    14A     -0.593837    15A     -0.563747
      16A     -0.530347    17A     -0.508030    18A     -0.493699
      19A     -0.482011    20A     -0.410680

  @DF-RHF Final Energy:  -230.98435381789335

   => Energetics <=

    Nuclear Repulsion Energy =            173.2975066602790548
    One-Electron Energy =                -656.1322842008971747
    Two-Electron Energy =                 251.8504237227240878
    DFT Exchange-Correlation Energy =       0.0000000000000000
    Empirical Dispersion Energy =           0.0000000000000000
    PCM Polarization Energy =               0.0000000000000000
    EFP Energy =                            0.0000000000000000
    Total Energy =                       -230.9843538178940321

  Mulliken Charges: (a.u.)
   Center  Symbol    Alpha    Beta     Spin     Total
       1     H     0.43190  0.43190  0.00000  0.13620
       2     C     2.83211  2.83211  0.00000  0.33577
       3     C     3.20786  3.20786  0.00000 -0.41572
       4     O     4.23837  4.23837  0.00000 -0.47673
       5     C     3.16668  3.16668  0.00000 -0.33337
       6     H     0.39916  0.39916  0.00000  0.20167
       7     H     0.40271  0.40271  0.00000  0.19458
       8     C     3.24276  3.24276  0.00000 -0.48552
       9     H     0.41181  0.41181  0.00000  0.17637
      10     H     0.41864  0.41864  0.00000  0.16271
      11     H     0.41575  0.41575  0.00000  0.16850
      12     H     0.41443  0.41443  0.00000  0.17114
      13     H     0.41780  0.41780  0.00000  0.16440

   Total alpha = 20.00000, Total beta = 20.00000, Total charge =  0.00000
