                              Psi4 1.0.54 Driver

  ==> Input File <==

--------------------------------------------------------------------------
set {
	reference rhf
	basis cc-pvtz
}

set_num_threads( 4 )
memory 2 gb

molecule MOL {
0 1

H	 -0.000105	 1.988529	 0.748933
O	 -0.000098	 1.879786	 -0.188206
C	 -0.000014	 0.545691	 -0.532416
C	 -0.794692	 -0.264437	 0.493233
C	 1.432718	 0.056982	 -0.751997
H	 -0.513939	 0.446667	 -1.477264
F	 -2.027522	 0.177599	 0.533177
F	 -0.834118	 -1.539199	 0.198039
F	 -0.286345	 -0.138772	 1.700364
F	 1.986913	 0.756876	 -1.711098
F	 1.480814	 -1.205156	 -1.096104
F	 2.163611	 0.214775	 0.330718

	symmetry c1
}
set optking {
	frozen_dihedral = ("
		6 3 2 1
	")
}

ee,wfn = optimize('scf', return_wfn=True)
oeprop( wfn, 'DIPOLE', 'QUADRUPOLE', 'MULLIKEN_CHARGES')
f=open( 'psi4out.xyz', 'w' )
f.write( "12  " )
f.write( str(ee) + "\n" )
f.write( MOL.save_string_xyz() )
f.close()
--------------------------------------------------------------------------

    Molecular point group: c1
  Charge       = 0
  Multiplicity = 1
  Basis Set: CC-PVTZ
  Basis Set:
  @DF-RHF Final Energy:  -786.58765731828430
    Total Energy =                       -786.5876573182843003
    Molecular point group: c1
  Basis Set: CC-PVTZ
  Basis Set:
  Basis Set: CC-PVTZ
  Basis Set:
  @DF-RHF Final Energy:  -786.58786177992192
    Total Energy =                       -786.5878617799215817
  Basis Set: CC-PVTZ
  Basis Set:
  Basis Set: CC-PVTZ
  Basis Set:
  @DF-RHF Final Energy:  -786.58792157342896
    Total Energy =                       -786.5879215734290710
  Basis Set: CC-PVTZ
  Basis Set:
  Basis Set: CC-PVTZ
  Basis Set:
  @DF-RHF Final Energy:  -786.58792870376442
    Total Energy =                       -786.5879287037643053
  Basis Set: CC-PVTZ
  Basis Set:
  Charge       = 0
  Multiplicity = 1
  Basis Set: CC-PVTZ
  Basis Set:

    Orbital Energies (a.u.)
    -----------------------

    Doubly Occupied:

       1A    -26.363750     2A    -26.362114     3A    -26.358927
       4A    -26.353178     5A    -26.353018     6A    -26.349688
       7A    -20.608762     8A    -11.525163     9A    -11.515478
      10A    -11.351751    11A     -1.775164    12A     -1.764062
      13A     -1.671309    14A     -1.667096    15A     -1.660068
      16A     -1.657921    17A     -1.438492    18A     -1.103919
      19A     -1.002557    20A     -0.945162    21A     -0.873553
      22A     -0.869322    23A     -0.861465    24A     -0.850811
      25A     -0.839524    26A     -0.818335    27A     -0.750681
      28A     -0.737687    29A     -0.728794    30A     -0.725433
      31A     -0.698513    32A     -0.695917    33A     -0.691165
      34A     -0.679815    35A     -0.675369    36A     -0.672277
      37A     -0.661254    38A     -0.658070    39A     -0.624001
      40A     -0.552658    41A     -0.509289

  @DF-RHF Final Energy:  -786.58792945495861

   => Energetics <=

    Nuclear Repulsion Energy =            670.9299686783854213
    One-Electron Energy =               -2429.0327790918945539
    Two-Electron Energy =                 971.5148809585507479
    DFT Exchange-Correlation Energy =       0.0000000000000000
    Empirical Dispersion Energy =           0.0000000000000000
    PCM Polarization Energy =               0.0000000000000000
    EFP Energy =                            0.0000000000000000
    Total Energy =                       -786.5879294549583847
    Molecular point group: c1
  Basis Set: CC-PVTZ
  Basis Set:

  -Total Gradient:
     Atom            X                  Y                   Z
    ------   -----------------  -----------------  -----------------
       1       -0.003208942881    -0.000074388997    -0.000105233454
       2        0.003392047035     0.000010648136     0.000483899691
       3        0.002239839278     0.000545575398    -0.001614407312
       4        0.000014819137     0.000092222548     0.000052630441
       5        0.000007073367    -0.000026009817    -0.000061258559
       6       -0.002395687828    -0.000456519401     0.001260082913
       7       -0.000075701902    -0.000024601636    -0.000003219671
       8       -0.000008192529    -0.000052660515     0.000001513992
       9        0.000031091492    -0.000029252182    -0.000037409437
      10        0.000045227280     0.000011808026    -0.000031377875
      11       -0.000004811821     0.000015661702     0.000037274261
      12       -0.000036760623    -0.000012483262     0.000017505011

  **** Optimization is complete! (in 5 steps) ****
    Final optimized geometry and variables:
    Molecular point group: c1

    Geometry (in Angstrom), charge = 0, multiplicity = 1:

    H           -0.402081262695     1.954442418611     0.850297935668
    O           -0.365920401327     1.853750272324    -0.085888104732
    C           -0.316618947564     0.525258292708    -0.454706860024
    C           -1.133803769140    -0.332408255690     0.512379560231
    C            1.139589437381     0.084254442874    -0.607319070009
    H           -0.792146762318     0.418279140648    -1.419483292590
    F           -2.397000238903     0.015225345373     0.436865482455
    F           -1.049223866233    -1.608572727412     0.245455090796
    F           -0.750233006982    -0.145682914786     1.758426097026
    F            1.748057139581     0.882175398459    -1.448621151037
    F            1.230537381538    -1.136827740502    -1.077274703789
    F            1.785617559618     0.132098859690     0.534827428004

  Mulliken Charges: (a.u.)
   Center  Symbol    Alpha    Beta     Spin     Total
       1     H     0.38154  0.38154  0.00000  0.23691
       2     O     4.19017  4.19017  0.00000 -0.38034
       3     C     3.00240  3.00240  0.00000 -0.00480
       4     C     2.68656  2.68656  0.00000  0.62687
       5     C     2.68230  2.68230  0.00000  0.63540
       6     H     0.42878  0.42878  0.00000  0.14243
       7     F     4.60356  4.60356  0.00000 -0.20711
       8     F     4.59913  4.59913  0.00000 -0.19826
       9     F     4.61090  4.61090  0.00000 -0.22181
      10     F     4.60159  4.60159  0.00000 -0.20319
      11     F     4.60508  4.60508  0.00000 -0.21015
      12     F     4.60798  4.60798  0.00000 -0.21596

   Total alpha = 41.00000, Total beta = 41.00000, Total charge = -0.00000

*** Psi4 exiting successfully. Buy a developer a beer!
