  ==> Input File <==

--------------------------------------------------------------------------
set {
	reference rhf
	basis cc-pvtz
}

set_num_threads( 4 )
memory 2 gb

molecule MOL {
0 1

H	 2.308255	 -0.852004	 0.665069
C	 1.562534	 -0.087006	 0.801121
O	 0.462329	 -0.453336	 -0.000137
H	 1.970568	 0.866599	 0.490695
H	 1.285564	 -0.042322	 1.846840
C	 -0.590565	 0.341382	 0.000062
O	 -1.693898	 -0.053880	 0.000252
H	 -0.340426	 1.403822	 0.000200

	symmetry c1
}
set optking {
	frozen_dihedral = ("
		2 3 6 7
	")
}

ee = optimize('scf')
oeprop('DIPOLE', 'QUADRUPOLE', 'MULLIKEN_CHARGES')
f=open( 'psi4out.xyz', 'w' )
f.write( "8  " )
f.write( str(ee) + "\n" )
f.write( MOL.save_string_xyz() )
f.close()
--------------------------------------------------------------------------

    Molecular point group: c1
  Charge       = 0
  Multiplicity = 1
  Basis Set: CC-PVTZ
  Basis Set:
  @DF-RHF Final Energy:  -227.86578962737423
    Total Energy =                       -227.8657896273742836
    Molecular point group: c1
  Basis Set: CC-PVTZ
  Basis Set:
  Basis Set: CC-PVTZ
  Basis Set:
  @DF-RHF Final Energy:  -227.86578735923885
    Total Energy =                       -227.8657873592388228
  Basis Set: CC-PVTZ
  Basis Set:
  Basis Set: CC-PVTZ
  Basis Set:
  @DF-RHF Final Energy:  -227.86594692077131
    Total Energy =                       -227.8659469207712789
  Basis Set: CC-PVTZ
  Basis Set:
  Basis Set: CC-PVTZ
  Basis Set:
  @DF-RHF Final Energy:  -227.86613986006915
    Total Energy =                       -227.8661398600692678
  Basis Set: CC-PVTZ
  Basis Set:
  Basis Set: CC-PVTZ
  Basis Set:
  @DF-RHF Final Energy:  -227.86614198837651
    Total Energy =                       -227.8661419883767962
  Basis Set: CC-PVTZ
  Basis Set:
  Charge       = 0
  Multiplicity = 1
  Basis Set: CC-PVTZ
  Basis Set:

    Orbital Energies (a.u.)
    -----------------------

    Doubly Occupied:

       1A    -20.603878     2A    -20.553198     3A    -11.375314
       4A    -11.301464     5A     -1.477771     6A     -1.387678
       7A     -0.991456     8A     -0.847020     9A     -0.740645
      10A     -0.688975    11A     -0.682313    12A     -0.616022
      13A     -0.571234    14A     -0.531773    15A     -0.470913
      16A     -0.458871

  @DF-RHF Final Energy:  -227.86614220800945

   => Energetics <=

    Nuclear Repulsion Energy =            121.6077809052696068
    One-Electron Energy =                -552.3507980663760009
    Two-Electron Energy =                 202.8768749530969160
    DFT Exchange-Correlation Energy =       0.0000000000000000
    Empirical Dispersion Energy =           0.0000000000000000
    PCM Polarization Energy =               0.0000000000000000
    EFP Energy =                            0.0000000000000000
    Total Energy =                       -227.8661422080095065
    Molecular point group: c1
  Basis Set: CC-PVTZ
  Basis Set:

  -Total Gradient:
     Atom            X                  Y                   Z
    ------   -----------------  -----------------  -----------------
       1       -0.000027664261    -0.000003332272    -0.000022630622
       2       -0.001800506073    -0.001687230206     0.003804970553
       3        0.002738145359     0.002929223852    -0.002784035658
       4       -0.000006476130    -0.000019618707    -0.000013481503
       5        0.000004008220    -0.000004144051     0.000003731662
       6       -0.001027280406    -0.001934169312    -0.006723342978
       7        0.000108884545     0.000741049735     0.005740508316
       8        0.000010888747    -0.000021779042    -0.000005719769

  **** Optimization is complete! (in 6 steps) ****
    Final optimized geometry and variables:
    Molecular point group: c1

    Geometry (in Angstrom), charge = 0, multiplicity = 1:

    H            2.413175405073    -0.714278027327     0.344062998902
    C            1.609264411974    -0.038103674462     0.582879194116
    O            0.487074784844    -0.453152718423    -0.160327594220
    H            1.904464171368     0.971901488754     0.320020576646
    H            1.397099624684    -0.088180511033     1.642680952966
    C           -0.523408266909     0.399252058989    -0.259460840696
    O           -1.648901413461     0.081103647316    -0.203186944461
    H           -0.204810582595     1.435113853477    -0.388411930969

  Mulliken Charges: (a.u.)
   Center  Symbol    Alpha    Beta     Spin     Total
       1     H     0.44207  0.44207  0.00000  0.11585
       2     C     3.02812  3.02812  0.00000 -0.05623
       3     O     4.13059  4.13059  0.00000 -0.26119
       4     H     0.46528  0.46528  0.00000  0.06944
       5     H     0.45583  0.45583  0.00000  0.08834
       6     C     2.83419  2.83419  0.00000  0.33162
       7     O     4.16797  4.16797  0.00000 -0.33593
       8     H     0.47595  0.47595  0.00000  0.04810

   Total alpha = 16.00000, Total beta = 16.00000, Total charge = -0.00000
