  ==> Input File <==

--------------------------------------------------------------------------
set {
	reference rhf
	basis 6-31G*
}

set_num_threads( 4 )
memory 2 gb

molecule MOL {
0 1

O	 3.225979	 0.970355	 -0.599647
C	 2.701189	 0.057885	 -0.047330
C	 1.245376	 -0.013843	 0.345420
O	 3.347903	 -1.046386	 0.304773
C	 0.455112	 1.231400	 -0.050772
H	 0.838542	 -0.913825	 -0.103701
H	 1.208210	 -0.175333	 1.419774
C	 -0.998893	 1.219485	 0.433193
H	 0.482531	 1.345121	 -1.130325
H	 0.957290	 2.103070	 0.354729
C	 -1.725559	 2.563255	 0.326666
H	 -1.004967	 0.902838	 1.473587
H	 -1.557422	 0.462473	 -0.115432
C	 -3.134281	 2.526722	 0.922625
H	 -1.139949	 3.327838	 0.834891
H	 -1.792643	 2.871448	 -0.714242
C	 -3.871902	 3.862725	 0.817065
H	 -3.074735	 2.231777	 1.968902
H	 -3.717110	 1.755027	 0.422127
C	 -5.276447	 3.818816	 1.417919
H	 -3.290377	 4.635194	 1.315824
H	 -3.936254	 4.157075	 -0.228400
H	 -5.773463	 4.779794	 1.327903
H	 -5.243688	 3.561038	 2.472753
H	 -5.894257	 3.078788	 0.916977
C	 4.728119	 -1.109107	 -0.004993
H	 4.882018	 -1.033965	 -1.071845
H	 5.068212	 -2.067527	 0.355250
H	 5.265056	 -0.311663	 0.488280

	symmetry c1
}
set optking {
	frozen_dihedral = ("
		11 8 5 9
	")
}

ee = optimize('scf')
oeprop('DIPOLE', 'QUADRUPOLE', 'MULLIKEN_CHARGES')
f=open( 'psi4out.xyz', 'w' )
f.write( "29  " )
f.write( str(ee) + "\n" )
f.write( MOL.save_string_xyz() )
f.close()
--------------------------------------------------------------------------

    Molecular point group: c1
  Charge       = 0
  Multiplicity = 1
  Basis Set: 6-31G*
  Basis Set:
  @DF-RHF Final Energy:  -501.04458205131129
    Total Energy =                       -501.0445820513110675
    Molecular point group: c1
  Basis Set: 6-31G*
  Basis Set:
  Basis Set: 6-31G*
  Basis Set:
  @DF-RHF Final Energy:  -501.04519071264281
    Total Energy =                       -501.0451907126424658
  Basis Set: 6-31G*
  Basis Set:
  Basis Set: 6-31G*
  Basis Set:
  @DF-RHF Final Energy:  -501.04518344348173
    Total Energy =                       -501.0451834434818466
  Basis Set: 6-31G*
  Basis Set:
  Basis Set: 6-31G*
  Basis Set:
  @DF-RHF Final Energy:  -501.04507193084567
    Total Energy =                       -501.0450719308455518
  Basis Set: 6-31G*
  Basis Set:
  Basis Set: 6-31G*
  Basis Set:
  @DF-RHF Final Energy:  -501.04523495321780
    Total Energy =                       -501.0452349532182552
  Basis Set: 6-31G*
  Basis Set:
  Basis Set: 6-31G*
  Basis Set:
  @DF-RHF Final Energy:  -501.04523387112272
    Total Energy =                       -501.0452338711228322
  Basis Set: 6-31G*
  Basis Set:
  Basis Set: 6-31G*
  Basis Set:
  @DF-RHF Final Energy:  -501.04523772642176
    Total Energy =                       -501.0452377264219876
  Basis Set: 6-31G*
  Basis Set:
  Charge       = 0
  Multiplicity = 1
  Basis Set: 6-31G*
  Basis Set:

    Orbital Energies (a.u.)
    -----------------------

    Doubly Occupied:

       1A    -20.603436     2A    -20.545241     3A    -11.371998
       4A    -11.280708     5A    -11.235179     6A    -11.219038
       7A    -11.217499     8A    -11.214512     9A    -11.214139
      10A    -11.213091    11A    -11.208084    12A     -1.469116
      13A     -1.362559    14A     -1.097203    15A     -1.067115
      16A     -1.020231    17A     -0.977432    18A     -0.926784
      19A     -0.855495    20A     -0.801227    21A     -0.790024
      22A     -0.766615    23A     -0.696681    24A     -0.683694
      25A     -0.671369    26A     -0.657463    27A     -0.630535
      28A     -0.597641    29A     -0.591537    30A     -0.584051
      31A     -0.566121    32A     -0.550287    33A     -0.529942
      34A     -0.522146    35A     -0.516705    36A     -0.514536
      37A     -0.490339    38A     -0.480818    39A     -0.469387
      40A     -0.461986    41A     -0.460911    42A     -0.455486
      43A     -0.446436    44A     -0.430900

  @DF-RHF Final Energy:  -501.04523788944698

   => Energetics <=

    Nuclear Repulsion Energy =            601.9156736527756948
    One-Electron Energy =               -1874.9904229034432319
    Two-Electron Energy =                 772.0295113612207842
    DFT Exchange-Correlation Energy =       0.0000000000000000
    Empirical Dispersion Energy =           0.0000000000000000
    PCM Polarization Energy =               0.0000000000000000
    EFP Energy =                            0.0000000000000000
    Total Energy =                       -501.0452378894467529
    Molecular point group: c1
  Basis Set: 6-31G*
  Basis Set:

  -Total Gradient:
     Atom            X                  Y                   Z
    ------   -----------------  -----------------  -----------------
       1        0.000005882752     0.000010805828     0.000015010071
       2       -0.000016022563    -0.000009320209    -0.000025343567
       3        0.000003930965    -0.000020078627    -0.000028393578
       4       -0.000002312034    -0.000003609437     0.000000365920
       5        0.000205738185     0.002962274440     0.000865233416
       6        0.000008648735     0.000004743096     0.000012929087
       7       -0.000000340461     0.000013807811     0.000011305929
       8       -0.000730750289    -0.001142539451    -0.002142502793
       9        0.000015962721    -0.002251134088    -0.000202126082
      10        0.000000350274    -0.000006174565    -0.000004711226
      11        0.000507168557     0.000444147059     0.001509077561
      12        0.000006983572     0.000007840303    -0.000010246864
      13       -0.000008782777    -0.000005457679     0.000002530539
      14        0.000004326888    -0.000001845523     0.000000781817
      15        0.000008134731     0.000001734226     0.000002888623
      16       -0.000005172735    -0.000002307592     0.000004597655
      17       -0.000001372534    -0.000004640215    -0.000019659941
      18        0.000000289229    -0.000002059642     0.000001641620
      19       -0.000003349163     0.000001127037     0.000001311014
      20        0.000003718525    -0.000001273786     0.000008768692
      21       -0.000000629390    -0.000001662878    -0.000002420636
      22       -0.000000465690     0.000000363231    -0.000003888538
      23        0.000003365475     0.000001011974     0.000003919641
      24       -0.000001865347    -0.000004476678    -0.000000320872
      25        0.000000255753     0.000003438563    -0.000003284980
      26       -0.000002130434     0.000005169975     0.000001884747
      27       -0.000000787231    -0.000000033225    -0.000000250274
      28       -0.000001715034     0.000000023612     0.000000776775
      29        0.000000939300     0.000000126437     0.000000126244

  **** Optimization is complete! (in 8 steps) ****
    Final optimized geometry and variables:
    Molecular point group: c1

    Geometry (in Angstrom), charge = 0, multiplicity = 1:

    O            3.086359545886    -0.336433635093    -1.065104898109
    C            2.591483011778    -1.203894728008    -0.420303790018
    C            1.175957755193    -1.210848502371     0.103204137668
    O            3.239893861427    -2.306902825364    -0.067855184465
    C            0.381826869854     0.036064484376    -0.277561910597
    H            0.696074097953    -2.111997163002    -0.269086982958
    H            1.229853674255    -1.329269760341     1.181926321759
    C           -1.059778000312    -0.021015394535     0.234048510939
    H            0.384512029317     0.130402785556    -1.358743717682
    H            0.885135287244     0.914327214819     0.113244369450
    C           -1.796258793940     1.312798310008     0.096944446454
    H           -1.061747297528    -0.315045768804     1.282730412571
    H           -1.603948021421    -0.798040552081    -0.299560186464
    C           -3.247987359923     1.253337706110     0.574874034708
    H           -1.261299392491     2.073697461092     0.661929627339
    H           -1.772539983923     1.633650235427    -0.943160550738
    C           -3.982135635740     2.589482844045     0.448581573295
    H           -3.272453034025     0.927882637347     1.613775843958
    H           -3.783935859178     0.495013971665     0.006302516729
    C           -5.431800006182     2.522539329575     0.927819943471
    H           -3.448960310404     3.348153105436     1.017558702915
    H           -3.959998553400     2.915491731738    -0.589095265029
    H           -5.924748936721     3.484534926452     0.826826021376
    H           -5.486250388193     2.231260174791     1.973056743860
    H           -6.001507100060     1.797235287622     0.353647902184
    C            4.584460347070    -2.426287928750    -0.495424459833
    H            4.643033344113    -2.410957519101    -1.574247114894
    H            4.931865503987    -3.374434614441    -0.115544564708
    H            5.183368455790    -1.620608746634    -0.095774021867

  Mulliken Charges: (a.u.)
   Center  Symbol    Alpha    Beta     Spin     Total
       1     O     4.28615  4.28615  0.00000 -0.57230
       2     C     2.60483  2.60483  0.00000  0.79035
       3     C     3.20876  3.20876  0.00000 -0.41752
       4     O     4.30741  4.30741  0.00000 -0.61483
       5     C     3.15224  3.15224  0.00000 -0.30447
       6     H     0.40078  0.40078  0.00000  0.19844
       7     H     0.40072  0.40072  0.00000  0.19855
       8     C     3.15472  3.15472  0.00000 -0.30944
       9     H     0.41118  0.41118  0.00000  0.17765
      10     H     0.41177  0.41177  0.00000  0.17646
      11     C     3.15210  3.15210  0.00000 -0.30420
      12     H     0.42451  0.42451  0.00000  0.15098
      13     H     0.42249  0.42249  0.00000  0.15503
      14     C     3.15085  3.15085  0.00000 -0.30170
      15     H     0.42233  0.42233  0.00000  0.15534
      16     H     0.42197  0.42197  0.00000  0.15605
      17     C     3.15149  3.15149  0.00000 -0.30298
      18     H     0.42442  0.42442  0.00000  0.15117
      19     H     0.42417  0.42417  0.00000  0.15165
      20     C     3.23929  3.23929  0.00000 -0.47857
      21     H     0.42287  0.42287  0.00000  0.15426
      22     H     0.42265  0.42265  0.00000  0.15469
      23     H     0.41925  0.41925  0.00000  0.16150
      24     H     0.42201  0.42201  0.00000  0.15597
      25     H     0.42194  0.42194  0.00000  0.15612
      26     C     3.09242  3.09242  0.00000 -0.18485
      27     H     0.40910  0.40910  0.00000  0.18179
      28     H     0.40846  0.40846  0.00000  0.18307
      29     H     0.40911  0.40911  0.00000  0.18178

   Total alpha = 44.00000, Total beta = 44.00000, Total charge =  0.00000
