                              Psi4 1.0.54 Driver

  ==> Input File <==

--------------------------------------------------------------------------
set {
	reference rhf
	basis cc-pvtz
}

set_num_threads( 4 )
memory 2 gb

molecule MOL {
0 1

H	 3.721907	 -0.933076	 -0.066039
O	 2.824271	 -1.154299	 0.131461
C	 2.076458	 -0.067370	 -0.038225
C	 0.626018	 -0.337582	 0.258241
O	 2.538288	 0.965419	 -0.381593
C	 -0.267326	 0.883135	 0.076490
H	 0.325620	 -1.161483	 -0.378003
H	 0.574537	 -0.713685	 1.275261
C	 -1.726822	 0.642622	 0.463839
H	 -0.210803	 1.217591	 -0.953497
H	 0.129920	 1.693110	 0.675679
C	 -2.307382	 1.646921	 1.458009
H	 -1.800885	 -0.351479	 0.894574
H	 -2.342281	 0.628210	 -0.433071
C	 -3.728656	 1.296733	 1.886756
H	 -1.667267	 1.690735	 2.335145
H	 -2.305767	 2.643512	 1.028173
H	 -4.115813	 2.022421	 2.592568
H	 -3.765105	 0.321651	 2.360660
H	 -4.399716	 1.273921	 1.034516

	symmetry c1
}
set optking {
	frozen_dihedral = ("
		12 9 6 10
	")
}

ee,wfn = optimize('scf', return_wfn=True)
oeprop( wfn, 'DIPOLE', 'QUADRUPOLE', 'MULLIKEN_CHARGES')
f=open( 'psi4out.xyz', 'w' )
f.write( "20  " )
f.write( str(ee) + "\n" )
f.write( MOL.save_string_xyz() )
f.close()
--------------------------------------------------------------------------

    Molecular point group: c1
  Charge       = 0
  Multiplicity = 1
  Basis Set: CC-PVTZ
  Basis Set:
  @DF-RHF Final Energy:  -384.09079241156934
    Total Energy =                       -384.0907924115695096
    Molecular point group: c1
  Basis Set: CC-PVTZ
  Basis Set:
  Basis Set: CC-PVTZ
  Basis Set:
  @DF-RHF Final Energy:  -384.09021797851045
    Total Energy =                       -384.0902179785107364
  Basis Set: CC-PVTZ
  Basis Set:
  Basis Set: CC-PVTZ
  Basis Set:
  @DF-RHF Final Energy:  -384.09144893896865
    Total Energy =                       -384.0914489389687105
  Basis Set: CC-PVTZ
  Basis Set:
  Basis Set: CC-PVTZ
  Basis Set:
  @DF-RHF Final Energy:  -384.09143079807853
    Total Energy =                       -384.0914307980784770
  Basis Set: CC-PVTZ
  Basis Set:
  Basis Set: CC-PVTZ
  Basis Set:
  @DF-RHF Final Energy:  -384.09131838356478
    Total Energy =                       -384.0913183835644986
  Basis Set: CC-PVTZ
  Basis Set:
  Basis Set: CC-PVTZ
  Basis Set:
  @DF-RHF Final Energy:  -384.09149104325161
    Total Energy =                       -384.0914910432514944
  Basis Set: CC-PVTZ
  Basis Set:
  Basis Set: CC-PVTZ
  Basis Set:
  @DF-RHF Final Energy:  -384.09149515724903
    Total Energy =                       -384.0914951572490281
  Basis Set: CC-PVTZ
  Basis Set:
  Charge       = 0
  Multiplicity = 1
  Basis Set: CC-PVTZ
  Basis Set:

    Orbital Energies (a.u.)
    -----------------------

    Doubly Occupied:

       1A    -20.603895     2A    -20.540579     3A    -11.373238
       4A    -11.239502     5A    -11.220633     6A    -11.218168
       7A    -11.217286     8A    -11.209335     9A     -1.477449
      10A     -1.368974    11A     -1.095370    12A     -1.043779
      13A     -0.959381    14A     -0.870382    15A     -0.807254
      16A     -0.790294    17A     -0.703690    18A     -0.691103
      19A     -0.667777    20A     -0.637218    21A     -0.602190
      22A     -0.596012    23A     -0.570794    24A     -0.560896
      25A     -0.543449    26A     -0.505833    27A     -0.495580
      28A     -0.484330    29A     -0.473483    30A     -0.467504
      31A     -0.459882    32A     -0.443697

  @DF-RHF Final Energy:  -384.09149525809124

   => Energetics <=

    Nuclear Repulsion Energy =            372.8337140401013698
    One-Electron Energy =               -1261.9724954640171291
    Two-Electron Energy =                 505.0472861658242891
    DFT Exchange-Correlation Energy =       0.0000000000000000
    Empirical Dispersion Energy =           0.0000000000000000
    PCM Polarization Energy =               0.0000000000000000
    EFP Energy =                            0.0000000000000000
    Total Energy =                       -384.0914952580915269
    Molecular point group: c1
  Basis Set: CC-PVTZ
  Basis Set:

  -Total Gradient:
     Atom            X                  Y                   Z
    ------   -----------------  -----------------  -----------------
       1        0.000007673976    -0.000008181552     0.000000262426
       2        0.000013506790     0.000017561528    -0.000005197643
       3       -0.000015875034     0.000001208544    -0.000000772912
       4       -0.000003060414     0.000005077917    -0.000006266683
       5        0.000006838311    -0.000017508343     0.000008730063
       6       -0.000018400824     0.001948352471     0.001374574126
       7       -0.000001364200     0.000002695317     0.000003303895
       8       -0.000000880093    -0.000002783603     0.000003561317
       9       -0.000492219190     0.000898772954    -0.001643043703
      10        0.000133450201    -0.001872873719    -0.000792577482
      11       -0.000008940700    -0.000003210456     0.000001058839
      12        0.000388998356    -0.000964197999     0.001054274710
      13        0.000004021697     0.000002140706     0.000003976208
      14        0.000007095509     0.000000416765     0.000001742236
      15       -0.000028135113    -0.000005345537     0.000001196691
      16       -0.000002753072     0.000003971608    -0.000010455314
      17        0.000004682796    -0.000012431078     0.000002800015
      18       -0.000000538881    -0.000003564751    -0.000001412273
      19        0.000002342875     0.000010911647    -0.000005571091
      20        0.000003557009    -0.000001012422     0.000009816574

  **** Optimization is complete! (in 8 steps) ****
    Final optimized geometry and variables:
    Molecular point group: c1

    Geometry (in Angstrom), charge = 0, multiplicity = 1:

    H            3.592579343042    -1.563427767095    -0.702685458729
    O            2.687335553959    -1.741543996270    -0.496377078253
    C            2.008957826600    -0.599120433906    -0.559153520238
    C            0.551686635818    -0.797308407112    -0.240528132114
    O            2.528807948942     0.426416962208    -0.835227867523
    C           -0.270881644252     0.483738699255    -0.302432438939
    H            0.171909503596    -1.543264812839    -0.931132859841
    H            0.499064230013    -1.252206475041     0.743388700662
    C           -1.760328227825     0.245396144526     0.014480460173
    H           -0.159899856696     0.909990250965    -1.291031168544
    H            0.150828053177     1.203723318789     0.387396153876
    C           -2.313068666693     1.187333470051     1.081819226854
    H           -1.907703599004    -0.776703480331     0.352956563833
    H           -2.350058827716     0.344393423028    -0.891033552372
    C           -3.790402477993     0.956384588364     1.378478070138
    H           -1.736654826988     1.065297525866     1.994855420270
    H           -2.164342285956     2.215876703832     0.764851462748
    H           -4.148107257052     1.636319603278     2.142960253445
    H           -3.966399853081    -0.055803481677     1.727647649755
    H           -4.396098947209     1.108297225033     0.491292536358

  Mulliken Charges: (a.u.)
   Center  Symbol    Alpha    Beta     Spin     Total
       1     H     0.38238  0.38238  0.00000  0.23524
       2     O     4.16011  4.16011  0.00000 -0.32021
       3     C     2.80719  2.80719  0.00000  0.38563
       4     C     3.11024  3.11024  0.00000 -0.22048
       5     O     4.19117  4.19117  0.00000 -0.38234
       6     C     3.09137  3.09137  0.00000 -0.18274
       7     H     0.43627  0.43627  0.00000  0.12746
       8     H     0.43767  0.43767  0.00000  0.12465
       9     C     3.09360  3.09360  0.00000 -0.18721
      10     H     0.44202  0.44202  0.00000  0.11595
      11     H     0.44515  0.44515  0.00000  0.10971
      12     C     3.08343  3.08343  0.00000 -0.16686
      13     H     0.45653  0.45653  0.00000  0.08694
      14     H     0.44900  0.44900  0.00000  0.10200
      15     C     3.15043  3.15043  0.00000 -0.30085
      16     H     0.45435  0.45435  0.00000  0.09129
      17     H     0.45133  0.45133  0.00000  0.09734
      18     H     0.44774  0.44774  0.00000  0.10451
      19     H     0.45536  0.45536  0.00000  0.08929
      20     H     0.45465  0.45465  0.00000  0.09071

   Total alpha = 32.00000, Total beta = 32.00000, Total charge = -0.00000

*** Psi4 exiting successfully. Buy a developer a beer!
