  ==> Input File <==

--------------------------------------------------------------------------
set {
	reference rhf
	basis 6-31G*
}

set_num_threads( 1 )
memory 2 gb

molecule MOL {
0 1

O	 -0.966305	 -2.829703	 -0.733647
C	 -0.780536	 -1.832268	 -1.362175
C	 -0.889235	 -0.467034	 -0.705952
C	 -0.398384	 -1.875192	 -2.824875
C	 0.379448	 -0.143569	 0.099626
H	 -1.744880	 -0.489510	 -0.039866
H	 -1.061635	 0.303198	 -1.452307
C	 1.631333	 -0.777471	 -0.511575
H	 0.482768	 0.934507	 0.149241
H	 0.263088	 -0.495696	 1.123449
C	 2.915987	 -0.544314	 0.291766
H	 1.766672	 -0.399098	 -1.523130
H	 1.471257	 -1.849544	 -0.605828
C	 3.373361	 0.914346	 0.347591
H	 3.708709	 -1.142521	 -0.150311
H	 2.780642	 -0.921148	 1.303579
H	 3.506512	 1.320010	 -0.651625
H	 4.322697	 0.999599	 0.867103
H	 2.660624	 1.545032	 0.868198
H	 -1.198159	 -1.447863	 -3.424053
H	 -0.226017	 -2.897112	 -3.132694
H	 0.491456	 -1.279640	 -3.007376

	symmetry c1
}
set optking {
	frozen_dihedral = ("
		6 3 2 1,
		3 5 8 12,
		12 8 11 15
	")
}

ee = energy('scf')
oeprop('DIPOLE', 'QUADRUPOLE', 'MULLIKEN_CHARGES')
f=open( 'psi4out.xyz', 'w' )
f.write( "22  " )
f.write( str(ee) + "\n" )
f.write( MOL.save_string_xyz() )
f.close()
--------------------------------------------------------------------------

    Molecular point group: c1

    Geometry (in Angstrom), charge = 0, multiplicity = 1:

       Center              X                  Y                   Z               Mass
    ------------   -----------------  -----------------  -----------------  -----------------
           O         -1.638375389650    -1.884672427962    -0.054680746434    15.994914619560
           C         -1.452606389650    -0.887237427962    -0.683208746434    12.000000000000
           C         -1.561305389650     0.477996572038    -0.026985746434    12.000000000000
           C         -1.070454389650    -0.930161427962    -2.145908746434    12.000000000000
           C         -0.292622389650     0.801461572038     0.778592253566    12.000000000000
           H         -2.416950389650     0.455520572038     0.639100253566     1.007825032070
           H         -1.733705389650     1.248228572038    -0.773340746434     1.007825032070
           C          0.959262610350     0.167559572038     0.167391253566    12.000000000000
           H         -0.189302389650     1.879537572038     0.828207253566     1.007825032070
           H         -0.408982389650     0.449334572038     1.802415253566     1.007825032070
           C          2.243916610350     0.400716572038     0.970732253566    12.000000000000
           H          1.094601610350     0.545932572038    -0.844163746434     1.007825032070
           H          0.799186610350    -0.904513427962     0.073138253566     1.007825032070
           C          2.701290610350     1.859376572038     1.026557253566    12.000000000000
           H          3.036638610350    -0.197490427962     0.528655253566     1.007825032070
           H          2.108571610350     0.023882572038     1.982545253566     1.007825032070
           H          2.834441610350     2.265040572038     0.027341253566     1.007825032070
           H          3.650626610350     1.944629572038     1.546069253566     1.007825032070
           H          1.988553610350     2.490062572038     1.547164253566     1.007825032070
           H         -1.870229389650    -0.502832427962    -2.745086746434     1.007825032070
           H         -0.898087389650    -1.952081427962    -2.453727746434     1.007825032070
           H         -0.180614389650    -0.334609427962    -2.328409746434     1.007825032070

  Charge       = 0
  Multiplicity = 1
  Basis Set: 6-31G*
  Basis Set:

    Orbital Energies (a.u.)
    -----------------------

    Doubly Occupied:

       1A    -20.545803     2A    -11.324132     3A    -11.228844
       4A    -11.228148     5A    -11.226454     6A    -11.221233
       7A    -11.220061     8A    -11.212674     9A     -1.392936
      10A     -1.098284    11A     -1.042399    12A     -0.997794
      13A     -0.939823    14A     -0.858655    15A     -0.793240
      16A     -0.725640    17A     -0.662138    18A     -0.636779
      19A     -0.631923    20A     -0.621731    21A     -0.599847
      22A     -0.582289    23A     -0.561278    24A     -0.549049
      25A     -0.531548    26A     -0.529286    27A     -0.493925
      28A     -0.486034    29A     -0.467942    30A     -0.464051
      31A     -0.454199    32A     -0.396304

  @DF-RHF Final Energy:  -348.08937586044686

   => Energetics <=

    Nuclear Repulsion Energy =            386.2140957435182713
    One-Electron Energy =               -1237.1578429578103169
    Two-Electron Energy =                 502.8543713538460338
    DFT Exchange-Correlation Energy =       0.0000000000000000
    Empirical Dispersion Energy =           0.0000000000000000
    PCM Polarization Energy =               0.0000000000000000
    EFP Energy =                            0.0000000000000000
    Total Energy =                       -348.0893758604459549

  Mulliken Charges: (a.u.)
   Center  Symbol    Alpha    Beta     Spin     Total
       1     O     4.26332  4.26332  0.00000 -0.52665
       2     C     2.74491  2.74491  0.00000  0.51017
       3     C     3.19961  3.19961  0.00000 -0.39922
       4     C     3.28807  3.28807  0.00000 -0.57615
       5     C     3.15278  3.15278  0.00000 -0.30555
       6     H     0.39923  0.39923  0.00000  0.20155
       7     H     0.41625  0.41625  0.00000  0.16749
       8     C     3.17503  3.17503  0.00000 -0.35006
       9     H     0.41453  0.41453  0.00000  0.17094
      10     H     0.41060  0.41060  0.00000  0.17879
      11     C     3.15109  3.15109  0.00000 -0.30217
      12     H     0.42492  0.42492  0.00000  0.15016
      13     H     0.40569  0.40569  0.00000  0.18861
      14     C     3.24189  3.24189  0.00000 -0.48379
      15     H     0.41921  0.41921  0.00000  0.16158
      16     H     0.41985  0.41985  0.00000  0.16029
      17     H     0.42269  0.42269  0.00000  0.15461
      18     H     0.41752  0.41752  0.00000  0.16496
      19     H     0.42029  0.42029  0.00000  0.15942
      20     H     0.40769  0.40769  0.00000  0.18462
      21     H     0.39791  0.39791  0.00000  0.20418
      22     H     0.40690  0.40690  0.00000  0.18620

   Total alpha = 32.00000, Total beta = 32.00000, Total charge =  0.00000
