                              Psi4 1.0.54 Driver

  ==> Input File <==

--------------------------------------------------------------------------
set {
	reference rhf
	basis cc-pvtz
}

set_num_threads( 4 )
memory 2 gb

molecule MOL {
0 1

O	 0.749630	 1.305591	 -0.000460
C	 0.576499	 0.134701	 -0.003900
C	 -0.765656	 -0.550508	 -0.002152
O	 1.564816	 -0.744612	 -0.000631
C	 -1.945526	 0.411052	 0.000603
H	 -0.794329	 -1.203792	 -0.868145
H	 -0.791555	 -1.205429	 0.862701
C	 -3.282915	 -0.321280	 0.002596
H	 -1.880300	 1.059126	 -0.864925
H	 -1.877207	 1.057892	 0.866807
H	 -3.388495	 -0.952755	 -0.873419
H	 -4.107811	 0.380864	 0.004116
H	 -3.385717	 -0.953283	 0.878571
C	 1.414476	 -1.892901	 -0.811088
H	 0.548947	 -2.462814	 -0.507586
H	 2.311074	 -2.474507	 -0.671314
H	 1.307799	 -1.615423	 -1.849196

	symmetry c1
}
set optking {
	frozen_dihedral = ("
		14 4 2 1
	")
}

ee,wfn = optimize('scf', return_wfn=True)
oeprop( wfn, 'DIPOLE', 'QUADRUPOLE', 'MULLIKEN_CHARGES')
f=open( 'psi4out.xyz', 'w' )
f.write( "17  " )
f.write( str(ee) + "\n" )
f.write( MOL.save_string_xyz() )
f.close()
--------------------------------------------------------------------------

    Molecular point group: c1
  Charge       = 0
  Multiplicity = 1
  Basis Set: CC-PVTZ
  Basis Set:
  @DF-RHF Final Energy:  -345.01096987768727
    Total Energy =                       -345.0109698776876144
    Molecular point group: c1
  Basis Set: CC-PVTZ
  Basis Set:
  Basis Set: CC-PVTZ
  Basis Set:
  @DF-RHF Final Energy:  -344.78238877017401
    Total Energy =                       -344.7823887701743502
  Basis Set: CC-PVTZ
  Basis Set:
  Basis Set: CC-PVTZ
  Basis Set:
  @DF-RHF Final Energy:  -344.91905494931814
    Total Energy =                       -344.9190549493182516
  Basis Set: CC-PVTZ
  Basis Set:
  Basis Set: CC-PVTZ
  Basis Set:
  @DF-RHF Final Energy:  -345.00558984515260
    Total Energy =                       -345.0055898451524854
  Basis Set: CC-PVTZ
  Basis Set:
  @DF-RHF Final Energy:  -345.01613430724728
    Total Energy =                       -345.0161343072471709
  @DF-RHF Final Energy:  -345.01805525747517
    Total Energy =                       -345.0180552574751687
  Basis Set: CC-PVTZ
  Basis Set:
  @DF-RHF Final Energy:  -345.01831902160040
    Total Energy =                       -345.0183190216006892
  Basis Set: CC-PVTZ
  Basis Set:
  Basis Set: CC-PVTZ
  Basis Set:
  @DF-RHF Final Energy:  -345.01825359606784
    Total Energy =                       -345.0182535960678365
  Basis Set: CC-PVTZ
  Basis Set:
  Basis Set: CC-PVTZ
  Basis Set:
  @DF-RHF Final Energy:  -345.01833685892910
    Total Energy =                       -345.0183368589293877
  Basis Set: CC-PVTZ
  Basis Set:
  Charge       = 0
  Multiplicity = 1
  Basis Set: CC-PVTZ
  Basis Set:

    Orbital Energies (a.u.)
    -----------------------

    Doubly Occupied:

       1A    -20.588346     2A    -20.535570     3A    -11.367076
       4A    -11.292891     5A    -11.242579     6A    -11.224379
       7A    -11.216724     8A     -1.464034     9A     -1.369747
      10A     -1.083513    11A     -0.989190    12A     -0.966537
      13A     -0.838944    14A     -0.767200    15A     -0.704287
      16A     -0.687149    17A     -0.676882    18A     -0.641597
      19A     -0.610636    20A     -0.581391    21A     -0.569425
      22A     -0.547834    23A     -0.524237    24A     -0.497690
      25A     -0.491846    26A     -0.484148    27A     -0.455376
      28A     -0.436361

  @DF-RHF Final Energy:  -345.01833768583202

   => Energetics <=

    Nuclear Repulsion Energy =            314.2246157376370661
    One-Electron Energy =               -1092.7747337968628472
    Two-Electron Energy =                 433.5317803733943265
    DFT Exchange-Correlation Energy =       0.0000000000000000
    Empirical Dispersion Energy =           0.0000000000000000
    PCM Polarization Energy =               0.0000000000000000
    EFP Energy =                            0.0000000000000000
    Total Energy =                       -345.0183376858313977
    Molecular point group: c1
  Basis Set: CC-PVTZ
  Basis Set:

  -Total Gradient:
     Atom            X                  Y                   Z
    ------   -----------------  -----------------  -----------------
       1       -0.001259585239    -0.000827727029    -0.003589090978
       2        0.001802259401     0.001909008366     0.003546404620
       3       -0.000050442313     0.000042984709    -0.000091790759
       4       -0.000584252337    -0.002359115101     0.003161020685
       5        0.000014495373    -0.000025967335     0.000010469509
       6        0.000007516761    -0.000016318929     0.000031726364
       7        0.000034149637    -0.000004288178     0.000016475512
       8       -0.000009705954     0.000013212706     0.000000789321
       9        0.000000411796     0.000011357640    -0.000012198718
      10       -0.000005892490     0.000012456123    -0.000001235519
      11       -0.000003148202    -0.000001091674    -0.000001088716
      12        0.000010301126    -0.000007632021    -0.000002657540
      13       -0.000000841522    -0.000009802031     0.000010138391
      14        0.000053129511     0.001281984189    -0.003081874844
      15       -0.000017094694     0.000003958463     0.000011983448
      16        0.000000228095    -0.000016937660    -0.000017628881
      17        0.000008471055    -0.000006082235     0.000008558103

  **** Optimization is complete! (in 10 steps) ****
    Final optimized geometry and variables:
    Molecular point group: c1

    Geometry (in Angstrom), charge = 0, multiplicity = 1:

    O            0.529666107224     1.611871343134    -0.526086024456
    C            0.634608951738     0.463880187303    -0.287361331482
    C           -0.465881463937    -0.370893264758     0.329072072917
    O            1.790961585684    -0.161915625530    -0.539334146939
    C           -1.664392020144     0.452010879038     0.783137428028
    H           -0.778284536168    -1.114314608747    -0.398173896755
    H           -0.038790884797    -0.924620812988     1.159599917947
    C           -2.755714701511    -0.415624292998     1.400460741135
    H           -2.059446097545     1.000611851509    -0.062262034167
    H           -1.334874521989     1.196267839602     1.497784673161
    H           -3.127058193821    -1.148422340948     0.691294344861
    H           -3.595883756353     0.189997560744     1.717614497356
    H           -2.390341536111    -0.953151976504     2.269439159624
    C            1.813010891898    -1.462031684067    -1.075052307491
    H            1.454739832851    -2.199728587552    -0.368687878510
    H            2.843962309894    -1.672845881468    -1.307968354496
    H            1.229165974998    -1.517909899575    -1.985557468089

  Mulliken Charges: (a.u.)
   Center  Symbol    Alpha    Beta     Spin     Total
       1     O     4.17299  4.17299  0.00000 -0.34598
       2     C     2.80244  2.80244  0.00000  0.39511
       3     C     3.12598  3.12598  0.00000 -0.25196
       4     O     4.14054  4.14054  0.00000 -0.28108
       5     C     3.08102  3.08102  0.00000 -0.16205
       6     H     0.44398  0.44398  0.00000  0.11204
       7     H     0.43801  0.43801  0.00000  0.12397
       8     C     3.15018  3.15018  0.00000 -0.30036
       9     H     0.44339  0.44339  0.00000  0.11322
      10     H     0.44478  0.44478  0.00000  0.11045
      11     H     0.45663  0.45663  0.00000  0.08673
      12     H     0.44429  0.44429  0.00000  0.11142
      13     H     0.45601  0.45601  0.00000  0.08798
      14     C     3.04645  3.04645  0.00000 -0.09291
      15     H     0.46069  0.46069  0.00000  0.07861
      16     H     0.43468  0.43468  0.00000  0.13063
      17     H     0.45792  0.45792  0.00000  0.08417

   Total alpha = 28.00000, Total beta = 28.00000, Total charge =  0.00000

*** Psi4 exiting successfully. Buy a developer a beer!
