                              Psi4 1.0.54 Driver

  ==> Input File <==

--------------------------------------------------------------------------
set {
	reference rhf
	basis cc-pvtz
}

set_num_threads( 4 )
memory 2 gb

molecule MOL {
0 1

H	 -0.894442	 3.896901	 1.573850
O	 -0.079658	 3.417786	 1.591011
C	 -0.220914	 2.320329	 0.853062
C	 1.038472	 1.497228	 0.831081
O	 -1.233370	 2.059714	 0.300808
C	 0.926581	 0.227233	 0.000178
H	 1.291399	 1.273242	 1.862383
H	 1.833103	 2.139528	 0.465392
C	 2.220156	 -0.582071	 -0.000088
H	 0.113283	 -0.379574	 0.381972
H	 0.655649	 0.487767	 -1.016748
C	 3.466689	 0.296012	 -0.000457
H	 2.239073	 -1.234095	 -0.869382
H	 2.239505	 -1.233985	 0.869270
H	 3.493549	 0.935857	 -0.875887
H	 4.368821	 -0.304526	 -0.001199
H	 3.494559	 0.935166	 0.875458

	symmetry c1
}
set optking {
	frozen_dihedral = ("
		10 6 9 13
	")
}

ee,wfn = optimize('scf', return_wfn=True)
oeprop( wfn, 'DIPOLE', 'QUADRUPOLE', 'MULLIKEN_CHARGES')
f=open( 'psi4out.xyz', 'w' )
f.write( "17  " )
f.write( str(ee) + "\n" )
f.write( MOL.save_string_xyz() )
f.close()
--------------------------------------------------------------------------

    Molecular point group: c1
  Charge       = 0
  Multiplicity = 1
  Basis Set: CC-PVTZ
  Basis Set:
  @DF-RHF Final Energy:  -345.04175246870312
    Total Energy =                       -345.0417524687032937
    Molecular point group: c1
  Basis Set: CC-PVTZ
  Basis Set:
  Basis Set: CC-PVTZ
  Basis Set:
  @DF-RHF Final Energy:  -345.03488841569254
    Total Energy =                       -345.0348884156925351
  Basis Set: CC-PVTZ
  Basis Set:
  Basis Set: CC-PVTZ
  Basis Set:
  @DF-RHF Final Energy:  -345.04384953699042
    Total Energy =                       -345.0438495369907059
  Basis Set: CC-PVTZ
  Basis Set:
  Basis Set: CC-PVTZ
  Basis Set:
  @DF-RHF Final Energy:  -345.04424306312086
    Total Energy =                       -345.0442430631209163
  Basis Set: CC-PVTZ
  Basis Set:
  @DF-RHF Final Energy:  -345.04281870337257
    Total Energy =                       -345.0428187033726317
  @DF-RHF Final Energy:  -345.04430234543656
    Total Energy =                       -345.0443023454365630
  @DF-RHF Final Energy:  -345.04431668075767
    Total Energy =                       -345.0443166807580155
  @DF-RHF Final Energy:  -345.04431777047870
    Total Energy =                       -345.0443177704788127
  @DF-RHF Final Energy:  -345.04214462163702
    Total Energy =                       -345.0421446216368508
  @DF-RHF Final Energy:  -345.03651016965642
    Total Energy =                       -345.0365101696565944
  Basis Set: CC-PVTZ
  Basis Set:
  @DF-RHF Final Energy:  -345.04390643849803
    Total Energy =                       -345.0439064384979133
  Basis Set: CC-PVTZ
  Basis Set:
  Basis Set: CC-PVTZ
  Basis Set:
  @DF-RHF Final Energy:  -345.04429732666637
    Total Energy =                       -345.0442973266664808
  Basis Set: CC-PVTZ
  Basis Set:
  Basis Set: CC-PVTZ
  Basis Set:
  @DF-RHF Final Energy:  -345.04431670128832
    Total Energy =                       -345.0443167012884942
  Basis Set: CC-PVTZ
  Basis Set:
  Charge       = 0
  Multiplicity = 1
  Basis Set: CC-PVTZ
  Basis Set:

    Orbital Energies (a.u.)
    -----------------------

    Doubly Occupied:

       1A    -20.603781     2A    -20.540413     3A    -11.373274
       4A    -11.238430     5A    -11.221743     6A    -11.221134
       7A    -11.213209     8A     -1.477415     9A     -1.368847
      10A     -1.091816    11A     -1.015935    12A     -0.920933
      13A     -0.833728    14A     -0.775071    15A     -0.703578
      16A     -0.693364    17A     -0.669959    18A     -0.628733
      19A     -0.606772    20A     -0.580128    21A     -0.562395
      22A     -0.548609    23A     -0.522739    24A     -0.484509
      25A     -0.477404    26A     -0.471825    27A     -0.470012
      28A     -0.447051

  @DF-RHF Final Energy:  -345.04431778591544

   => Energetics <=

    Nuclear Repulsion Energy =            308.7536406004018659
    One-Electron Energy =               -1082.0703026829405644
    Two-Electron Energy =                 428.2723442966230891
    DFT Exchange-Correlation Energy =       0.0000000000000000
    Empirical Dispersion Energy =           0.0000000000000000
    PCM Polarization Energy =               0.0000000000000000
    EFP Energy =                            0.0000000000000000
    Total Energy =                       -345.0443177859155526
    Molecular point group: c1
  Basis Set: CC-PVTZ
  Basis Set:

  -Total Gradient:
     Atom            X                  Y                   Z
    ------   -----------------  -----------------  -----------------
       1       -0.000028266488     0.000023413236     0.000007211951
       2       -0.000003945959    -0.000136490331    -0.000098657317
       3        0.000093305349     0.000187403370     0.000164030711
       4       -0.000024242105     0.000005538844    -0.000036565395
       5       -0.000068958380    -0.000038133268    -0.000056121332
       6       -0.001820873472    -0.000843870095    -0.007026307215
       7        0.000016950361    -0.000015195888    -0.000001387684
       8        0.000011298454    -0.000002130737     0.000003515067
       9       -0.002826057665    -0.004388051037     0.004981383801
      10        0.001950929782     0.001349992928     0.005204173366
      11       -0.000011526529    -0.000002010349     0.000006636776
      12        0.000002623922    -0.000003656666    -0.000012431529
      13        0.002722371695     0.003896489920    -0.003132332124
      14       -0.000005980803    -0.000008909745    -0.000007814054
      15       -0.000010203500     0.000000414268     0.000007397430
      16        0.000015668780    -0.000012106171     0.000003466088
      17       -0.000013093441    -0.000012698275    -0.000006198537

  **** Optimization is complete! (in 14 steps) ****
    Final optimized geometry and variables:
    Molecular point group: c1

    Geometry (in Angstrom), charge = 0, multiplicity = 1:

    H           -1.445322102462     2.544430970625     1.499192108508
    O           -0.661599441943     2.034513944879     1.359370009790
    C           -0.959788472893     1.017012819688     0.556270960183
    C            0.242762212314     0.154178893829     0.282099146343
    O           -2.050822086203     0.850833425677     0.131671841371
    C           -0.061968395654    -1.027061734993    -0.634359500095
    H            0.619734033863    -0.177982885595     1.244458326239
    H            1.006232105594     0.805132364465    -0.126110212652
    C            1.115037540840    -1.994718905993    -0.827345654927
    H           -0.885796107969    -1.565555481039    -0.183056972300
    H           -0.404790626217    -0.653855747427    -1.591176208200
    C            2.482503334223    -1.337271199836    -1.019907672467
    H            0.920839729327    -2.575805149590    -1.722461079905
    H            1.165128847720    -2.686315696124     0.006931850637
    H            2.464625681819    -0.623336804130    -1.837423313340
    H            3.229241367198    -2.086028461417    -1.256881806910
    H            2.818258113928    -0.815935322092    -0.131579328179

  Mulliken Charges: (a.u.)
   Center  Symbol    Alpha    Beta     Spin     Total
       1     H     0.38237  0.38237  0.00000  0.23526
       2     O     4.15980  4.15980  0.00000 -0.31960
       3     C     2.80765  2.80765  0.00000  0.38470
       4     C     3.11314  3.11314  0.00000 -0.22627
       5     O     4.19074  4.19074  0.00000 -0.38149
       6     C     3.08990  3.08990  0.00000 -0.17980
       7     H     0.43717  0.43717  0.00000  0.12566
       8     H     0.43541  0.43541  0.00000  0.12919
       9     C     3.09163  3.09163  0.00000 -0.18327
      10     H     0.44217  0.44217  0.00000  0.11567
      11     H     0.44395  0.44395  0.00000  0.11210
      12     C     3.15836  3.15836  0.00000 -0.31673
      13     H     0.44767  0.44767  0.00000  0.10467
      14     H     0.45048  0.45048  0.00000  0.09905
      15     H     0.45277  0.45277  0.00000  0.09446
      16     H     0.44368  0.44368  0.00000  0.11264
      17     H     0.45312  0.45312  0.00000  0.09376

   Total alpha = 28.00000, Total beta = 28.00000, Total charge = -0.00000

*** Psi4 exiting successfully. Buy a developer a beer!
