                              Psi4 1.0.54 Driver

  ==> Input File <==

--------------------------------------------------------------------------
set {
	reference rhf
	basis cc-pvtz
}

set_num_threads( 4 )
memory 2 gb

molecule MOL {
0 1

H	 3.283750	 -0.486419	 0.006941
C	 2.228218	 -0.291958	 0.005294
C	 1.765747	 0.998519	 -0.204760
C	 1.339195	 -1.327498	 0.212206
H	 2.462852	 1.798028	 -0.364837
C	 0.412456	 1.252282	 -0.207644
H	 1.699818	 -2.324554	 0.374398
C	 -0.019631	 -1.071079	 0.209029
H	 0.035693	 2.242701	 -0.368193
C	 -0.486398	 0.214248	 0.000000
H	 -0.717138	 -1.872288	 0.369413
C	 -1.946525	 0.470130	 0.000000
O	 -2.779618	 -0.371226	 0.000000
H	 -2.227127	 1.528393	 0.000000

	symmetry c1
}
set optking {
	frozen_dihedral = ("
		8 10 12 14
	")
}

ee,wfn = optimize('scf', return_wfn=True)
oeprop( wfn, 'DIPOLE', 'QUADRUPOLE', 'MULLIKEN_CHARGES')
f=open( 'psi4out.xyz', 'w' )
f.write( "14  " )
f.write( str(ee) + "\n" )
f.write( MOL.save_string_xyz() )
f.close()
--------------------------------------------------------------------------

    Molecular point group: c1
  Charge       = 0
  Multiplicity = 1
  Basis Set: CC-PVTZ
  Basis Set:
  @DF-RHF Final Energy:  -343.54948505748553
    Total Energy =                       -343.5494850574854127
    Molecular point group: c1
  Basis Set: CC-PVTZ
  Basis Set:
  Basis Set: CC-PVTZ
  Basis Set:
  @DF-RHF Final Energy:  -343.54911341153036
    Total Energy =                       -343.5491134115307545
  Basis Set: CC-PVTZ
  Basis Set:
  Basis Set: CC-PVTZ
  Basis Set:
  @DF-RHF Final Energy:  -343.54956338630058
    Total Energy =                       -343.5495633863006333
  Basis Set: CC-PVTZ
  Basis Set:
  Basis Set: CC-PVTZ
  Basis Set:
  @DF-RHF Final Energy:  -343.54979913137743
    Total Energy =                       -343.5497991313777106
  Basis Set: CC-PVTZ
  Basis Set:
  Basis Set: CC-PVTZ
  Basis Set:
  @DF-RHF Final Energy:  -343.54980497825898
    Total Energy =                       -343.5498049782584076
  Basis Set: CC-PVTZ
  Basis Set:
  Charge       = 0
  Multiplicity = 1
  Basis Set: CC-PVTZ
  Basis Set:

    Orbital Energies (a.u.)
    -----------------------

    Doubly Occupied:

       1A    -20.552848     2A    -11.327036     3A    -11.252637
       4A    -11.250146     5A    -11.246702     6A    -11.245416
       7A    -11.243921     8A    -11.242328     9A     -1.408708
      10A     -1.177129    11A     -1.051809    12A     -1.036212
      13A     -0.892714    14A     -0.848455    15A     -0.794567
      16A     -0.725557    17A     -0.682355    18A     -0.656594
      19A     -0.623774    20A     -0.621338    21A     -0.606113
      22A     -0.561662    23A     -0.530279    24A     -0.510167
      25A     -0.508412    26A     -0.425582    27A     -0.355805
      28A     -0.352594

  @DF-RHF Final Energy:  -343.54980640497769

   => Energetics <=

    Nuclear Repulsion Energy =            323.9527734733639477
    One-Electron Energy =               -1107.5434447978823300
    Two-Electron Energy =                 440.0408649195404678
    DFT Exchange-Correlation Energy =       0.0000000000000000
    Empirical Dispersion Energy =           0.0000000000000000
    PCM Polarization Energy =               0.0000000000000000
    EFP Energy =                            0.0000000000000000
    Total Energy =                       -343.5498064049778577
    Molecular point group: c1
  Basis Set: CC-PVTZ
  Basis Set:

  -Total Gradient:
     Atom            X                  Y                   Z
    ------   -----------------  -----------------  -----------------
       1       -0.000004222670    -0.000003941302    -0.000010246023
       2       -0.000014715933    -0.000010226990     0.000036746016
       3       -0.000007704818     0.000033074585     0.000023911038
       4        0.000011143663     0.000015678714    -0.000036630770
       5        0.000001537808    -0.000005411798     0.000000647278
       6       -0.000005121527    -0.000010957683    -0.000076636484
       7       -0.000000662406    -0.000000564540     0.000005006748
       8        0.000104509882     0.000319539174     0.001515527752
       9        0.000014713606    -0.000011254487     0.000015528144
      10       -0.000107938824    -0.000457155341    -0.001638350548
      11       -0.000011135901    -0.000001650493     0.000007020658
      12       -0.000014330930     0.000085471763    -0.001680296691
      13       -0.000014549608     0.000000254632    -0.000020355728
      14        0.000048477660     0.000047143765     0.001858128610

  **** Optimization is complete! (in 6 steps) ****
    Final optimized geometry and variables:
    Molecular point group: c1

    Geometry (in Angstrom), charge = 0, multiplicity = 1:

    H            3.291056886345    -0.458919942520    -0.015390385228
    C            2.235028817125    -0.266918394721    -0.014478055707
    C            1.769887138479     1.014906862263    -0.228267117482
    C            1.345823329184    -1.308457005006     0.205280756346
    H            2.459732502733     1.819065666604    -0.395654270550
    C            0.408213321404     1.257108514044    -0.220259353919
    H            1.715212319156    -2.301054584410     0.376181740268
    C           -0.009685986425    -1.067153526780     0.205470745436
    H            0.039929402949     2.254030566596    -0.377870801989
    C           -0.483208640372     0.220034562023    -0.013048329208
    H           -0.712416188653    -1.859289293390     0.371485755929
    C           -1.939292115128     0.500362268341     0.004034313369
    O           -2.785186508387    -0.326592399070     0.048986579853
    H           -2.201815090968     1.563425686427    -0.006708446272

  Mulliken Charges: (a.u.)
   Center  Symbol    Alpha    Beta     Spin     Total
       1     H     0.41952  0.41952  0.00000  0.16097
       2     C     3.06988  3.06988  0.00000 -0.13976
       3     C     3.07360  3.07360  0.00000 -0.14721
       4     C     3.07236  3.07236  0.00000 -0.14472
       5     H     0.42059  0.42059  0.00000  0.15883
       6     C     3.08730  3.08730  0.00000 -0.17460
       7     H     0.41953  0.41953  0.00000  0.16093
       8     C     3.08014  3.08014  0.00000 -0.16028
       9     H     0.42296  0.42296  0.00000  0.15408
      10     C     2.98421  2.98421  0.00000  0.03157
      11     H     0.40880  0.40880  0.00000  0.18241
      12     C     2.91016  2.91016  0.00000  0.17969
      13     O     4.17255  4.17255  0.00000 -0.34510
      14     H     0.45841  0.45841  0.00000  0.08318

   Total alpha = 28.00000, Total beta = 28.00000, Total charge =  0.00000

*** Psi4 exiting successfully. Buy a developer a beer!
