                              Psi4 1.0.54 Driver

  ==> Input File <==

--------------------------------------------------------------------------
set {
	reference rhf
	basis cc-pvtz
}

set_num_threads( 4 )
memory 2 gb

molecule MOL {
0 1

O	 3.219313	 0.959291	 -0.614106
C	 2.698710	 0.058177	 -0.050237
C	 1.246364	 -0.005813	 0.348416
O	 3.344101	 -1.038700	 0.312317
C	 0.453207	 1.232821	 -0.049003
H	 0.839270	 -0.907818	 -0.092281
H	 1.216683	 -0.160521	 1.422434
C	 -0.998367	 1.217982	 0.432195
H	 0.481498	 1.345443	 -1.127236
H	 0.951413	 2.105557	 0.354893
C	 -1.882951	 0.151251	 -0.211235
H	 -1.429490	 2.193659	 0.228843
H	 -1.019755	 1.099323	 1.513279
C	 -3.342450	 0.243269	 0.226009
H	 -1.826223	 0.246578	 -1.293162
H	 -1.508033	 -0.839650	 0.027695
C	 -4.077565	 1.445730	 -0.359197
H	 -3.389711	 0.288795	 1.311381
H	 -3.861764	 -0.667905	 -0.061985
C	 -5.534376	 1.531776	 0.083606
H	 -3.559936	 2.356970	 -0.072105
H	 -4.033661	 1.400251	 -1.444029
H	 -6.026488	 2.395187	 -0.349211
H	 -5.611123	 1.614046	 1.162704
H	 -6.088264	 0.649321	 -0.219197
C	 4.720529	 -1.114346	 0.001449
H	 4.874321	 -1.055557	 -1.065852
H	 5.057824	 -2.067950	 0.373977
H	 5.264321	 -0.313596	 0.480350

	symmetry c1
}
set optking {
	frozen_dihedral = ("
		17 14 11 15
	")
}

ee,wfn = optimize('scf', return_wfn=True)
oeprop( wfn, 'DIPOLE', 'QUADRUPOLE', 'MULLIKEN_CHARGES')
f=open( 'psi4out.xyz', 'w' )
f.write( "29  " )
f.write( str(ee) + "\n" )
f.write( MOL.save_string_xyz() )
f.close()
--------------------------------------------------------------------------

    Molecular point group: c1
  Charge       = 0
  Multiplicity = 1
  Basis Set: CC-PVTZ
  Basis Set:
  @DF-RHF Final Energy:  -501.22253163321170
    Total Energy =                       -501.2225316332117018
    Molecular point group: c1
  Basis Set: CC-PVTZ
  Basis Set:
  Basis Set: CC-PVTZ
  Basis Set:
  @DF-RHF Final Energy:  -501.22269830161486
    Total Energy =                       -501.2226983016148552
  Basis Set: CC-PVTZ
  Basis Set:
  Basis Set: CC-PVTZ
  Basis Set:
  @DF-RHF Final Energy:  -501.22291554944309
    Total Energy =                       -501.2229155494429733
  Basis Set: CC-PVTZ
  Basis Set:
  Basis Set: CC-PVTZ
  Basis Set:
  @DF-RHF Final Energy:  -501.22274523884744
    Total Energy =                       -501.2227452388476650
  Basis Set: CC-PVTZ
  Basis Set:
  Basis Set: CC-PVTZ
  Basis Set:
  @DF-RHF Final Energy:  -501.22292036597446
    Total Energy =                       -501.2229203659745735
  Basis Set: CC-PVTZ
  Basis Set:
  Basis Set: CC-PVTZ
  Basis Set:
  @DF-RHF Final Energy:  -501.22292957560830
    Total Energy =                       -501.2229295756084184
  Basis Set: CC-PVTZ
  Basis Set:
  Charge       = 0
  Multiplicity = 1
  Basis Set: CC-PVTZ
  Basis Set:

    Orbital Energies (a.u.)
    -----------------------

    Doubly Occupied:

       1A    -20.595944     2A    -20.533794     3A    -11.364204
       4A    -11.278208     5A    -11.232829     6A    -11.217017
       7A    -11.215081     8A    -11.214002     9A    -11.213313
      10A    -11.212602    11A    -11.206877    12A     -1.471845
      13A     -1.365441    14A     -1.099079    15A     -1.067086
      16A     -1.019075    17A     -0.977893    18A     -0.929563
      19A     -0.862643    20A     -0.812600    21A     -0.779839
      22A     -0.764639    23A     -0.703114    24A     -0.685283
      25A     -0.675875    26A     -0.635452    27A     -0.631551
      28A     -0.618031    29A     -0.595844    30A     -0.581463
      31A     -0.564534    32A     -0.557186    33A     -0.538286
      34A     -0.527723    35A     -0.524159    36A     -0.499359
      37A     -0.496299    38A     -0.486385    39A     -0.472531
      40A     -0.462232    41A     -0.459127    42A     -0.448944
      43A     -0.443030    44A     -0.439865

  @DF-RHF Final Energy:  -501.22293028965544

   => Energetics <=

    Nuclear Repulsion Energy =            613.8254935683092981
    One-Electron Energy =               -1899.1371448566796971
    Two-Electron Energy =                 784.0887209987143933
    DFT Exchange-Correlation Energy =       0.0000000000000000
    Empirical Dispersion Energy =           0.0000000000000000
    PCM Polarization Energy =               0.0000000000000000
    EFP Energy =                            0.0000000000000000
    Total Energy =                       -501.2229302896558920
    Molecular point group: c1
  Basis Set: CC-PVTZ
  Basis Set:

  -Total Gradient:
     Atom            X                  Y                   Z
    ------   -----------------  -----------------  -----------------
       1       -0.000042206558     0.000001603839     0.000021529872
       2        0.000054087223     0.000005883004    -0.000034476694
       3        0.000033107916     0.000005604342     0.000025592000
       4       -0.000005856524    -0.000032389792     0.000013410731
       5       -0.000016637811    -0.000017496921    -0.000063396019
       6       -0.000000227237    -0.000000790962    -0.000004974515
       7        0.000011546069    -0.000010508614     0.000009271199
       8        0.000012218718     0.000025217055     0.000014236414
       9        0.000009265813     0.000019060325    -0.000021606895
      10        0.000000255824     0.000000047717     0.000012365860
      11       -0.000110268269    -0.000897049600    -0.000239858891
      12        0.000018342498     0.000005835895     0.000007927153
      13       -0.000025282562    -0.000009407959     0.000003030894
      14        0.000205073083     0.000530823852     0.000661485521
      15        0.000051554023     0.000654107208     0.000060893029
      16       -0.000022180600    -0.000011303391    -0.000007620611
      17       -0.000168704097    -0.000297062385    -0.000478352168
      18        0.000019533171    -0.000028830809     0.000029911412
      19       -0.000019598765     0.000000964097    -0.000010073296
      20        0.000058287435     0.000003784984     0.000026738813
      21       -0.000016270480     0.000008863952     0.000020486104
      22       -0.000024224758     0.000027382689    -0.000022768020
      23       -0.000000865338     0.000038456825    -0.000021561848
      24        0.000010613516     0.000001225959     0.000012928441
      25       -0.000004573360    -0.000043829384    -0.000022783405
      26        0.000005357937     0.000025361298    -0.000020554590
      27       -0.000017738814     0.000006531123     0.000022126781
      28       -0.000011506913    -0.000018877625     0.000010312272
      29       -0.000003101140     0.000006793280    -0.000004219547

  **** Optimization is complete! (in 7 steps) ****
    Final optimized geometry and variables:
    Molecular point group: c1

    Geometry (in Angstrom), charge = 0, multiplicity = 1:

    O            3.214569678949     0.516791429128    -0.637578331067
    C            2.679335823959    -0.372489391011    -0.068657686711
    C            1.226194576658    -0.410522481786     0.330578304537
    O            3.306691135146    -1.477937953156     0.299555949581
    C            0.454283671060     0.840164560211    -0.071424826215
    H            0.804537182541    -1.307507964205    -0.106511635646
    H            1.194279913502    -0.560585428754     1.405195422520
    C           -0.996589841682     0.857484405266     0.413806978878
    H            0.481927832702     0.947017265855    -1.150322030252
    H            0.970236595836     1.705313169615     0.326519140475
    C           -1.900039182482    -0.197006462192    -0.227648953538
    H           -1.398557192480     1.844341712136     0.214621996431
    H           -1.017597980370     0.735197908314     1.494724332418
    C           -3.362042899568    -0.132237765383     0.222453329768
    H           -1.853704047279    -0.092593384251    -1.309332350981
    H           -1.518709541189    -1.186587077220     0.000893608859
    C           -4.153803359147     1.051980660676    -0.330014307929
    H           -3.404084126704    -0.120509238253     1.309276562474
    H           -3.859025794392    -1.047557563644    -0.087298405228
    C           -5.616197941021     1.037327066983     0.103446836930
    H           -3.701481090912     1.985766862748    -0.013304245885
    H           -4.100483019852     1.039191565536    -1.415387952787
    H           -6.155645626452     1.883754589719    -0.306013650895
    H           -5.704319248140     1.080803534507     1.184020836149
    H           -6.114951364581     0.133691960705    -0.231202065181
    C            4.681516388215    -1.577846633307    -0.011480000752
    H            4.835604295730    -1.527175311620    -1.079124842159
    H            5.003275360257    -2.534927894979     0.365929924737
    H            5.238649615008    -0.783594069328     0.462900151499

  Mulliken Charges: (a.u.)
   Center  Symbol    Alpha    Beta     Spin     Total
       1     O     4.19700  4.19700  0.00000 -0.39400
       2     C     2.80491  2.80491  0.00000  0.39018
       3     C     3.10192  3.10192  0.00000 -0.20383
       4     O     4.14717  4.14717  0.00000 -0.29434
       5     C     3.09147  3.09147  0.00000 -0.18295
       6     H     0.43931  0.43931  0.00000  0.12137
       7     H     0.43985  0.43985  0.00000  0.12030
       8     C     3.10472  3.10472  0.00000 -0.20944
       9     H     0.44591  0.44591  0.00000  0.10817
      10     H     0.43969  0.43969  0.00000  0.12062
      11     C     3.10338  3.10338  0.00000 -0.20675
      12     H     0.44286  0.44286  0.00000  0.11429
      13     H     0.45414  0.45414  0.00000  0.09171
      14     C     3.09426  3.09426  0.00000 -0.18852
      15     H     0.45278  0.45278  0.00000  0.09444
      16     H     0.44641  0.44641  0.00000  0.10718
      17     C     3.08322  3.08322  0.00000 -0.16644
      18     H     0.45435  0.45435  0.00000  0.09131
      19     H     0.44848  0.44848  0.00000  0.10304
      20     C     3.15023  3.15023  0.00000 -0.30046
      21     H     0.45373  0.45373  0.00000  0.09254
      22     H     0.45431  0.45431  0.00000  0.09137
      23     H     0.44818  0.44818  0.00000  0.10365
      24     H     0.45499  0.45499  0.00000  0.09002
      25     H     0.45474  0.45474  0.00000  0.09052
      26     C     3.03812  3.03812  0.00000 -0.07623
      27     H     0.45435  0.45435  0.00000  0.09130
      28     H     0.44528  0.44528  0.00000  0.10944
      29     H     0.45424  0.45424  0.00000  0.09151

   Total alpha = 44.00000, Total beta = 44.00000, Total charge = -0.00000

*** Psi4 exiting successfully. Buy a developer a beer!
