  ==> Input File <==

--------------------------------------------------------------------------
set {
	reference rhf
	basis cc-pvtz
}

set_num_threads( 4 )
memory 2 gb

molecule MOL {
0 1

H	 2.475235	 2.561476	 1.450991
O	 1.539868	 2.505355	 1.524237
C	 1.047619	 1.509630	 0.761550
C	 1.862240	 0.699372	 -0.014694
C	 -0.317513	 1.308712	 0.769757
H	 2.925474	 0.857284	 -0.019902
C	 1.310927	 -0.308402	 -0.779809
H	 -0.949336	 1.932806	 1.368212
C	 -0.861704	 0.296439	 0.000000
H	 1.951002	 -0.929018	 -1.376436
C	 -0.053743	 -0.515975	 -0.777179
C	 -2.330689	 0.069587	 0.000000
H	 -0.485322	 -1.298835	 -1.371113
O	 -2.848621	 -0.993976	 0.000000
H	 -2.934306	 0.982410	 0.000000

	symmetry c1
}
set optking {
	frozen_dihedral = ("
		11 9 12 14
	")
}

ee = optimize('scf')
oeprop('DIPOLE', 'QUADRUPOLE', 'MULLIKEN_CHARGES')
f=open( 'psi4out.xyz', 'w' )
f.write( "15  " )
f.write( str(ee) + "\n" )
f.write( MOL.save_string_xyz() )
f.close()
--------------------------------------------------------------------------

    Molecular point group: c1
  Charge       = 0
  Multiplicity = 1
  Basis Set: CC-PVTZ
  Basis Set:
  @DF-RHF Final Energy:  -418.43419904681468
    Total Energy =                       -418.4341990468144559
    Molecular point group: c1
  Basis Set: CC-PVTZ
  Basis Set:
  Basis Set: CC-PVTZ
  Basis Set:
  @DF-RHF Final Energy:  -418.43311002681759
    Total Energy =                       -418.4331100268175305
  Basis Set: CC-PVTZ
  Basis Set:
  Basis Set: CC-PVTZ
  Basis Set:
  @DF-RHF Final Energy:  -418.43451761182303
    Total Energy =                       -418.4345176118231393
  Basis Set: CC-PVTZ
  Basis Set:
  Basis Set: CC-PVTZ
  Basis Set:
  @DF-RHF Final Energy:  -418.43481665480732
    Total Energy =                       -418.4348166548070367
  Basis Set: CC-PVTZ
  Basis Set:
  Basis Set: CC-PVTZ
  Basis Set:
  @DF-RHF Final Energy:  -418.43482063653562
    Total Energy =                       -418.4348206365351643
  Basis Set: CC-PVTZ
  Basis Set:
  Charge       = 0
  Multiplicity = 1
  Basis Set: CC-PVTZ
  Basis Set:

    Orbital Energies (a.u.)
    -----------------------

    Doubly Occupied:

       1A    -20.598096     2A    -20.558146     3A    -11.329609
       4A    -11.313273     5A    -11.253074     6A    -11.249016
       7A    -11.243968     8A    -11.242237     9A    -11.236607
      10A     -1.429616    11A     -1.413267    12A     -1.173587
      13A     -1.053442    14A     -1.027983    15A     -0.903653
      16A     -0.848513    17A     -0.818777    18A     -0.742314
      19A     -0.704446    20A     -0.678289    21A     -0.668479
      22A     -0.636163    23A     -0.615600    24A     -0.609915
      25A     -0.585639    26A     -0.547679    27A     -0.542507
      28A     -0.518375    29A     -0.494036    30A     -0.427269
      31A     -0.359488    32A     -0.329177

  @DF-RHF Final Energy:  -418.43482163662014

   => Energetics <=

    Nuclear Repulsion Energy =            403.0616873646616227
    One-Electron Energy =               -1368.6885375563101661
    Two-Electron Energy =                 547.1920285550287417
    DFT Exchange-Correlation Energy =       0.0000000000000000
    Empirical Dispersion Energy =           0.0000000000000000
    PCM Polarization Energy =               0.0000000000000000
    EFP Energy =                            0.0000000000000000
    Total Energy =                       -418.4348216366198585
    Molecular point group: c1
  Basis Set: CC-PVTZ
  Basis Set:

  -Total Gradient:
     Atom            X                  Y                   Z
    ------   -----------------  -----------------  -----------------
       1        0.000001126500     0.000000515236     0.000002459723
       2        0.000009232723    -0.000011323770    -0.000017096551
       3       -0.000118333620     0.000036424609     0.000048147053
       4        0.000011409516    -0.000086438430    -0.000087750231
       5        0.000042514059     0.000035052531     0.000033010263
       6       -0.000002262256     0.000004553450    -0.000005416608
       7        0.000104246090     0.000053314743     0.000087334714
       8        0.000007342835     0.000003128144    -0.000005533775
       9        0.000548524183    -0.004948248642     0.008006750098
      10       -0.000004376286    -0.000002683149    -0.000009865963
      11       -0.000469447822     0.003305418614    -0.003644850757
      12       -0.000169269060     0.001756852796    -0.010435312713
      13       -0.000004148906     0.000000361044    -0.000008886275
      14       -0.000003769625    -0.000150803051     0.006030745733
      15        0.000047211675     0.000003875878     0.000006265288

  **** Optimization is complete! (in 6 steps) ****
    Final optimized geometry and variables:
    Molecular point group: c1

    Geometry (in Angstrom), charge = 0, multiplicity = 1:

    H            2.545474003743     2.034842427524     1.271558006460
    O            1.609313100078     1.974775943312     1.334069513170
    C            1.133616953375     0.973175886848     0.568617220786
    C            1.951410084305     0.170689884564    -0.203832053362
    C           -0.235267274655     0.768747819860     0.561271840940
    H            3.013378626425     0.336313261437    -0.212314315940
    C            1.400735380436    -0.839364914083    -0.973408302058
    H           -0.861074389647     1.416183745176     1.145555497289
    C           -0.769975016986    -0.265112858940    -0.180662670690
    H            2.044146941647    -1.447313696282    -1.579808494208
    C            0.042312823917    -1.066922312528    -0.968006657794
    C           -2.248810973339    -0.450729937889    -0.193772089058
    H           -0.390568890038    -1.854192652053    -1.551632436209
    O           -2.786851785356    -1.502848018360    -0.225304483823
    H           -2.832524258039     0.472418881658    -0.122240165561

  Mulliken Charges: (a.u.)
   Center  Symbol    Alpha    Beta     Spin     Total
       1     H     0.38624  0.38624  0.00000  0.22753
       2     O     4.17189  4.17189  0.00000 -0.34378
       3     C     2.84046  2.84046  0.00000  0.31908
       4     C     3.13349  3.13349  0.00000 -0.26698
       5     C     3.13211  3.13211  0.00000 -0.26421
       6     H     0.43183  0.43183  0.00000  0.13633
       7     C     3.05741  3.05741  0.00000 -0.11482
       8     H     0.41909  0.41909  0.00000  0.16181
       9     C     2.94199  2.94199  0.00000  0.11602
      10     H     0.41905  0.41905  0.00000  0.16191
      11     C     3.11124  3.11124  0.00000 -0.22249
      12     C     2.91933  2.91933  0.00000  0.16134
      13     H     0.41331  0.41331  0.00000  0.17338
      14     O     4.16472  4.16472  0.00000 -0.32944
      15     H     0.45783  0.45783  0.00000  0.08434

   Total alpha = 32.00000, Total beta = 32.00000, Total charge = -0.00000
