                              Psi4 1.0.54 Driver

  ==> Input File <==

--------------------------------------------------------------------------
set {
	reference rhf
	basis cc-pvtz
}

set_num_threads( 4 )
memory 2 gb

molecule MOL {
0 1

H	 -3.144994	 -1.202467	 -0.018751
O	 -2.321472	 -0.864941	 -0.318626
C	 -2.021813	 0.336996	 0.342658
C	 -0.669613	 0.837286	 -0.127252
H	 -2.780861	 1.084746	 0.127159
H	 -2.006390	 0.184138	 1.420053
C	 0.490865	 -0.082543	 0.241244
H	 -0.708709	 0.967192	 -1.204587
H	 -0.507562	 1.822272	 0.303070
C	 1.839800	 0.429565	 -0.255472
H	 0.305636	 -1.070211	 -0.165276
H	 0.527397	 -0.195943	 1.322876
C	 1.791306	 0.948017	 -1.688874
H	 2.185421	 1.222758	 0.401867
H	 2.577222	 -0.366061	 -0.185633
H	 1.087951	 1.768541	 -1.783472
H	 2.762598	 1.305871	 -2.011109
H	 1.481444	 0.168270	 -2.376933

	symmetry c1
}
set optking {
	frozen_dihedral = ("
		14 10 7 11
	")
}

ee,wfn = optimize('scf', return_wfn=True)
oeprop( wfn, 'DIPOLE', 'QUADRUPOLE', 'MULLIKEN_CHARGES')
f=open( 'psi4out.xyz', 'w' )
f.write( "18  " )
f.write( str(ee) + "\n" )
f.write( MOL.save_string_xyz() )
f.close()
--------------------------------------------------------------------------

    Molecular point group: c1
  Charge       = 0
  Multiplicity = 1
  Basis Set: CC-PVTZ
  Basis Set:
  @DF-RHF Final Energy:  -271.28154498649053
    Total Energy =                       -271.2815449864904735
    Molecular point group: c1
  Basis Set: CC-PVTZ
  Basis Set:
  Basis Set: CC-PVTZ
  Basis Set:
  @DF-RHF Final Energy:  -271.28198275490217
    Total Energy =                       -271.2819827549022307
  Basis Set: CC-PVTZ
  Basis Set:
  Basis Set: CC-PVTZ
  Basis Set:
  @DF-RHF Final Energy:  -271.28369814859121
    Total Energy =                       -271.2836981485910428
  Basis Set: CC-PVTZ
  Basis Set:
  Basis Set: CC-PVTZ
  Basis Set:
  @DF-RHF Final Energy:  -271.28379569389978
    Total Energy =                       -271.2837956938997195
  Basis Set: CC-PVTZ
  Basis Set:
  Basis Set: CC-PVTZ
  Basis Set:
  @DF-RHF Final Energy:  -271.28380768841691
    Total Energy =                       -271.2838076884171983
  Basis Set: CC-PVTZ
  Basis Set:
  Basis Set: CC-PVTZ
  Basis Set:
  @DF-RHF Final Energy:  -271.28380983681291
    Total Energy =                       -271.2838098368130204
  Basis Set: CC-PVTZ
  Basis Set:
  Charge       = 0
  Multiplicity = 1
  Basis Set: CC-PVTZ
  Basis Set:

    Orbital Energies (a.u.)
    -----------------------

    Doubly Occupied:

       1A    -20.546049     2A    -11.265805     3A    -11.210056
       4A    -11.209570     5A    -11.205298     6A    -11.202500
       7A     -1.363962     8A     -1.075616     9A     -1.007122
      10A     -0.916333    11A     -0.832536    12A     -0.769375
      13A     -0.707226    14A     -0.644114    15A     -0.615026
      16A     -0.604050    17A     -0.563643    18A     -0.555953
      19A     -0.527524    20A     -0.507443    21A     -0.491043
      22A     -0.462816    23A     -0.454292    24A     -0.450514
      25A     -0.430076

  @DF-RHF Final Energy:  -271.28380996606290

   => Energetics <=

    Nuclear Repulsion Energy =            252.3790998204242726
    One-Electron Energy =                -868.0899394059320002
    Two-Electron Energy =                 344.4270296194449656
    DFT Exchange-Correlation Energy =       0.0000000000000000
    Empirical Dispersion Energy =           0.0000000000000000
    PCM Polarization Energy =               0.0000000000000000
    EFP Energy =                            0.0000000000000000
    Total Energy =                       -271.2838099660627904
    Molecular point group: c1
  Basis Set: CC-PVTZ
  Basis Set:

  -Total Gradient:
     Atom            X                  Y                   Z
    ------   -----------------  -----------------  -----------------
       1        0.000006794036     0.000001916357     0.000000715494
       2        0.000008011724    -0.000014547336     0.000009576776
       3       -0.000013569208     0.000021688089    -0.000033054717
       4       -0.000001659121     0.000004724872     0.000025944934
       5        0.000000470644     0.000006035575     0.000004896904
       6        0.000006585452    -0.000005402541    -0.000011747727
       7       -0.001633714339     0.001468792903    -0.003423855145
       8       -0.000007917340    -0.000005536565     0.000013951799
       9       -0.000001992574     0.000003761694     0.000001716888
      10       -0.001801371911     0.002957823991    -0.002048527254
      11        0.001664129981    -0.001711767108     0.003192038196
      12        0.000004484012     0.000004993333    -0.000004460871
      13       -0.000000682179    -0.000001114773    -0.000000845573
      14        0.001764282326    -0.002728220371     0.002269955233
      15        0.000005314661     0.000001029417    -0.000003341468
      16        0.000007464956    -0.000006385603     0.000001758900
      17       -0.000008394210    -0.000003458270     0.000001528210
      18        0.000001763086     0.000005666333     0.000003749422

  **** Optimization is complete! (in 7 steps) ****
    Final optimized geometry and variables:
    Molecular point group: c1

    Geometry (in Angstrom), charge = 0, multiplicity = 1:

    H           -2.958460292134    -1.471390543326     0.425179388355
    O           -2.155986106510    -1.130202157942     0.076594220599
    C           -1.830711343493     0.080808892005     0.708463561874
    C           -0.515836226337     0.591915673678     0.151348078613
    H           -2.610192779868     0.818172882455     0.533687807843
    H           -1.747474976925    -0.062538037431     1.783942749481
    C            0.667473013647    -0.322092837955     0.456589336447
    H           -0.631834272890     0.720930182139    -0.918524218709
    H           -0.334731340463     1.578510933365     0.571797612565
    C            2.038190275142     0.215255531897     0.031395632972
    H            0.506571120987    -1.300227956480     0.018363031850
    H            0.699625031002    -0.493772295349     1.530418381583
    C            2.134270720780     0.712719974431    -1.407606257745
    H            2.352293732810     0.994594868892     0.720878686963
    H            2.759705329634    -0.585561796525     0.166979130990
    H            1.526559104256     1.593691204217    -1.574980660843
    H            3.157671310977     0.971401985874    -1.654274954228
    H            1.809006923267    -0.050840303444    -2.106929589372

  Mulliken Charges: (a.u.)
   Center  Symbol    Alpha    Beta     Spin     Total
       1     H     0.39579  0.39579  0.00000  0.20843
       2     O     4.19869  4.19869  0.00000 -0.39738
       3     C     2.97471  2.97471  0.00000  0.05058
       4     C     3.09385  3.09385  0.00000 -0.18770
       5     H     0.46563  0.46563  0.00000  0.06874
       6     H     0.47306  0.47306  0.00000  0.05389
       7     C     3.09393  3.09393  0.00000 -0.18787
       8     H     0.44966  0.44966  0.00000  0.10069
       9     H     0.45319  0.45319  0.00000  0.09362
      10     C     3.08972  3.08972  0.00000 -0.17945
      11     H     0.44265  0.44265  0.00000  0.11470
      12     H     0.45614  0.45614  0.00000  0.08772
      13     C     3.15506  3.15506  0.00000 -0.31011
      14     H     0.45485  0.45485  0.00000  0.09030
      15     H     0.45098  0.45098  0.00000  0.09804
      16     H     0.45342  0.45342  0.00000  0.09315
      17     H     0.44671  0.44671  0.00000  0.10657
      18     H     0.45196  0.45196  0.00000  0.09608

   Total alpha = 25.00000, Total beta = 25.00000, Total charge = -0.00000

*** Psi4 exiting successfully. Buy a developer a beer!
