  ==> Input File <==

--------------------------------------------------------------------------
set {
	reference rhf
	basis 6-31G*
}

set_num_threads( 4 )
memory 2 gb

molecule MOL {
0 1

H	 -3.135461	 -1.215070	 0.001379
O	 -2.310168	 -0.871793	 -0.309793
C	 -2.026376	 0.340750	 0.341611
C	 -0.673256	 0.843270	 -0.132153
H	 -2.792215	 1.080697	 0.115987
H	 -2.013526	 0.200402	 1.421792
C	 0.486613	 -0.083066	 0.235839
H	 -0.715586	 0.970948	 -1.210718
H	 -0.508072	 1.829858	 0.297090
C	 0.491759	 -1.381611	 -0.572598
H	 0.435746	 -0.313046	 1.295100
H	 1.428262	 0.441401	 0.077493
C	 1.654206	 -2.304745	 -0.208987
H	 -0.447872	 -1.906859	 -0.414718
H	 0.535665	 -1.148242	 -1.634697
H	 1.618138	 -2.584208	 0.840056
H	 1.631037	 -3.217949	 -0.795901
H	 2.610246	 -1.820624	 -0.388217

	symmetry c1
}
set optking {
	frozen_dihedral = ("
		10 7 4 8
	")
}

ee = optimize('scf')
oeprop('DIPOLE', 'QUADRUPOLE', 'MULLIKEN_CHARGES')
f=open( 'psi4out.xyz', 'w' )
f.write( "18  " )
f.write( str(ee) + "\n" )
f.write( MOL.save_string_xyz() )
f.close()
--------------------------------------------------------------------------

    Molecular point group: c1
  Charge       = 0
  Multiplicity = 1
  Basis Set: 6-31G*
  Basis Set:
  @DF-RHF Final Energy:  -271.17408954288055
    Total Energy =                       -271.1740895428807789
    Molecular point group: c1
  Basis Set: 6-31G*
  Basis Set:
  Basis Set: 6-31G*
  Basis Set:
  @DF-RHF Final Energy:  -271.17685181473666
    Total Energy =                       -271.1768518147366649
  Basis Set: 6-31G*
  Basis Set:
  Basis Set: 6-31G*
  Basis Set:
  @DF-RHF Final Energy:  -271.17712274318353
    Total Energy =                       -271.1771227431834745
  Basis Set: 6-31G*
  Basis Set:
  Basis Set: 6-31G*
  Basis Set:
  @DF-RHF Final Energy:  -271.17715321012133
    Total Energy =                       -271.1771532101212188
  Basis Set: 6-31G*
  Basis Set:
  Basis Set: 6-31G*
  Basis Set:
  @DF-RHF Final Energy:  -271.17716589518812
    Total Energy =                       -271.1771658951879544
  Basis Set: 6-31G*
  Basis Set:
  Basis Set: 6-31G*
  Basis Set:
  @DF-RHF Final Energy:  -271.17716847803376
    Total Energy =                       -271.1771684780341047
  Basis Set: 6-31G*
  Basis Set:
  Charge       = 0
  Multiplicity = 1
  Basis Set: 6-31G*
  Basis Set:

    Orbital Energies (a.u.)
    -----------------------

    Doubly Occupied:

       1A    -20.554452     2A    -11.269129     3A    -11.213582
       4A    -11.209445     5A    -11.200721     6A    -11.199961
       7A     -1.361087     8A     -1.071181     9A     -1.005962
      10A     -0.912263    11A     -0.823437    12A     -0.774473
      13A     -0.702816    14A     -0.649443    15A     -0.615255
      16A     -0.573083    17A     -0.571985    18A     -0.555859
      19A     -0.525917    20A     -0.506142    21A     -0.485953
      22A     -0.460385    23A     -0.453177    24A     -0.446216
      25A     -0.426001

  @DF-RHF Final Energy:  -271.17716861255769

   => Energetics <=

    Nuclear Repulsion Energy =            253.9678942659678285
    One-Electron Energy =                -871.1542739286454662
    Two-Electron Energy =                 346.0092110501196885
    DFT Exchange-Correlation Energy =       0.0000000000000000
    Empirical Dispersion Energy =           0.0000000000000000
    PCM Polarization Energy =               0.0000000000000000
    EFP Energy =                            0.0000000000000000
    Total Energy =                       -271.1771686125579208
    Molecular point group: c1
  Basis Set: 6-31G*
  Basis Set:

  -Total Gradient:
     Atom            X                  Y                   Z
    ------   -----------------  -----------------  -----------------
       1       -0.000002093998     0.000000917962     0.000001142450
       2        0.000012586102    -0.000010531396    -0.000006190766
       3       -0.000016531413    -0.000002412189     0.000008082956
       4       -0.000006988048    -0.000011910054     0.000002871045
       5        0.000009496016     0.000011906999     0.000003133687
       6        0.000003014575     0.000001531427     0.000000190015
       7        0.000007434114     0.000002268594    -0.000010097831
       8        0.000016421961     0.000003334029     0.000003610462
       9       -0.000005045211     0.000001331362     0.000000639260
      10       -0.000035123653    -0.000029505271    -0.000011125855
      11       -0.000002386895     0.000008298702     0.000004687240
      12       -0.000010994622     0.000003151584    -0.000001408600
      13       -0.000008529500     0.000001486746     0.000012633335
      14        0.000036677383     0.000022225926    -0.000008819691
      15       -0.000008628229     0.000003006730    -0.000007918231
      16        0.000012471546    -0.000008364974     0.000008087937
      17       -0.000003265285     0.000003885090    -0.000000182526
      18        0.000001485165    -0.000000621264     0.000000665112

  **** Optimization is complete! (in 7 steps) ****
    Final optimized geometry and variables:
    Molecular point group: c1

    Geometry (in Angstrom), charge = 0, multiplicity = 1:

    H           -2.900308989869    -0.410524516548     0.058598497610
    O           -2.045228155806    -0.151664036769    -0.254433339175
    C           -1.598646627818     0.967107083238     0.469688224654
    C           -0.222040999668     1.388537868954    -0.021713371407
    H           -2.291621042448     1.796345285301     0.338407059512
    H           -1.557403863092     0.741834963026     1.534785177993
    C            0.938009207365     0.450423339490     0.337514361316
    H           -0.270189701036     1.528678128738    -1.098485839264
    H           -0.018342201633     2.366140700532     0.410530551305
    C            0.997987365788    -0.864604249005    -0.444887378460
    H            0.904822278624     0.235826154627     1.405143853362
    H            1.867697510863     0.991612720439     0.171234622028
    C            2.233218998108    -1.692550444879    -0.089987838667
    H            0.101820119683    -1.443743029621    -0.262662646595
    H            1.005736183167    -0.643792577804    -1.510128294175
    H            2.242660014217    -1.952838128415     0.965283693517
    H            2.261226443446    -2.618300306478    -0.656836867475
    H            3.149638380831    -1.147992636421    -0.301846010588

  Mulliken Charges: (a.u.)
   Center  Symbol    Alpha    Beta     Spin     Total
       1     H     0.28077  0.28077  0.00000  0.43846
       2     O     4.36823  4.36823  0.00000 -0.73646
       3     C     2.99551  2.99551  0.00000  0.00899
       4     C     3.16251  3.16251  0.00000 -0.32501
       5     H     0.42979  0.42979  0.00000  0.14042
       6     H     0.43269  0.43269  0.00000  0.13463
       7     C     3.15318  3.15318  0.00000 -0.30637
       8     H     0.41402  0.41402  0.00000  0.17195
       9     H     0.42214  0.42214  0.00000  0.15571
      10     C     3.15087  3.15087  0.00000 -0.30173
      11     H     0.42661  0.42661  0.00000  0.14679
      12     H     0.42339  0.42339  0.00000  0.15322
      13     C     3.24066  3.24066  0.00000 -0.48132
      14     H     0.40581  0.40581  0.00000  0.18838
      15     H     0.42468  0.42468  0.00000  0.15064
      16     H     0.42429  0.42429  0.00000  0.15141
      17     H     0.42032  0.42032  0.00000  0.15936
      18     H     0.42454  0.42454  0.00000  0.15092

   Total alpha = 25.00000, Total beta = 25.00000, Total charge = -0.00000
