                              Psi4 1.0.54 Driver

  ==> Input File <==

--------------------------------------------------------------------------
set {
	reference rhf
	basis cc-pvtz
}

set_num_threads( 4 )
memory 2 gb

molecule MOL {
0 1

H	 2.284876	 1.165424	 -4.962735
C	 2.664578	 1.326459	 -3.960357
C	 1.526126	 1.468534	 -2.955835
H	 3.301681	 0.485562	 -3.708948
H	 3.284657	 2.216904	 -3.980573
C	 2.023941	 1.707797	 -1.532141
H	 0.914718	 0.573791	 -2.979388
H	 0.884932	 2.294659	 -3.254516
C	 0.906047	 1.860226	 -0.505513
H	 2.669372	 0.891606	 -1.232009
H	 2.627424	 2.610740	 -1.515207
C	 0.166485	 0.574257	 -0.177158
H	 1.315559	 2.221418	 0.434490
H	 0.187986	 2.611414	 -0.821142
C	 -1.180025	 0.697761	 0.509157
O	 0.628334	 -0.492419	 -0.426503
C	 -2.285431	 -0.137488	 -0.145671
H	 -1.447360	 1.745713	 0.496200
H	 -1.065514	 0.394096	 1.546399
C	 -3.646545	 0.082747	 0.508954
H	 -2.348635	 0.118247	 -1.199806
H	 -2.034895	 -1.192387	 -0.096473
C	 -4.757412	 -0.737227	 -0.138149
H	 -3.900211	 1.137405	 0.459735
H	 -3.580878	 -0.166775	 1.564416
H	 -4.867876	 -0.486707	 -1.187777
H	 -4.549650	 -1.800049	 -0.072540
H	 -5.709585	 -0.556397	 0.346597

	symmetry c1
}
set optking {
	frozen_dihedral = ("
		16 12 15 17
	")
}

ee,wfn = optimize('scf', return_wfn=True)
oeprop( wfn, 'DIPOLE', 'QUADRUPOLE', 'MULLIKEN_CHARGES')
f=open( 'psi4out.xyz', 'w' )
f.write( "28  " )
f.write( str(ee) + "\n" )
f.write( MOL.save_string_xyz() )
f.close()
--------------------------------------------------------------------------

    Molecular point group: c1
  Charge       = 0
  Multiplicity = 1
  Basis Set: CC-PVTZ
  Basis Set:
  @DF-RHF Final Energy:  -426.31924378545841
    Total Energy =                       -426.3192437854581840
    Molecular point group: c1
  Basis Set: CC-PVTZ
  Basis Set:
  Basis Set: CC-PVTZ
  Basis Set:
  @DF-RHF Final Energy:  -426.31859390697514
    Total Energy =                       -426.3185939069759343
  Basis Set: CC-PVTZ
  Basis Set:
  Basis Set: CC-PVTZ
  Basis Set:
  @DF-RHF Final Energy:  -426.32041865454084
    Total Energy =                       -426.3204186545409584
  Basis Set: CC-PVTZ
  Basis Set:
  Basis Set: CC-PVTZ
  Basis Set:
  @DF-RHF Final Energy:  -426.31785336231087
    Total Energy =                       -426.3178533623114390
  Basis Set: CC-PVTZ
  Basis Set:
  @DF-RHF Final Energy:  -426.31985153099390
    Total Energy =                       -426.3198515309940149
  @DF-RHF Final Energy:  -426.32060143629474
    Total Energy =                       -426.3206014362949645
  Basis Set: CC-PVTZ
  Basis Set:
  @DF-RHF Final Energy:  -426.32057961386704
    Total Energy =                       -426.3205796138670394
  Basis Set: CC-PVTZ
  Basis Set:
  Basis Set: CC-PVTZ
  Basis Set:
  @DF-RHF Final Energy:  -426.32063376580220
    Total Energy =                       -426.3206337658023131
  Basis Set: CC-PVTZ
  Basis Set:
  Basis Set: CC-PVTZ
  Basis Set:
  @DF-RHF Final Energy:  -426.32064163682753
    Total Energy =                       -426.3206416368270766
  Basis Set: CC-PVTZ
  Basis Set:
  Charge       = 0
  Multiplicity = 1
  Basis Set: CC-PVTZ
  Basis Set:

    Orbital Energies (a.u.)
    -----------------------

    Doubly Occupied:

       1A    -20.536702     2A    -11.317951     3A    -11.229919
       4A    -11.227459     5A    -11.220320     6A    -11.218882
       7A    -11.214825     8A    -11.209615     9A    -11.209598
      10A    -11.203355    11A     -1.397714    12A     -1.090571
      13A     -1.078927    14A     -1.022947    15A     -0.991819
      16A     -0.910695    17A     -0.867279    18A     -0.805811
      19A     -0.795431    20A     -0.725670    21A     -0.671625
      22A     -0.652392    23A     -0.628429    24A     -0.619931
      25A     -0.609642    26A     -0.587096    27A     -0.577203
      28A     -0.574271    29A     -0.539832    30A     -0.531676
      31A     -0.519064    32A     -0.510332    33A     -0.497634
      34A     -0.480237    35A     -0.477172    36A     -0.471740
      37A     -0.468487    38A     -0.465616    39A     -0.457691
      40A     -0.394290

  @DF-RHF Final Energy:  -426.32064186289892

   => Energetics <=

    Nuclear Repulsion Energy =            531.6388799276352302
    One-Electron Energy =               -1631.8993468747728457
    Two-Electron Energy =                 673.9398250842389189
    DFT Exchange-Correlation Energy =       0.0000000000000000
    Empirical Dispersion Energy =           0.0000000000000000
    PCM Polarization Energy =               0.0000000000000000
    EFP Energy =                            0.0000000000000000
    Total Energy =                       -426.3206418628985830
    Molecular point group: c1
  Basis Set: CC-PVTZ
  Basis Set:

  -Total Gradient:
     Atom            X                  Y                   Z
    ------   -----------------  -----------------  -----------------
       1       -0.000004039336     0.000003967718     0.000000092023
       2       -0.000001008835     0.000007057883     0.000005704812
       3        0.000003298812     0.000005913889     0.000003939099
       4       -0.000002159096    -0.000003403425     0.000002068166
       5        0.000009714035     0.000005122113    -0.000001040669
       6        0.000009954943    -0.000006769600     0.000008494407
       7       -0.000011330148    -0.000014329345    -0.000003507574
       8       -0.000003684546     0.000000926149    -0.000001261359
       9       -0.000017053841     0.000011355346    -0.000047490233
      10       -0.000001797721    -0.000000814477     0.000001568710
      11        0.000009961838     0.000003282633     0.000000254583
      12       -0.000379552488     0.000267173684    -0.000565183897
      13        0.000002444073    -0.000006314260     0.000008109294
      14        0.000004472041     0.000009340200     0.000000111747
      15        0.000204429019    -0.000504477113     0.000324242929
      16        0.000247342959    -0.000094990579     0.000398674564
      17       -0.000071956045     0.000293017575    -0.000140421365
      18        0.000003442381    -0.000018617196    -0.000007770674
      19        0.000005132499     0.000003041280    -0.000003096967
      20       -0.000006055288     0.000036934540    -0.000020388754
      21        0.000006376901    -0.000012428872     0.000026721613
      22       -0.000003277037     0.000036293385     0.000006493918
      23       -0.000012526542    -0.000025163234     0.000014537119
      24       -0.000002327367    -0.000015298119    -0.000002043738
      25       -0.000006024295     0.000014864479    -0.000016742159
      26        0.000010655443    -0.000010528055     0.000024523653
      27       -0.000008862659     0.000027342740     0.000000431704
      28        0.000014430297    -0.000012499341    -0.000017020960

  **** Optimization is complete! (in 10 steps) ****
    Final optimized geometry and variables:
    Molecular point group: c1

    Geometry (in Angstrom), charge = 0, multiplicity = 1:

    H            3.017394725135     0.861210227530    -4.038855338457
    C            3.320881979812     0.838364195087    -2.998547778907
    C            2.117316829513     0.964916966397    -2.070922348418
    H            3.846299706010    -0.095014440914    -2.828056439029
    H            4.026041632693     1.648418135504    -2.841837275408
    C            2.509164887796     0.952581176759    -0.594745575571
    H            1.425388635841     0.155016062254    -2.267027357509
    H            1.590072833369     1.890169654375    -2.291850233619
    C            1.327259466785     1.077039118343     0.359936768672
    H            3.049816670836     0.040341780303    -0.371520420380
    H            3.190336310434     1.776863643229    -0.403887675582
    C            0.474676294113    -0.166565612154     0.505700263217
    H            1.668427759112     1.327649306390     1.362566277153
    H            0.674116787832     1.896211999221     0.068305845153
    C           -0.735545679720    -0.061465679203     1.419013727443
    O            0.745266623088    -1.192350784169    -0.029919489467
    C           -2.007493958381    -0.614941240634     0.777395172696
    H           -0.883515747459     0.966415147639     1.729957110399
    H           -0.497190654392    -0.631906368656     2.312616024065
    C           -3.207853193350    -0.580021772907     1.718398423143
    H           -2.235552087503    -0.042267039645    -0.118072600975
    H           -1.820725135130    -1.630907730815     0.453077753669
    C           -4.479087785188    -1.126851958995     1.077876285363
    H           -3.381522073141     0.440633695661     2.048824134871
    H           -2.978666294136    -1.154666917116     2.611617168890
    H           -4.754997562295    -0.550076493766     0.201468976530
    H           -4.346823631366    -2.157103960856     0.765849800543
    H           -5.312070066997    -1.094632859064     1.770494020457

  Mulliken Charges: (a.u.)
   Center  Symbol    Alpha    Beta     Spin     Total
       1     H     0.44872  0.44872  0.00000  0.10256
       2     C     3.15171  3.15171  0.00000 -0.30343
       3     C     3.08390  3.08390  0.00000 -0.16779
       4     H     0.45208  0.45208  0.00000  0.09583
       5     H     0.45726  0.45726  0.00000  0.08548
       6     C     3.08738  3.08738  0.00000 -0.17476
       7     H     0.44386  0.44386  0.00000  0.11228
       8     H     0.45891  0.45891  0.00000  0.08219
       9     C     3.12394  3.12394  0.00000 -0.24788
      10     H     0.44622  0.44622  0.00000  0.10757
      11     H     0.44783  0.44783  0.00000  0.10434
      12     C     2.87229  2.87229  0.00000  0.25543
      13     H     0.43424  0.43424  0.00000  0.13153
      14     H     0.44329  0.44329  0.00000  0.11343
      15     C     3.09485  3.09485  0.00000 -0.18971
      16     O     4.18094  4.18094  0.00000 -0.36188
      17     C     3.08743  3.08743  0.00000 -0.17486
      18     H     0.44692  0.44692  0.00000  0.10615
      19     H     0.44357  0.44357  0.00000  0.11286
      20     C     3.08730  3.08730  0.00000 -0.17461
      21     H     0.45435  0.45435  0.00000  0.09130
      22     H     0.43843  0.43843  0.00000  0.12315
      23     C     3.14962  3.14962  0.00000 -0.29924
      24     H     0.45528  0.45528  0.00000  0.08944
      25     H     0.45355  0.45355  0.00000  0.09290
      26     H     0.45496  0.45496  0.00000  0.09008
      27     H     0.45293  0.45293  0.00000  0.09413
      28     H     0.44825  0.44825  0.00000  0.10350

   Total alpha = 40.00000, Total beta = 40.00000, Total charge =  0.00000

*** Psi4 exiting successfully. Buy a developer a beer!
