                              Psi4 1.0.54 Driver

  ==> Input File <==

--------------------------------------------------------------------------
set {
	reference rhf
	basis cc-pvtz
}

set_num_threads( 4 )
memory 2 gb

molecule MOL {
0 1

H	 -2.674228	 0.285676	 -1.478171
O	 -3.458596	 0.315260	 -0.960865
C	 -3.176635	 -0.080824	 0.355601
C	 -1.763371	 0.265266	 0.799691
H	 -3.321825	 -1.153438	 0.379502
H	 -3.895468	 0.357385	 1.043382
C	 -0.673390	 -0.426948	 -0.013392
H	 -1.631049	 1.344913	 0.747560
H	 -1.664587	 -0.001624	 1.849167
C	 0.737842	 -0.043159	 0.423759
H	 -0.806103	 -0.190518	 -1.063345
H	 -0.797221	 -1.503753	 0.074146
C	 1.824000	 -0.743224	 -0.390623
H	 0.850588	 1.033777	 0.343840
H	 0.868587	 -0.286314	 1.476203
C	 3.255957	 -0.453067	 0.062319
H	 1.718250	 -0.470599	 -1.438164
H	 1.658105	 -1.815850	 -0.339904
C	 3.707029	 0.992337	 -0.133857
H	 3.928201	 -1.104096	 -0.488158
H	 3.362667	 -0.724561	 1.109374
H	 3.605811	 1.294044	 -1.171549
H	 4.748333	 1.111029	 0.143343
H	 3.129882	 1.683078	 0.468956

	symmetry c1
}
set optking {
	frozen_dihedral = ("
		1 2 3 5
	")
}

ee,wfn = optimize('scf', return_wfn=True)
oeprop( wfn, 'DIPOLE', 'QUADRUPOLE', 'MULLIKEN_CHARGES')
f=open( 'psi4out.xyz', 'w' )
f.write( "24  " )
f.write( str(ee) + "\n" )
f.write( MOL.save_string_xyz() )
f.close()
--------------------------------------------------------------------------

    Molecular point group: c1
  Charge       = 0
  Multiplicity = 1
  Basis Set: CC-PVTZ
  Basis Set:
  @DF-RHF Final Energy:  -349.37691025745323
    Total Energy =                       -349.3769102574530621
    Molecular point group: c1
  Basis Set: CC-PVTZ
  Basis Set:
  Basis Set: CC-PVTZ
  Basis Set:
  @DF-RHF Final Energy:  -349.22673341531220
    Total Energy =                       -349.2267334153123102
  Basis Set: CC-PVTZ
  Basis Set:
  Basis Set: CC-PVTZ
  Basis Set:
  @DF-RHF Final Energy:  -349.33154107991220
    Total Energy =                       -349.3315410799123697
  Basis Set: CC-PVTZ
  Basis Set:
  Basis Set: CC-PVTZ
  Basis Set:
  @DF-RHF Final Energy:  -349.37567211791395
    Total Energy =                       -349.3756721179136093
  Basis Set: CC-PVTZ
  Basis Set:
  @DF-RHF Final Energy:  -349.37820220898516
    Total Energy =                       -349.3782022089857264
  @DF-RHF Final Energy:  -349.37864465010966
    Total Energy =                       -349.3786446501098908
  Basis Set: CC-PVTZ
  Basis Set:
  @DF-RHF Final Energy:  -349.37866961120341
    Total Energy =                       -349.3786696112031223
  Basis Set: CC-PVTZ
  Basis Set:
  Basis Set: CC-PVTZ
  Basis Set:
  @DF-RHF Final Energy:  -349.37866844609300
    Total Energy =                       -349.3786684460931724
  Basis Set: CC-PVTZ
  Basis Set:
  Basis Set: CC-PVTZ
  Basis Set:
  @DF-RHF Final Energy:  -349.37867186068485
    Total Energy =                       -349.3786718606853015
  Basis Set: CC-PVTZ
  Basis Set:
  Charge       = 0
  Multiplicity = 1
  Basis Set: CC-PVTZ
  Basis Set:

    Orbital Energies (a.u.)
    -----------------------

    Doubly Occupied:

       1A    -20.542888     2A    -11.264081     3A    -11.222245
       4A    -11.218883     5A    -11.217180     6A    -11.216474
       7A    -11.215464     8A    -11.208728     9A     -1.361433
      10A     -1.096640    11A     -1.053847    12A     -0.990570
      13A     -0.921883    14A     -0.857030    15A     -0.803252
      16A     -0.782859    17A     -0.680769    18A     -0.658709
      19A     -0.630364    20A     -0.619769    21A     -0.607375
      22A     -0.591767    23A     -0.562549    24A     -0.538353
      25A     -0.530531    26A     -0.514131    27A     -0.494549
      28A     -0.486457    29A     -0.479170    30A     -0.465166
      31A     -0.459177    32A     -0.438742    33A     -0.432476

  @DF-RHF Final Energy:  -349.37867192115323

   => Energetics <=

    Nuclear Repulsion Energy =            384.8393218527135105
    One-Electron Energy =               -1236.1089685633205590
    Two-Electron Energy =                 501.8909747894542761
    DFT Exchange-Correlation Energy =       0.0000000000000000
    Empirical Dispersion Energy =           0.0000000000000000
    PCM Polarization Energy =               0.0000000000000000
    EFP Energy =                            0.0000000000000000
    Total Energy =                       -349.3786719211527725
    Molecular point group: c1
  Basis Set: CC-PVTZ
  Basis Set:

  -Total Gradient:
     Atom            X                  Y                   Z
    ------   -----------------  -----------------  -----------------
       1        0.001316713355     0.001437422526     0.000748209885
       2       -0.001993332500    -0.001563978849    -0.000662751706
       3        0.002047140161    -0.000768133193    -0.000867557528
       4        0.000014104461     0.000046957766    -0.000026489985
       5       -0.001371761628     0.000855381751     0.000782077647
       6        0.000000884817     0.000008989287     0.000006854292
       7       -0.000013717576    -0.000012677523     0.000008777037
       8        0.000006014096    -0.000017605033    -0.000006623036
       9       -0.000006773587    -0.000001311026     0.000008668031
      10        0.000010327791     0.000011454177    -0.000001474719
      11        0.000008877694     0.000000262509    -0.000003861912
      12        0.000006184710     0.000012677424     0.000001040365
      13       -0.000013266280    -0.000020819603     0.000014336560
      14       -0.000003466916    -0.000013355797    -0.000000735402
      15       -0.000000087560    -0.000004304380     0.000009456318
      16       -0.000002809961     0.000018911977    -0.000009601827
      17        0.000002571049    -0.000000429840    -0.000006696756
      18        0.000007016295     0.000012404315     0.000002174725
      19        0.000010622042    -0.000005643609     0.000007120430
      20       -0.000002162999     0.000001759844    -0.000004489828
      21       -0.000005533634    -0.000002257811     0.000006184856
      22       -0.000003030660     0.000001327177    -0.000007872268
      23       -0.000007788441     0.000001941596    -0.000000522897
      24       -0.000006724727     0.000001026315     0.000003777716

  **** Optimization is complete! (in 10 steps) ****
    Final optimized geometry and variables:
    Molecular point group: c1

    Geometry (in Angstrom), charge = 0, multiplicity = 1:

    H           -2.449897526887     1.744737287408    -1.118986391208
    O           -3.076241845159     1.974932375380    -0.459035757844
    C           -2.881954905411     1.201815995824     0.696030330591
    C           -1.426824078654     0.866238953675     0.983178378103
    H           -3.474837452057     0.291299595096     0.635647426548
    H           -3.283442117882     1.783626639710     1.515815044048
    C           -0.777958352111    -0.071870440519    -0.033629227379
    H           -0.860766266862     1.791465003469     1.046392622252
    H           -1.381883195777     0.405420123389     1.966112523874
    C            0.666237044608    -0.424053538199     0.315163862878
    H           -0.792232491973     0.375727496641    -1.025387973612
    H           -1.365679098379    -0.983551693089    -0.104560788795
    C            1.316291104770    -1.358136636026    -0.703533027531
    H            1.240645248134     0.492849705024     0.399672488734
    H            0.691196095636    -0.892061328074     1.296533928160
    C            2.735357704308    -1.806323900189    -0.349602766385
    H            1.327553194136    -0.875169358019    -1.678169540893
    H            0.693284796758    -2.241797208932    -0.811342774541
    C            3.775959038713    -0.689112419982    -0.348638017279
    H            3.041924848395    -2.566057561835    -1.061884207670
    H            2.725662704930    -2.290766431637     0.623246179403
    H            3.802954786458    -0.181409005626    -1.307581665693
    H            4.766225109792    -1.087078134404    -0.159123798443
    H            3.573635843084     0.053893772588     0.413293050055

  Mulliken Charges: (a.u.)
   Center  Symbol    Alpha    Beta     Spin     Total
       1     H     0.39110  0.39110  0.00000  0.21780
       2     O     4.20771  4.20771  0.00000 -0.41543
       3     C     2.96239  2.96239  0.00000  0.07522
       4     C     3.10396  3.10396  0.00000 -0.20792
       5     H     0.47507  0.47507  0.00000  0.04985
       6     H     0.45588  0.45588  0.00000  0.08825
       7     C     3.09356  3.09356  0.00000 -0.18713
       8     H     0.44853  0.44853  0.00000  0.10294
       9     H     0.45405  0.45405  0.00000  0.09191
      10     C     3.09229  3.09229  0.00000 -0.18458
      11     H     0.46293  0.46293  0.00000  0.07415
      12     H     0.45021  0.45021  0.00000  0.09959
      13     C     3.09512  3.09512  0.00000 -0.19023
      14     H     0.45096  0.45096  0.00000  0.09809
      15     H     0.45303  0.45303  0.00000  0.09394
      16     C     3.09060  3.09060  0.00000 -0.18120
      17     H     0.45407  0.45407  0.00000  0.09186
      18     H     0.44914  0.44914  0.00000  0.10172
      19     C     3.15257  3.15257  0.00000 -0.30513
      20     H     0.44802  0.44802  0.00000  0.10395
      21     H     0.45443  0.45443  0.00000  0.09114
      22     H     0.45479  0.45479  0.00000  0.09043
      23     H     0.44593  0.44593  0.00000  0.10815
      24     H     0.45369  0.45369  0.00000  0.09263

   Total alpha = 33.00000, Total beta = 33.00000, Total charge =  0.00000

*** Psi4 exiting successfully. Buy a developer a beer!
