  ==> Input File <==

--------------------------------------------------------------------------
set {
	reference rhf
	basis cc-pvtz
}

set_num_threads( 4 )
memory 2 gb

molecule MOL {
0 1

O	 0.074770	 1.259872	 0.000487
C	 0.029490	 0.077183	 0.000078
C	 -1.232113	 -0.748027	 0.000015
O	 1.106773	 -0.690081	 -0.000204
C	 -2.501422	 0.088592	 -0.000052
H	 -1.188777	 -1.400384	 -0.865133
H	 -1.188857	 -1.400312	 0.865225
H	 -2.548170	 0.725504	 -0.873205
H	 -3.371613	 -0.556398	 -0.000040
H	 -2.548215	 0.725571	 0.873047
C	 1.167194	 -1.724142	 0.961414
H	 1.129585	 -1.317633	 1.961200
H	 2.106621	 -2.227132	 0.799231
H	 0.347139	 -2.414546	 0.830655

	symmetry c1
}
set optking {
	frozen_dihedral = ("
		11 4 2 3
	")
}

ee = optimize('scf')
oeprop('DIPOLE', 'QUADRUPOLE', 'MULLIKEN_CHARGES')
f=open( 'psi4out.xyz', 'w' )
f.write( "14  " )
f.write( str(ee) + "\n" )
f.write( MOL.save_string_xyz() )
f.close()
--------------------------------------------------------------------------

    Molecular point group: c1
  Charge       = 0
  Multiplicity = 1
  Basis Set: CC-PVTZ
  Basis Set:
  @DF-RHF Final Energy:  -305.96305459701438
    Total Energy =                       -305.9630545970144340
    Molecular point group: c1
  Basis Set: CC-PVTZ
  Basis Set:
  Basis Set: CC-PVTZ
  Basis Set:
  @DF-RHF Final Energy:  -305.96522788772859
    Total Energy =                       -305.9652278877283607
  Basis Set: CC-PVTZ
  Basis Set:
  Basis Set: CC-PVTZ
  Basis Set:
  @DF-RHF Final Energy:  -305.96895305974448
    Total Energy =                       -305.9689530597443650
  Basis Set: CC-PVTZ
  Basis Set:
  Basis Set: CC-PVTZ
  Basis Set:
  @DF-RHF Final Energy:  -305.96952655957386
    Total Energy =                       -305.9695265595736373
  Basis Set: CC-PVTZ
  Basis Set:
  @DF-RHF Final Energy:  -305.96955362979804
    Total Energy =                       -305.9695536297978720
  Basis Set: CC-PVTZ
  Basis Set:
  @DF-RHF Final Energy:  -305.96967122690336
    Total Energy =                       -305.9696712269037562
  Basis Set: CC-PVTZ
  Basis Set:
  Basis Set: CC-PVTZ
  Basis Set:
  @DF-RHF Final Energy:  -305.96968323011345
    Total Energy =                       -305.9696832301131053
  Basis Set: CC-PVTZ
  Basis Set:
  Basis Set: CC-PVTZ
  Basis Set:
  @DF-RHF Final Energy:  -305.96968429301057
    Total Energy =                       -305.9696842930106300
  Basis Set: CC-PVTZ
  Basis Set:
  Charge       = 0
  Multiplicity = 1
  Basis Set: CC-PVTZ
  Basis Set:

    Orbital Energies (a.u.)
    -----------------------

    Doubly Occupied:

       1A    -20.587120     2A    -20.538317     3A    -11.367425
       4A    -11.293109     5A    -11.244863     6A    -11.218898
       7A     -1.464045     8A     -1.370845     9A     -1.063569
      10A     -0.982366    11A     -0.898361    12A     -0.768763
      13A     -0.704888    14A     -0.684407    15A     -0.676602
      16A     -0.628813    17A     -0.611711    18A     -0.560763
      19A     -0.548996    20A     -0.526106    21A     -0.513699
      22A     -0.495360    23A     -0.458324    24A     -0.438297

  @DF-RHF Final Energy:  -305.96968419455231

   => Energetics <=

    Nuclear Repulsion Energy =            247.5765308643653668
    One-Electron Energy =                -907.8011412621433465
    Two-Electron Energy =                 354.2549262032258639
    DFT Exchange-Correlation Energy =       0.0000000000000000
    Empirical Dispersion Energy =           0.0000000000000000
    PCM Polarization Energy =               0.0000000000000000
    EFP Energy =                            0.0000000000000000
    Total Energy =                       -305.9696841945520873
    Molecular point group: c1
  Basis Set: CC-PVTZ
  Basis Set:

  -Total Gradient:
     Atom            X                  Y                   Z
    ------   -----------------  -----------------  -----------------
       1       -0.000063648560    -0.000011431992    -0.000068153001
       2        0.000967393026     0.000940000242     0.005788934422
       3       -0.000097337521     0.000162472617    -0.003028691646
       4       -0.002281813001    -0.003154189277    -0.004892501724
       5        0.000000413013    -0.000007649748     0.000008187085
       6       -0.000003757389     0.000004625711    -0.000007236473
       7        0.000016418752    -0.000018801266    -0.000010595204
       8        0.000001515490    -0.000000093777    -0.000001793064
       9       -0.000001114213     0.000001751383     0.000000351458
      10       -0.000000378609     0.000000312125     0.000000883115
      11        0.001469055881     0.002084871137     0.002212290603
      12        0.000001459048    -0.000004537488     0.000002586651
      13       -0.000001163589     0.000001343244     0.000001728970
      14       -0.000007042329     0.000001327085    -0.000005991193

  **** Optimization is complete! (in 9 steps) ****
    Final optimized geometry and variables:
    Molecular point group: c1

    Geometry (in Angstrom), charge = 0, multiplicity = 1:

    O            0.270543872935     1.521656184216    -0.157902301399
    C            0.206521417453     0.347920347707    -0.106264290348
    C           -1.094579081716    -0.424146458720    -0.105438523239
    O            1.327887615686    -0.385334188583    -0.157843037484
    C           -2.317265581694     0.467986738174    -0.254127704060
    H           -1.035613949733    -1.148404232017    -0.911199594353
    H           -1.158763256287    -1.000242302148     0.811708638388
    H           -2.279038599447     1.027683661350    -1.178582713925
    H           -3.217979775087    -0.133772006666    -0.253334132535
    H           -2.379015200074     1.179604072871     0.557686186380
    C            1.519238073199    -1.461509970846     0.728171596141
    H            1.363508585401    -1.153000033549     1.754784428332
    H            2.544362330671    -1.771952729322     0.608626817260
    H            0.870199485135    -2.296848940019     0.497767750937

  Mulliken Charges: (a.u.)
   Center  Symbol    Alpha    Beta     Spin     Total
       1     O     4.17029  4.17029  0.00000 -0.34058
       2     C     2.80322  2.80322  0.00000  0.39356
       3     C     3.11757  3.11757  0.00000 -0.23515
       4     O     4.14405  4.14405  0.00000 -0.28810
       5     C     3.13896  3.13896  0.00000 -0.27792
       6     H     0.43684  0.43684  0.00000  0.12632
       7     H     0.44586  0.44586  0.00000  0.10827
       8     H     0.44566  0.44566  0.00000  0.10868
       9     H     0.45120  0.45120  0.00000  0.09760
      10     H     0.44660  0.44660  0.00000  0.10681
      11     C     3.04581  3.04581  0.00000 -0.09162
      12     H     0.45769  0.45769  0.00000  0.08461
      13     H     0.43571  0.43571  0.00000  0.12859
      14     H     0.46054  0.46054  0.00000  0.07893

   Total alpha = 24.00000, Total beta = 24.00000, Total charge =  0.00000
