  ==> Input File <==

--------------------------------------------------------------------------
set {
	reference rhf
	basis 6-31G*
}

set_num_threads( 1 )
memory 2 gb

molecule MOL {
0 1

H	 -1.892424	 -0.328139	 -0.980784
O	 -1.422729	 -0.573567	 -0.196946
C	 -0.731407	 0.539437	 0.309156
C	 0.680193	 0.672443	 -0.251532
H	 -1.319765	 1.404033	 0.030086
H	 -0.700012	 0.506517	 1.397677
C	 1.599139	 -0.492137	 0.118598
H	 0.616402	 0.758534	 -1.332349
H	 1.107032	 1.602637	 0.117369
H	 1.239738	 -1.428634	 -0.297334
H	 2.601428	 -0.335055	 -0.265730
H	 1.674954	 -0.608418	 1.197020

	symmetry c1
}
set optking {
	frozen_dihedral = ("
		8 4 3 2
	")
}

ee = energy('scf')
oeprop('DIPOLE', 'QUADRUPOLE', 'MULLIKEN_CHARGES')
f=open( 'psi4out.xyz', 'w' )
f.write( "12  " )
f.write( str(ee) + "\n" )
f.write( MOL.save_string_xyz() )
f.close()
--------------------------------------------------------------------------

    Molecular point group: c1

    Geometry (in Angstrom), charge = 0, multiplicity = 1:

       Center              X                  Y                   Z               Mass
    ------------   -----------------  -----------------  -----------------  -----------------
           H         -1.878638227486    -0.345564507047    -0.961293277423     1.007825032070
           O         -1.408943227486    -0.590992507047    -0.177455277423    15.994914619560
           C         -0.717621227486     0.522011492953     0.328646722577    12.000000000000
           C          0.693978772514     0.655017492953    -0.232041277423    12.000000000000
           H         -1.305979227486     1.386607492953     0.049576722577     1.007825032070
           H         -0.686226227486     0.489091492953     1.417167722577     1.007825032070
           C          1.612924772514    -0.509562507047     0.138088722577    12.000000000000
           H          0.630187772514     0.741108492953    -1.312858277423     1.007825032070
           H          1.120817772514     1.585211492953     0.136859722577     1.007825032070
           H          1.253523772514    -1.446059507047    -0.277843277423     1.007825032070
           H          2.615213772514    -0.352480507047    -0.246239277423     1.007825032070
           H          1.688739772514    -0.625843507047     1.216510722577     1.007825032070

  Charge       = 0
  Multiplicity = 1
  Basis Set: 6-31G*
  Basis Set:

    Orbital Energies (a.u.)
    -----------------------

    Doubly Occupied:

       1A    -20.551935     2A    -11.268913     3A    -11.216747
       4A    -11.205858     5A     -1.359966     6A     -1.046696
       7A     -0.919481     8A     -0.807980     9A     -0.690562
      10A     -0.641183    11A     -0.610809    12A     -0.567086
      13A     -0.527632    14A     -0.517459    15A     -0.483208
      16A     -0.463855    17A     -0.427543

  @DF-RHF Final Energy:  -193.10784735471370

   => Energetics <=

    Nuclear Repulsion Energy =            132.6750176697300105
    One-Electron Energy =                -524.9520668520697200
    Two-Electron Energy =                 199.1692018276260114
    DFT Exchange-Correlation Energy =       0.0000000000000000
    Empirical Dispersion Energy =           0.0000000000000000
    PCM Polarization Energy =               0.0000000000000000
    EFP Energy =                            0.0000000000000000
    Total Energy =                       -193.1078473547137264

  Mulliken Charges: (a.u.)
   Center  Symbol    Alpha    Beta     Spin     Total
       1     H     0.28018  0.28018  0.00000  0.43964
       2     O     4.37046  4.37046  0.00000 -0.74092
       3     C     2.99806  2.99806  0.00000  0.00388
       4     C     3.15860  3.15860  0.00000 -0.31720
       5     H     0.43087  0.43087  0.00000  0.13827
       6     H     0.41864  0.41864  0.00000  0.16272
       7     C     3.24104  3.24104  0.00000 -0.48207
       8     H     0.42509  0.42509  0.00000  0.14981
       9     H     0.42419  0.42419  0.00000  0.15161
      10     H     0.40975  0.40975  0.00000  0.18051
      11     H     0.42070  0.42070  0.00000  0.15860
      12     H     0.42243  0.42243  0.00000  0.15515

   Total alpha = 17.00000, Total beta = 17.00000, Total charge = -0.00000
