  ==> Input File <==

--------------------------------------------------------------------------
set {
	reference rhf
	basis 6-31G*
}

set_num_threads( 4 )
memory 2 gb

molecule MOL {
0 1

H	 3.089270	 -1.380733	 0.000000
O	 2.178328	 -1.639175	 0.000000
C	 1.368216	 -0.558384	 0.000000
C	 0.452652	 -0.314626	 -1.015691
C	 1.474174	 0.322632	 1.062081
H	 0.371786	 -1.001515	 -1.841330
C	 -0.355591	 0.808855	 -0.968751
H	 2.180958	 0.135532	 1.847272
C	 0.661286	 1.445005	 1.101431
H	 -1.060365	 0.986898	 -1.760567
C	 -0.256434	 1.694677	 0.088897
C	 0.769954	 2.395628	 2.239578
H	 -0.883246	 2.567964	 0.127376
O	 1.521944	 2.271260	 3.152590
H	 0.091831	 3.252934	 2.190342

	symmetry c1
}
set optking {
	frozen_dihedral = ("
		4 3 2 1
	")
}

ee = optimize('scf')
oeprop('DIPOLE', 'QUADRUPOLE', 'MULLIKEN_CHARGES')
f=open( 'psi4out.xyz', 'w' )
f.write( "15  " )
f.write( str(ee) + "\n" )
f.write( MOL.save_string_xyz() )
f.close()
--------------------------------------------------------------------------

    Molecular point group: c1
  Charge       = 0
  Multiplicity = 1
  Basis Set: 6-31G*
  Basis Set:
  @DF-RHF Final Energy:  -418.28253062962483
    Total Energy =                       -418.2825306296248300
    Molecular point group: c1
  Basis Set: 6-31G*
  Basis Set:
  Basis Set: 6-31G*
  Basis Set:
  @DF-RHF Final Energy:  -418.28383612052397
    Total Energy =                       -418.2838361205236879
  Basis Set: 6-31G*
  Basis Set:
  Basis Set: 6-31G*
  Basis Set:
  @DF-RHF Final Energy:  -418.28218910085656
    Total Energy =                       -418.2821891008570674
  Basis Set: 6-31G*
  Basis Set:
  Basis Set: 6-31G*
  Basis Set:
  @DF-RHF Final Energy:  -418.28394988544522
    Total Energy =                       -418.2839498854451676
  Basis Set: 6-31G*
  Basis Set:
  Basis Set: 6-31G*
  Basis Set:
  @DF-RHF Final Energy:  -418.28396356847509
    Total Energy =                       -418.2839635684752011
  Basis Set: 6-31G*
  Basis Set:
  Charge       = 0
  Multiplicity = 1
  Basis Set: 6-31G*
  Basis Set:

    Orbital Energies (a.u.)
    -----------------------

    Doubly Occupied:

       1A    -20.590209     2A    -20.566050     3A    -11.334745
       4A    -11.305427     5A    -11.252937     6A    -11.251801
       7A    -11.250504     8A    -11.247341     9A    -11.245181
      10A     -1.407461    11A     -1.406329    12A     -1.170267
      13A     -1.049186    14A     -1.026159    15A     -0.898592
      16A     -0.848564    17A     -0.797982    18A     -0.747236
      19A     -0.699044    20A     -0.673243    21A     -0.657407
      22A     -0.631220    23A     -0.618230    24A     -0.606781
      25A     -0.557695    26A     -0.546760    27A     -0.531468
      28A     -0.504991    29A     -0.486083    30A     -0.425087
      31A     -0.352385    32A     -0.338261

  @DF-RHF Final Energy:  -418.28396586562980

   => Energetics <=

    Nuclear Repulsion Energy =            402.7770445209058039
    One-Electron Energy =               -1368.0727636695251022
    Two-Electron Energy =                 547.0117532829899574
    DFT Exchange-Correlation Energy =       0.0000000000000000
    Empirical Dispersion Energy =           0.0000000000000000
    PCM Polarization Energy =               0.0000000000000000
    EFP Energy =                            0.0000000000000000
    Total Energy =                       -418.2839658656293977
    Molecular point group: c1
  Basis Set: 6-31G*
  Basis Set:

  -Total Gradient:
     Atom            X                  Y                   Z
    ------   -----------------  -----------------  -----------------
       1       -0.000045239031     0.000080898451    -0.002298515761
       2        0.000729105495     0.000255764732     0.002475619668
       3       -0.002021963673    -0.001150220966     0.000529639144
       4        0.001278069310     0.000731567440    -0.000792079000
       5        0.000056314847    -0.000018741899     0.000069582243
       6        0.000023405953    -0.000026291803     0.000007997722
       7       -0.000027388634     0.000206218289     0.000054785389
       8       -0.000024118207     0.000025322342    -0.000014584527
       9        0.000109615567    -0.000028619461     0.000043595999
      10        0.000013937129    -0.000016502998     0.000005604204
      11       -0.000086300083    -0.000112010607    -0.000136461473
      12       -0.000025974118     0.000033368601    -0.000028193585
      13        0.000012502112     0.000015337918     0.000048493355
      14        0.000004952663     0.000002834676     0.000018017065
      15        0.000003080666     0.000001075287     0.000016499555

  **** Optimization is complete! (in 6 steps) ****
    Final optimized geometry and variables:
    Molecular point group: c1

    Geometry (in Angstrom), charge = 0, multiplicity = 1:

    H            2.150743002301    -2.134055207847    -0.728489261099
    O            1.231471343616    -2.363748993879    -0.710125141158
    C            0.459335372360    -1.240087655951    -0.648638929755
    C           -0.449098787833    -1.003256672501    -1.672786046347
    C            0.555035807576    -0.361735831685     0.411260626942
    H           -0.502432363711    -1.701892550035    -2.487078632728
    C           -1.270027856657     0.108692506549    -1.627970655120
    H            1.247915581226    -0.541561896967     1.212066516225
    C           -0.262084352756     0.763525505771     0.446704538016
    H           -1.974469381261     0.284331908566    -2.420406251690
    C           -1.176771307582     0.997932654391    -0.568327270905
    C           -0.159401253983     1.716336448157     1.580656621602
    H           -1.810598177963     1.866764800514    -0.533431090469
    O            0.606035061720     1.606307593912     2.485346709201
    H           -0.852144907123     2.562113145940     1.538784987521

  Mulliken Charges: (a.u.)
   Center  Symbol    Alpha    Beta     Spin     Total
       1     H     0.26949  0.26949  0.00000  0.46102
       2     O     4.38525  4.38525  0.00000 -0.77050
       3     C     2.81272  2.81272  0.00000  0.37455
       4     C     3.10804  3.10804  0.00000 -0.21609
       5     C     3.11708  3.11708  0.00000 -0.23417
       6     H     0.38647  0.38647  0.00000  0.22706
       7     C     3.10056  3.10056  0.00000 -0.20112
       8     H     0.37551  0.37551  0.00000  0.24899
       9     C     3.05033  3.05033  0.00000 -0.10067
      10     H     0.39255  0.39255  0.00000  0.21491
      11     C     3.10903  3.10903  0.00000 -0.21807
      12     C     2.83199  2.83199  0.00000  0.33601
      13     H     0.39222  0.39222  0.00000  0.21556
      14     O     4.24747  4.24747  0.00000 -0.49494
      15     H     0.42127  0.42127  0.00000  0.15746

   Total alpha = 32.00000, Total beta = 32.00000, Total charge = -0.00000
