  ==> Input File <==

--------------------------------------------------------------------------
set {
	reference rhf
	basis 6-31G*
}

set_num_threads( 1 )
memory 2 gb

molecule MOL {
0 1

O	 2.763986	 -0.376209	 0.224584
C	 1.705091	 0.115954	 0.001797
C	 0.381791	 -0.609817	 0.001258
O	 1.547265	 1.403426	 -0.278639
C	 -0.823008	 0.326187	 0.001381
H	 0.371250	 -1.265087	 -0.865474
H	 0.370908	 -1.265746	 0.867490
C	 -2.149452	 -0.435131	 -0.000098
H	 -0.770201	 0.977095	 -0.865636
H	 -0.771220	 0.975655	 0.869608
C	 -3.368779	 0.488503	 -0.000883
H	 -2.193746	 -1.087250	 -0.871175
H	 -2.195311	 -1.087803	 0.870418
C	 -4.693822	 -0.272754	 -0.001129
H	 -3.325798	 1.139422	 -0.871284
H	 -3.326423	 1.139959	 0.869145
H	 -4.781274	 -0.907928	 -0.878124
H	 -5.538651	 0.408946	 -0.001420
H	 -4.781694	 -0.907783	 0.875984
C	 2.715766	 2.202596	 -0.308426
H	 3.207295	 2.193098	 0.653779
H	 2.384626	 3.200672	 -0.549396
H	 3.402514	 1.843830	 -1.061533

	symmetry c1
}
set optking {
	frozen_dihedral = ("
		15 11 8 12,
		9 5 8 12,
		9 5 3 6,
		1 2 4 20
	")
}

ee = energy('scf')
oeprop('DIPOLE', 'QUADRUPOLE', 'MULLIKEN_CHARGES')
f=open( 'psi4out.xyz', 'w' )
f.write( "23  " )
f.write( str(ee) + "\n" )
f.write( MOL.save_string_xyz() )
f.close()
--------------------------------------------------------------------------

    Molecular point group: c1

    Geometry (in Angstrom), charge = 0, multiplicity = 1:

       Center              X                  Y                   Z               Mass
    ------------   -----------------  -----------------  -----------------  -----------------
           O          2.947837997854    -0.711458127537     0.266881792000    15.994914619560
           C          1.888942997854    -0.219295127537     0.044094792000    12.000000000000
           C          0.565642997854    -0.945066127537     0.043555792000    12.000000000000
           O          1.731116997854     1.068176872463    -0.236341208000    15.994914619560
           C         -0.639156002146    -0.009062127537     0.043678792000    12.000000000000
           H          0.555101997854    -1.600336127537    -0.823176208000     1.007825032070
           H          0.554759997854    -1.600995127537     0.909787792000     1.007825032070
           C         -1.965600002146    -0.770380127537     0.042199792000    12.000000000000
           H         -0.586349002146     0.641845872463    -0.823338208000     1.007825032070
           H         -0.587368002146     0.640405872463     0.911905792000     1.007825032070
           C         -3.184927002146     0.153253872463     0.041414792000    12.000000000000
           H         -2.009894002146    -1.422499127537    -0.828877208000     1.007825032070
           H         -2.011459002146    -1.423052127537     0.912715792000     1.007825032070
           C         -4.509970002146    -0.608003127537     0.041168792000    12.000000000000
           H         -3.141946002146     0.804172872463    -0.828986208000     1.007825032070
           H         -3.142571002146     0.804709872463     0.911442792000     1.007825032070
           H         -4.597422002146    -1.243177127537    -0.835826208000     1.007825032070
           H         -5.354799002146     0.073696872463     0.040877792000     1.007825032070
           H         -4.597842002146    -1.243032127537     0.918281792000     1.007825032070
           C          2.899617997854     1.867346872463    -0.266128208000    12.000000000000
           H          3.391146997854     1.857848872463     0.696076792000     1.007825032070
           H          2.568477997854     2.865422872463    -0.507098208000     1.007825032070
           H          3.586365997854     1.508580872463    -1.019235208000     1.007825032070

  Charge       = 0
  Multiplicity = 1
  Basis Set: 6-31G*
  Basis Set:

    Orbital Energies (a.u.)
    -----------------------

    Doubly Occupied:

       1A    -20.605269     2A    -20.542454     3A    -11.372546
       4A    -11.281267     5A    -11.235444     6A    -11.221190
       7A    -11.218986     8A    -11.218292     9A    -11.211054
      10A     -1.469967    11A     -1.361853    12A     -1.096406
      13A     -1.046071    14A     -0.981633    15A     -0.935273
      16A     -0.847156    17A     -0.796689    18A     -0.774126
      19A     -0.694651    20A     -0.684959    21A     -0.670566
      22A     -0.651859    23A     -0.609864    24A     -0.590718
      25A     -0.576520    26A     -0.562145    27A     -0.556087
      28A     -0.524538    29A     -0.522104    30A     -0.507471
      31A     -0.488175    32A     -0.480639    33A     -0.469433
      34A     -0.467585    35A     -0.451631    36A     -0.425163

  @DF-RHF Final Energy:  -422.97244065681173

   => Energetics <=

    Nuclear Repulsion Energy =            457.5575003123919942
    One-Electron Energy =               -1482.7601799068966102
    Two-Electron Energy =                 602.2302389376932297
    DFT Exchange-Correlation Energy =       0.0000000000000000
    Empirical Dispersion Energy =           0.0000000000000000
    PCM Polarization Energy =               0.0000000000000000
    EFP Energy =                            0.0000000000000000
    Total Energy =                       -422.9724406568113864

  Mulliken Charges: (a.u.)
   Center  Symbol    Alpha    Beta     Spin     Total
       1     O     4.28846  4.28846  0.00000 -0.57692
       2     C     2.60141  2.60141  0.00000  0.79718
       3     C     3.21495  3.21495  0.00000 -0.42990
       4     O     4.30515  4.30515  0.00000 -0.61031
       5     C     3.15160  3.15160  0.00000 -0.30321
       6     H     0.39869  0.39869  0.00000  0.20262
       7     H     0.39800  0.39800  0.00000  0.20401
       8     C     3.15330  3.15330  0.00000 -0.30661
       9     H     0.41032  0.41032  0.00000  0.17936
      10     H     0.41611  0.41611  0.00000  0.16779
      11     C     3.15141  3.15141  0.00000 -0.30282
      12     H     0.42362  0.42362  0.00000  0.15276
      13     H     0.42340  0.42340  0.00000  0.15319
      14     C     3.23956  3.23956  0.00000 -0.47912
      15     H     0.42213  0.42213  0.00000  0.15574
      16     H     0.42220  0.42220  0.00000  0.15561
      17     H     0.42149  0.42149  0.00000  0.15703
      18     H     0.41864  0.41864  0.00000  0.16273
      19     H     0.42137  0.42137  0.00000  0.15726
      20     C     3.09205  3.09205  0.00000 -0.18411
      21     H     0.40855  0.40855  0.00000  0.18289
      22     H     0.40885  0.40885  0.00000  0.18229
      23     H     0.40873  0.40873  0.00000  0.18254

   Total alpha = 36.00000, Total beta = 36.00000, Total charge =  0.00000
