  ==> Input File <==

--------------------------------------------------------------------------
set {
	reference rhf
	basis cc-pvtz
}

set_num_threads( 4 )
memory 2 gb

molecule MOL {
0 1

O	 -0.191836	 0.203133	 -2.055552
C	 0.053047	 -0.434516	 -1.088451
C	 1.237653	 -1.354135	 -0.930750
O	 -0.695554	 -0.422406	 0.000602
C	 2.132553	 -1.403334	 -2.158637
H	 0.850566	 -2.336740	 -0.684577
H	 1.786007	 -1.023939	 -0.055414
H	 1.585619	 -1.748930	 -3.025611
H	 2.962923	 -2.077359	 -1.986812
H	 2.529571	 -0.424188	 -2.390749
C	 -1.852370	 0.402254	 0.000718
C	 -3.063338	 -0.501097	 -0.000437
H	 -1.831732	 1.039442	 -0.872158
H	 -1.832493	 1.038301	 0.874430
H	 -3.071944	 -1.133732	 -0.879113
H	 -3.966302	 0.097976	 -0.000483
H	 -3.072764	 -1.134834	 0.877435

	symmetry c1
}
set optking {
	frozen_dihedral = ("
		2 4 11 13
	")
}

ee = optimize('scf')
oeprop('DIPOLE', 'QUADRUPOLE', 'MULLIKEN_CHARGES')
f=open( 'psi4out.xyz', 'w' )
f.write( "17  " )
f.write( str(ee) + "\n" )
f.write( MOL.save_string_xyz() )
f.close()
--------------------------------------------------------------------------

    Molecular point group: c1
  Charge       = 0
  Multiplicity = 1
  Basis Set: CC-PVTZ
  Basis Set:
  @DF-RHF Final Energy:  -345.03765190625256
    Total Energy =                       -345.0376519062530178
    Molecular point group: c1
  Basis Set: CC-PVTZ
  Basis Set:
  Basis Set: CC-PVTZ
  Basis Set:
  @DF-RHF Final Energy:  -345.03823188281768
    Total Energy =                       -345.0382318828176267
  Basis Set: CC-PVTZ
  Basis Set:
  Basis Set: CC-PVTZ
  Basis Set:
  @DF-RHF Final Energy:  -345.03850693117369
    Total Energy =                       -345.0385069311735151
  Basis Set: CC-PVTZ
  Basis Set:
  Basis Set: CC-PVTZ
  Basis Set:
  @DF-RHF Final Energy:  -345.03861426517136
    Total Energy =                       -345.0386142651716455
  Basis Set: CC-PVTZ
  Basis Set:
  Basis Set: CC-PVTZ
  Basis Set:
  @DF-RHF Final Energy:  -345.03870829198149
    Total Energy =                       -345.0387082919815498
  Basis Set: CC-PVTZ
  Basis Set:
  Charge       = 0
  Multiplicity = 1
  Basis Set: CC-PVTZ
  Basis Set:

    Orbital Energies (a.u.)
    -----------------------

    Doubly Occupied:

       1A    -20.592240     2A    -20.532429     3A    -11.365040
       4A    -11.281113     5A    -11.235388     6A    -11.219272
       7A    -11.213447     8A     -1.468005     9A     -1.365354
      10A     -1.070084    11A     -1.030716    12A     -0.914902
      13A     -0.851528    14A     -0.767756    15A     -0.704014
      16A     -0.684089    17A     -0.662893    18A     -0.626265
      19A     -0.602046    20A     -0.569867    21A     -0.553971
      22A     -0.532538    23A     -0.521250    24A     -0.515933
      25A     -0.496326    26A     -0.494857    27A     -0.450818
      28A     -0.440012

  @DF-RHF Final Energy:  -345.03871875994372

   => Energetics <=

    Nuclear Repulsion Energy =            316.5453025876796005
    One-Electron Energy =               -1097.6437414621382231
    Two-Electron Energy =                 436.0597201145152439
    DFT Exchange-Correlation Energy =       0.0000000000000000
    Empirical Dispersion Energy =           0.0000000000000000
    PCM Polarization Energy =               0.0000000000000000
    EFP Energy =                            0.0000000000000000
    Total Energy =                       -345.0387187599434355
    Molecular point group: c1
  Basis Set: CC-PVTZ
  Basis Set:

  -Total Gradient:
     Atom            X                  Y                   Z
    ------   -----------------  -----------------  -----------------
       1        0.000010519112    -0.000005899013    -0.000027001786
       2        0.000357464833     0.000580140547     0.000273109901
       3        0.000022446146     0.000015585152     0.000020425667
       4       -0.000649843418    -0.000939503971    -0.000405873548
       5       -0.000007247696    -0.000015741026    -0.000006851198
       6       -0.000009932858    -0.000003363617    -0.000013361817
       7       -0.000016542435    -0.000002686738    -0.000011083163
       8        0.000002454053     0.000001624207     0.000000717179
       9        0.000005087542     0.000000904854    -0.000004403442
      10        0.000001087581     0.000004231567     0.000002170421
      11        0.000759239473     0.000860220987     0.000606990471
      12       -0.000030591397     0.000007626781     0.000020564806
      13       -0.000409704090    -0.000500468604    -0.000436734956
      14       -0.000000237946    -0.000007201709    -0.000031529339
      15        0.000011196731     0.000013453702     0.000016960718
      16       -0.000037616605    -0.000004661442     0.000003267572
      17       -0.000007779025    -0.000004261679    -0.000007367486

  **** Optimization is complete! (in 6 steps) ****
    Final optimized geometry and variables:
    Molecular point group: c1

    Geometry (in Angstrom), charge = 0, multiplicity = 1:

    O            0.184194121718     0.680966053047    -1.200567373309
    C            0.413129175843     0.063251842797    -0.217076467698
    C            1.602870163292    -0.844022399781    -0.025448702954
    O           -0.348504520713     0.076688975763     0.864523579193
    C            2.517812907168    -0.907595545893    -1.237766977952
    H            1.219287506872    -1.825075258538     0.231886502510
    H            2.134175830467    -0.494192632437     0.852671892278
    H            1.987951124937    -1.273078175866    -2.107183514032
    H            3.350610460981    -1.571635568540    -1.040488535243
    H            2.910872119280     0.070447057240    -1.480921008908
    C           -1.516108395573     0.888367676176     0.902466622820
    C           -2.751961114971     0.014278568515     0.931495585841
    H           -1.524973084243     1.544360768048     0.048662596916
    H           -1.439810459302     1.479861945158     1.803862234544
    H           -2.832527879887    -0.566166563099     0.020655963505
    H           -3.637869128849     0.632896703531     1.019907311487
    H           -2.724144449716    -0.666521654642     1.773116614878

  Mulliken Charges: (a.u.)
   Center  Symbol    Alpha    Beta     Spin     Total
       1     O     4.19851  4.19851  0.00000 -0.39703
       2     C     2.80059  2.80059  0.00000  0.39882
       3     C     3.09523  3.09523  0.00000 -0.19045
       4     O     4.15766  4.15766  0.00000 -0.31531
       5     C     3.14028  3.14028  0.00000 -0.28056
       6     H     0.44198  0.44198  0.00000  0.11605
       7     H     0.44179  0.44179  0.00000  0.11641
       8     H     0.44860  0.44860  0.00000  0.10281
       9     H     0.45064  0.45064  0.00000  0.09872
      10     H     0.44846  0.44846  0.00000  0.10307
      11     C     2.99055  2.99055  0.00000  0.01890
      12     C     3.13931  3.13931  0.00000 -0.27861
      13     H     0.44273  0.44273  0.00000  0.11454
      14     H     0.44925  0.44925  0.00000  0.10150
      15     H     0.44976  0.44976  0.00000  0.10048
      16     H     0.45297  0.45297  0.00000  0.09407
      17     H     0.45170  0.45170  0.00000  0.09660

   Total alpha = 28.00000, Total beta = 28.00000, Total charge =  0.00000
