                              Psi4 1.0.54 Driver

  ==> Input File <==

--------------------------------------------------------------------------
set {
	reference rhf
	basis cc-pvtz
}

set_num_threads( 4 )
memory 2 gb

molecule MOL {
0 1

H	 2.408240	 -2.036728	 1.067621
O	 2.736398	 -1.194210	 0.808394
C	 1.741989	 -0.376744	 0.419187
C	 2.088472	 0.902816	 0.009559
C	 0.420012	 -0.767550	 0.416746
H	 3.122284	 1.186181	 0.019223
C	 1.113217	 1.783086	 -0.399529
H	 0.124390	 -1.748037	 0.727472
C	 -0.532034	 0.141680	 0.000000
H	 1.390354	 2.769899	 -0.714398
C	 -0.221469	 1.413723	 -0.410776
N	 -1.937041	 -0.281114	 0.000000
H	 -0.989165	 2.086189	 -0.725667
O	 -2.159542	 -1.446261	 0.000000
O	 -2.764978	 0.565773	 0.000000

	symmetry c1
}
set optking {
	frozen_dihedral = ("
		11 9 12 14
	")
}

ee,wfn = optimize('scf', return_wfn=True)
oeprop( wfn, 'DIPOLE', 'QUADRUPOLE', 'MULLIKEN_CHARGES')
f=open( 'psi4out.xyz', 'w' )
f.write( "15  " )
f.write( str(ee) + "\n" )
f.write( MOL.save_string_xyz() )
f.close()
--------------------------------------------------------------------------

    Molecular point group: c1
  Charge       = 0
  Multiplicity = 1
  Basis Set: CC-PVTZ
  Basis Set:
  @DF-RHF Final Energy:  -509.21842759773403
    Total Energy =                       -509.2184275977340349
    Molecular point group: c1
  Basis Set: CC-PVTZ
  Basis Set:
  Basis Set: CC-PVTZ
  Basis Set:
  @DF-RHF Final Energy:  -509.21182774824507
    Total Energy =                       -509.2118277482452413
  Basis Set: CC-PVTZ
  Basis Set:
  Basis Set: CC-PVTZ
  Basis Set:
  @DF-RHF Final Energy:  -509.21761618850365
    Total Energy =                       -509.2176161885038255
  Basis Set: CC-PVTZ
  Basis Set:
  Basis Set: CC-PVTZ
  Basis Set:
  @DF-RHF Final Energy:  -509.21848630690698
    Total Energy =                       -509.2184863069073799
  Basis Set: CC-PVTZ
  Basis Set:
  Basis Set: CC-PVTZ
  Basis Set:
  @DF-RHF Final Energy:  -509.21849186158346
    Total Energy =                       -509.2184918615837432
  Basis Set: CC-PVTZ
  Basis Set:
  Basis Set: CC-PVTZ
  Basis Set:
  @DF-RHF Final Energy:  -509.21850228220165
    Total Energy =                       -509.2185022822013707
  Basis Set: CC-PVTZ
  Basis Set:
  Charge       = 0
  Multiplicity = 1
  Basis Set: CC-PVTZ
  Basis Set:

    Orbital Energies (a.u.)
    -----------------------

    Doubly Occupied:

       1A    -20.608708     2A    -20.595632     3A    -20.595079
       4A    -15.850446     5A    -11.328088     6A    -11.309378
       7A    -11.263445     8A    -11.263059     9A    -11.258664
      10A    -11.256051    11A     -1.644431    12A     -1.441357
      13A     -1.427101    14A     -1.202895    15A     -1.095820
      16A     -1.048294    17A     -0.966914    18A     -0.882165
      19A     -0.832101    20A     -0.795069    21A     -0.758413
      22A     -0.742403    23A     -0.728235    24A     -0.710220
      25A     -0.676691    26A     -0.636116    27A     -0.621949
      28A     -0.598357    29A     -0.561378    30A     -0.547170
      31A     -0.522528    32A     -0.494902    33A     -0.493265
      34A     -0.459833    35A     -0.379694    36A     -0.346301

  @DF-RHF Final Energy:  -509.21850287367505

   => Energetics <=

    Nuclear Repulsion Energy =            504.7319226143594619
    One-Electron Energy =               -1696.0165443484988828
    Two-Electron Energy =                 682.0661188604644849
    DFT Exchange-Correlation Energy =       0.0000000000000000
    Empirical Dispersion Energy =           0.0000000000000000
    PCM Polarization Energy =               0.0000000000000000
    EFP Energy =                            0.0000000000000000
    Total Energy =                       -509.2185028736748791
    Molecular point group: c1
  Basis Set: CC-PVTZ
  Basis Set:

  -Total Gradient:
     Atom            X                  Y                   Z
    ------   -----------------  -----------------  -----------------
       1        0.000000580601     0.000000477053     0.000010235608
       2       -0.000002491496    -0.000005898156    -0.000009506708
       3       -0.000006058261    -0.000005618582    -0.000010864307
       4       -0.000005234932     0.000004012125     0.000013327880
       5       -0.000017113855     0.000007029346     0.000007872717
       6       -0.000000305598    -0.000002383779    -0.000004989064
       7       -0.000004896643     0.000005605329     0.000012649020
       8       -0.000006901640    -0.000007842039     0.000001205708
       9       -0.000290621885     0.000726822380     0.001507648201
      10       -0.000003115842    -0.000000631646     0.000003095395
      11        0.000214467014    -0.000543417712    -0.001573204072
      12       -0.000176937663    -0.000205274914     0.001952191939
      13        0.000005705368    -0.000003769826     0.000002805853
      14        0.000245603722    -0.000053615200    -0.001900665276
      15        0.000047321109     0.000084505612    -0.000011802892

  **** Optimization is complete! (in 7 steps) ****
    Final optimized geometry and variables:
    Molecular point group: c1

    Geometry (in Angstrom), charge = 0, multiplicity = 1:

    H            2.406793323702    -2.037010650267     1.019428351963
    O            2.732801413018    -1.189949168140     0.772693861891
    C            1.741077749035    -0.380754024373     0.360795637325
    C            2.087000447162     0.899784750815    -0.046722119551
    C            0.422234644688    -0.781594103103     0.329492848386
    H            3.118888074776     1.188909021307    -0.020514787858
    C            1.114402529305     1.772701941129    -0.477335273958
    H            0.127925435680    -1.768349482721     0.622453583515
    C           -0.527386109199     0.125355254278    -0.095529907855
    H            1.392380203612     2.758073502227    -0.795989355948
    C           -0.218630540819     1.397693666984    -0.504839700388
    N           -1.925675265892    -0.311631575090    -0.139114132019
    H           -0.986213554064     2.066309974003    -0.829299646574
    O           -2.133638249346    -1.479530139018    -0.138342662149
    O           -2.760237705945     0.527569822704    -0.186606376332

  Mulliken Charges: (a.u.)
   Center  Symbol    Alpha    Beta     Spin     Total
       1     H     0.38418  0.38418  0.00000  0.23164
       2     O     4.16841  4.16841  0.00000 -0.33683
       3     C     2.84434  2.84434  0.00000  0.31132
       4     C     3.09795  3.09795  0.00000 -0.19589
       5     C     3.13549  3.13549  0.00000 -0.27097
       6     H     0.41323  0.41323  0.00000  0.17354
       7     C     3.05642  3.05642  0.00000 -0.11285
       8     H     0.40966  0.40966  0.00000  0.18069
       9     C     2.96943  2.96943  0.00000  0.06113
      10     H     0.41599  0.41599  0.00000  0.16802
      11     C     3.09854  3.09854  0.00000 -0.19707
      12     N     3.25582  3.25582  0.00000  0.48836
      13     H     0.40139  0.40139  0.00000  0.19722
      14     O     4.17623  4.17623  0.00000 -0.35246
      15     O     4.17292  4.17292  0.00000 -0.34585

   Total alpha = 36.00000, Total beta = 36.00000, Total charge =  0.00000

*** Psi4 exiting successfully. Buy a developer a beer!
