                              Psi4 1.0.54 Driver

  ==> Input File <==

--------------------------------------------------------------------------
set {
	reference rhf
	basis cc-pvtz
}

set_num_threads( 4 )
memory 2 gb

molecule MOL {
0 1

H	 -1.046410	 -0.852095	 -1.007676
O	 -1.432053	 -0.565244	 -0.200812
C	 -0.727158	 0.534527	 0.310686
C	 0.680222	 0.664433	 -0.252229
H	 -1.306802	 1.408001	 0.044211
H	 -0.690821	 0.490158	 1.397609
C	 1.605391	 -0.489360	 0.123098
H	 0.615089	 0.745647	 -1.332226
H	 1.101414	 1.597893	 0.110950
H	 1.247627	 -1.432485	 -0.275204
H	 2.601435	 -0.332816	 -0.273062
H	 1.691776	 -0.589902	 1.200774

	symmetry c1
}
set optking {
	frozen_dihedral = ("
		1 2 3 4
	")
}

ee,wfn = optimize('scf', return_wfn=True)
oeprop( wfn, 'DIPOLE', 'QUADRUPOLE', 'MULLIKEN_CHARGES')
f=open( 'psi4out.xyz', 'w' )
f.write( "12  " )
f.write( str(ee) + "\n" )
f.write( MOL.save_string_xyz() )
f.close()
--------------------------------------------------------------------------

    Molecular point group: c1
  Charge       = 0
  Multiplicity = 1
  Basis Set: CC-PVTZ
  Basis Set:
  @DF-RHF Final Energy:  -193.18791218585119
    Total Energy =                       -193.1879121858511894
    Molecular point group: c1
  Basis Set: CC-PVTZ
  Basis Set:
  Basis Set: CC-PVTZ
  Basis Set:
  @DF-RHF Final Energy:  -193.18858878064830
    Total Energy =                       -193.1885887806482742
  Basis Set: CC-PVTZ
  Basis Set:
  Basis Set: CC-PVTZ
  Basis Set:
  @DF-RHF Final Energy:  -193.18887981254881
    Total Energy =                       -193.1888798125487767
  Basis Set: CC-PVTZ
  Basis Set:
  Basis Set: CC-PVTZ
  Basis Set:
  @DF-RHF Final Energy:  -193.18888996754998
    Total Energy =                       -193.1888899675500681
  Basis Set: CC-PVTZ
  Basis Set:
  Basis Set: CC-PVTZ
  Basis Set:
  @DF-RHF Final Energy:  -193.18889409641292
    Total Energy =                       -193.1888940964129233
  Basis Set: CC-PVTZ
  Basis Set:
  Charge       = 0
  Multiplicity = 1
  Basis Set: CC-PVTZ
  Basis Set:

    Orbital Energies (a.u.)
    -----------------------

    Doubly Occupied:

       1A    -20.544264     2A    -11.265591     3A    -11.224648
       4A    -11.214487     5A     -1.362651     6A     -1.054494
       7A     -0.927320     8A     -0.820820     9A     -0.664553
      10A     -0.645807    11A     -0.638901    12A     -0.573332
      13A     -0.547450    14A     -0.513575    15A     -0.491601
      16A     -0.466983    17A     -0.434355

  @DF-RHF Final Energy:  -193.18889435573939

   => Energetics <=

    Nuclear Repulsion Energy =            133.2600702068749854
    One-Electron Energy =                -526.1162676380934045
    Two-Electron Energy =                 199.6673030754788556
    DFT Exchange-Correlation Energy =       0.0000000000000000
    Empirical Dispersion Energy =           0.0000000000000000
    PCM Polarization Energy =               0.0000000000000000
    EFP Energy =                            0.0000000000000000
    Total Energy =                       -193.1888943557395919
    Molecular point group: c1
  Basis Set: CC-PVTZ
  Basis Set:

  -Total Gradient:
     Atom            X                  Y                   Z
    ------   -----------------  -----------------  -----------------
       1        0.001142509560    -0.001336935317     0.001119685993
       2       -0.001605078731     0.001934649362    -0.001847167456
       3        0.000843223319    -0.001384436365     0.001708380741
       4       -0.000398143602     0.000776034252    -0.000984323942
       5        0.000016011420    -0.000006731240     0.000004649976
       6        0.000008171592     0.000013343853    -0.000001592062
       7       -0.000000685919    -0.000006433391    -0.000000034382
       8       -0.000002172593    -0.000000368567     0.000006282587
       9        0.000006353676     0.000002298521    -0.000002622334
      10        0.000002196829     0.000005678550     0.000000198029
      11       -0.000014357302     0.000000195266     0.000002817640
      12        0.000001971749     0.000002705076    -0.000006274790

  **** Optimization is complete! (in 6 steps) ****
    Final optimized geometry and variables:
    Molecular point group: c1

    Geometry (in Angstrom), charge = 0, multiplicity = 1:

    H           -1.029920164617    -0.829709789385    -1.043470545128
    O           -1.441796473713    -0.531186193035    -0.254353454539
    C           -0.726904060963     0.545184911428     0.296928725778
    C            0.709791878703     0.639787153461    -0.191668170220
    H           -1.244093945798     1.471668147575     0.064970941012
    H           -0.747010770519     0.422850001174     1.373878767080
    C            1.582399895522    -0.546117529962     0.210759104084
    H            0.706570029225     0.748979382239    -1.274462255417
    H            1.137947391605     1.556100434128     0.202385475142
    H            1.188721101717    -1.481752260533    -0.168400200702
    H            2.590107077097    -0.432631513154    -0.171025627542
    H            1.642422962517    -0.631925547431     1.290105400793

  Mulliken Charges: (a.u.)
   Center  Symbol    Alpha    Beta     Spin     Total
       1     H     0.39288  0.39288  0.00000  0.21424
       2     O     4.20709  4.20709  0.00000 -0.41419
       3     C     2.95494  2.95494  0.00000  0.09013
       4     C     3.10509  3.10509  0.00000 -0.21017
       5     H     0.46582  0.46582  0.00000  0.06837
       6     H     0.46870  0.46870  0.00000  0.06260
       7     C     3.14249  3.14249  0.00000 -0.28498
       8     H     0.45563  0.45563  0.00000  0.08873
       9     H     0.45072  0.45072  0.00000  0.09855
      10     H     0.45501  0.45501  0.00000  0.08998
      11     H     0.44854  0.44854  0.00000  0.10293
      12     H     0.45310  0.45310  0.00000  0.09380

   Total alpha = 17.00000, Total beta = 17.00000, Total charge =  0.00000

*** Psi4 exiting successfully. Buy a developer a beer!
