                              Psi4 1.0.54 Driver

  ==> Input File <==

--------------------------------------------------------------------------
set {
	reference rhf
	basis cc-pvtz
}

set_num_threads( 4 )
memory 2 gb

molecule MOL {
0 1

H	 -3.135559	 0.401989	 1.398262
C	 -2.119616	 0.210130	 1.113368
C	 -1.728843	 -1.058559	 0.708945
C	 -1.182640	 1.216655	 1.142640
H	 -2.446240	 -1.856696	 0.679750
C	 -0.428242	 -1.308778	 0.343090
H	 -1.466089	 2.204683	 1.452714
C	 0.135254	 0.981227	 0.776391
H	 -0.116060	 -2.285324	 0.029131
C	 0.514407	 -0.286506	 0.374921
H	 0.840279	 1.785757	 0.810056
O	 1.760432	 -0.625184	 0.000000
C	 2.773565	 0.334879	 0.000000
H	 2.728295	 0.960928	 -0.884150
H	 3.706387	 -0.206610	 0.000000
H	 2.728295	 0.960928	 0.884150

	symmetry c1
}
set optking {
	frozen_dihedral = ("
		10 12 13 14
	")
}

ee,wfn = optimize('scf', return_wfn=True)
oeprop( wfn, 'DIPOLE', 'QUADRUPOLE', 'MULLIKEN_CHARGES')
f=open( 'psi4out.xyz', 'w' )
f.write( "16  " )
f.write( str(ee) + "\n" )
f.write( MOL.save_string_xyz() )
f.close()
--------------------------------------------------------------------------

    Molecular point group: c1
  Charge       = 0
  Multiplicity = 1
  Basis Set: CC-PVTZ
  Basis Set:
  @DF-RHF Final Energy:  -344.70222780805523
    Total Energy =                       -344.7022278080551700
    Molecular point group: c1
  Basis Set: CC-PVTZ
  Basis Set:
  Basis Set: CC-PVTZ
  Basis Set:
  @DF-RHF Final Energy:  -344.70248638523731
    Total Energy =                       -344.7024863852371368
  Basis Set: CC-PVTZ
  Basis Set:
  Basis Set: CC-PVTZ
  Basis Set:
  @DF-RHF Final Energy:  -344.70292554694680
    Total Energy =                       -344.7029255469467444
  Basis Set: CC-PVTZ
  Basis Set:
  Basis Set: CC-PVTZ
  Basis Set:
  @DF-RHF Final Energy:  -344.70296091280619
    Total Energy =                       -344.7029609128063612
  Basis Set: CC-PVTZ
  Basis Set:
  Basis Set: CC-PVTZ
  Basis Set:
  @DF-RHF Final Energy:  -344.70296426898091
    Total Energy =                       -344.7029642689807361
  Basis Set: CC-PVTZ
  Basis Set:
  Charge       = 0
  Multiplicity = 1
  Basis Set: CC-PVTZ
  Basis Set:

    Orbital Energies (a.u.)
    -----------------------

    Doubly Occupied:

       1A    -20.579448     2A    -11.293421     3A    -11.278243
       4A    -11.231271     5A    -11.229997     6A    -11.221884
       7A    -11.218029     8A    -11.217075     9A     -1.418731
      10A     -1.150964    11A     -1.025474    12A     -1.016707
      13A     -0.943947    14A     -0.834771    15A     -0.808307
      16A     -0.725610    17A     -0.667487    18A     -0.666529
      19A     -0.660264    20A     -0.618933    21A     -0.590381
      22A     -0.580033    23A     -0.528820    24A     -0.522505
      25A     -0.512128    26A     -0.480392    27A     -0.465216
      28A     -0.339699    29A     -0.310368

  @DF-RHF Final Energy:  -344.70296454291508

   => Energetics <=

    Nuclear Repulsion Energy =            348.8063616136433893
    One-Electron Energy =               -1158.7453862701913749
    Two-Electron Energy =                 465.2360601136330729
    DFT Exchange-Correlation Energy =       0.0000000000000000
    Empirical Dispersion Energy =           0.0000000000000000
    PCM Polarization Energy =               0.0000000000000000
    EFP Energy =                            0.0000000000000000
    Total Energy =                       -344.7029645429149127
    Molecular point group: c1
  Basis Set: CC-PVTZ
  Basis Set:

  -Total Gradient:
     Atom            X                  Y                   Z
    ------   -----------------  -----------------  -----------------
       1       -0.000005221717    -0.000007886838    -0.000001919279
       2        0.000016860006     0.000104692809     0.000020062857
       3        0.000068041954    -0.000063049215    -0.000045634961
       4       -0.000101451932    -0.000049653512     0.000010968946
       5       -0.000007207995     0.000013908813     0.000007753372
       6       -0.000116334841    -0.000019746315    -0.000003621448
       7        0.000000687576    -0.000006039113    -0.000000834320
       8        0.000063388282    -0.000076434888    -0.000053715714
       9        0.000014289246     0.000006838530     0.000001867437
      10        0.000542004362    -0.000464979212     0.002057903116
      11        0.000010200471    -0.000004546351     0.000003808032
      12       -0.000273672203     0.000428019989    -0.003277303116
      13       -0.001591095066     0.001660608311     0.002487412903
      14        0.001428460746    -0.001513399684    -0.001157477884
      15       -0.000032959786    -0.000002219553    -0.000003145418
      16       -0.000015989102    -0.000006113770    -0.000046124522

  **** Optimization is complete! (in 6 steps) ****
    Final optimized geometry and variables:
    Molecular point group: c1

    Geometry (in Angstrom), charge = 0, multiplicity = 1:

    H           -3.185851570589     0.444007607756     0.912785982849
    C           -2.174063243573     0.259774296707     0.608606921345
    C           -1.721276421162    -1.037666301932     0.418414159893
    C           -1.305057719867     1.305618040579     0.398257879541
    H           -2.385733033547    -1.865870937132     0.576853142493
    C           -0.424601682838    -1.278856512427     0.030952104005
    H           -1.639093740371     2.316712067648     0.535283423580
    C            0.005732209271     1.079521990665     0.003874960546
    H           -0.064114664401    -2.277733689789    -0.117231970758
    C            0.449462051835    -0.217785109156    -0.176025746563
    H            0.655760384657     1.913487607242    -0.164335515496
    O            1.693187115716    -0.544840803344    -0.570746552101
    C            2.713174203829     0.409508702094    -0.535647574667
    H            2.664672263166     1.070849820358    -1.393857435675
    H            3.643016094592    -0.136780614633    -0.581066065976
    H            2.689915747613     0.989425599600     0.378270412395

  Mulliken Charges: (a.u.)
   Center  Symbol    Alpha    Beta     Spin     Total
       1     H     0.42440  0.42440  0.00000  0.15120
       2     C     3.10048  3.10048  0.00000 -0.20096
       3     C     3.05831  3.05831  0.00000 -0.11661
       4     C     3.06196  3.06196  0.00000 -0.12392
       5     H     0.42297  0.42297  0.00000  0.15406
       6     C     3.11077  3.11077  0.00000 -0.22155
       7     H     0.42341  0.42341  0.00000  0.15317
       8     C     3.14129  3.14129  0.00000 -0.28259
       9     H     0.42065  0.42065  0.00000  0.15871
      10     C     2.85237  2.85237  0.00000  0.29526
      11     H     0.42272  0.42272  0.00000  0.15456
      12     O     4.15285  4.15285  0.00000 -0.30570
      13     C     3.04414  3.04414  0.00000 -0.08827
      14     H     0.46017  0.46017  0.00000  0.07967
      15     H     0.44029  0.44029  0.00000  0.11943
      16     H     0.46323  0.46323  0.00000  0.07354

   Total alpha = 29.00000, Total beta = 29.00000, Total charge = -0.00000

*** Psi4 exiting successfully. Buy a developer a beer!
