                              Psi4 1.0.54 Driver

  ==> Input File <==

--------------------------------------------------------------------------
set {
	reference rhf
	basis cc-pvtz
}

set_num_threads( 4 )
memory 2 gb

molecule MOL {
0 1

O	 1.057534	 1.555998	 -0.451926
C	 0.662739	 0.852100	 -1.317793
C	 -0.618140	 0.058528	 -1.285280
O	 1.313535	 0.667854	 -2.454848
C	 -1.413045	 0.229353	 0.001137
H	 -1.201745	 0.356012	 -2.150375
H	 -0.355453	 -0.981365	 -1.449840
C	 -2.702562	 -0.586401	 0.000228
H	 -1.642823	 1.279356	 0.143385
H	 -0.796082	 -0.059850	 0.844502
C	 -3.953810	 0.284959	 -0.000782
H	 -2.717793	 -1.238567	 -0.869075
H	 -2.719108	 -1.238472	 0.869576
H	 -3.983727	 0.924403	 -0.876454
H	 -4.852989	 -0.320147	 -0.001515
H	 -3.985140	 0.924399	 0.874841
C	 2.537167	 1.355218	 -2.620908
H	 2.384529	 2.423120	 -2.570776
H	 2.904840	 1.077214	 -3.595279
H	 3.244527	 1.064231	 -1.858549

	symmetry c1
}
set optking {
	frozen_dihedral = ("
		9 5 8 12
	")
}

ee,wfn = optimize('scf', return_wfn=True)
oeprop( wfn, 'DIPOLE', 'QUADRUPOLE', 'MULLIKEN_CHARGES')
f=open( 'psi4out.xyz', 'w' )
f.write( "20  " )
f.write( str(ee) + "\n" )
f.write( MOL.save_string_xyz() )
f.close()
--------------------------------------------------------------------------

    Molecular point group: c1
  Charge       = 0
  Multiplicity = 1
  Basis Set: CC-PVTZ
  Basis Set:
  @DF-RHF Final Energy:  -384.07725843727275
    Total Energy =                       -384.0772584372730307
    Molecular point group: c1
  Basis Set: CC-PVTZ
  Basis Set:
  Basis Set: CC-PVTZ
  Basis Set:
  @DF-RHF Final Energy:  -384.07752734962048
    Total Energy =                       -384.0775273496204818
  Basis Set: CC-PVTZ
  Basis Set:
  Basis Set: CC-PVTZ
  Basis Set:
  @DF-RHF Final Energy:  -384.07756616063739
    Total Energy =                       -384.0775661606373887
  Basis Set: CC-PVTZ
  Basis Set:
  Basis Set: CC-PVTZ
  Basis Set:
  @DF-RHF Final Energy:  -384.07751031921822
    Total Energy =                       -384.0775103192186180
  Basis Set: CC-PVTZ
  Basis Set:
  Basis Set: CC-PVTZ
  Basis Set:
  @DF-RHF Final Energy:  -384.07760644164233
    Total Energy =                       -384.0776064416419331
  Basis Set: CC-PVTZ
  Basis Set:
  Charge       = 0
  Multiplicity = 1
  Basis Set: CC-PVTZ
  Basis Set:

    Orbital Energies (a.u.)
    -----------------------

    Doubly Occupied:

       1A    -20.596387     2A    -20.534312     3A    -11.364502
       4A    -11.278558     5A    -11.234422     6A    -11.218202
       7A    -11.217142     8A    -11.209952     9A     -1.472273
      10A     -1.365880    11A     -1.087960    12A     -1.024361
      13A     -0.969651    14A     -0.887631    15A     -0.804698
      16A     -0.769245    17A     -0.702124    18A     -0.685905
      19A     -0.676350    20A     -0.635264    21A     -0.607534
      22A     -0.597348    23A     -0.575627    24A     -0.545753
      25A     -0.527304    26A     -0.523572    27A     -0.514428
      28A     -0.475641    29A     -0.474107    30A     -0.466780
      31A     -0.458353    32A     -0.439439

  @DF-RHF Final Energy:  -384.07760655619825

   => Energetics <=

    Nuclear Repulsion Energy =            382.9050216144260048
    One-Electron Energy =               -1282.0838374906552417
    Two-Electron Energy =                 515.1012093200308755
    DFT Exchange-Correlation Energy =       0.0000000000000000
    Empirical Dispersion Energy =           0.0000000000000000
    PCM Polarization Energy =               0.0000000000000000
    EFP Energy =                            0.0000000000000000
    Total Energy =                       -384.0776065561983614
    Molecular point group: c1
  Basis Set: CC-PVTZ
  Basis Set:

  -Total Gradient:
     Atom            X                  Y                   Z
    ------   -----------------  -----------------  -----------------
       1        0.000002279302    -0.000004174335    -0.000000837956
       2       -0.000002562663    -0.000004362169     0.000010360678
       3       -0.000020275248     0.000015470514     0.000011420149
       4       -0.000003522086     0.000000343645    -0.000005008144
       5       -0.000018701839     0.000041563096     0.001543769010
       6        0.000003325183    -0.000005739811     0.000001889904
       7        0.000003407862    -0.000004709929     0.000000407006
       8        0.000720374193    -0.001224562012     0.000602817741
       9       -0.000094447152     0.000166371596    -0.001402689927
      10       -0.000000024341     0.000002102842     0.000000917201
      11        0.000009433834    -0.000009217788     0.000000986847
      12       -0.000613461848     0.001021712573    -0.000755348943
      13       -0.000001205889     0.000000894533    -0.000004716817
      14        0.000000859640    -0.000001842263     0.000002463354
      15       -0.000000589582    -0.000001389538     0.000001098458
      16        0.000001771841     0.000002354219    -0.000001872932
      17        0.000009346055     0.000004177545    -0.000002729803
      18        0.000002110591    -0.000000690842    -0.000000906524
      19        0.000001882114     0.000001004413    -0.000000179139
      20        0.000000000036     0.000000693711    -0.000001840164

  **** Optimization is complete! (in 6 steps) ****
    Final optimized geometry and variables:
    Molecular point group: c1

    Geometry (in Angstrom), charge = 0, multiplicity = 1:

    O            1.419418499499     0.990587204447     0.576280957439
    C            1.026544057973     0.279191619661    -0.284400173531
    C           -0.249643398176    -0.521842206379    -0.243780532596
    O            1.675656760229     0.091895419272    -1.422010811642
    C           -1.041273873663    -0.352835186673     1.047233865859
    H           -0.839635957128    -0.229452329114    -1.106588754529
    H            0.017654256326    -1.560498788606    -0.407272356651
    C           -2.360774446002    -1.151866497345     1.041261795215
    H           -1.246979785753     0.701243977452     1.185742468539
    H           -0.418644238412    -0.649216870876     1.881066395329
    C           -3.602359552458    -0.263725101136     1.017722708884
    H           -2.391759771739    -1.807543769702     0.176618980136
    H           -2.404745118112    -1.796650254773     1.911344946024
    H           -3.605377895002     0.381392353363     0.144901674127
    H           -4.509590455831    -0.856728548288     0.993759836974
    H           -3.643154574785     0.371920994927     1.895449828187
    C            2.894771031363     0.785406114383    -1.595355898900
    H            2.736003163689     1.852693018646    -1.551393855232
    H            3.261730402071     0.503606169922    -2.568911232806
    H            3.605728316676     0.503306955795    -0.832994838486

  Mulliken Charges: (a.u.)
   Center  Symbol    Alpha    Beta     Spin     Total
       1     O     4.19669  4.19669  0.00000 -0.39337
       2     C     2.80822  2.80822  0.00000  0.38355
       3     C     3.09931  3.09931  0.00000 -0.19861
       4     O     4.14703  4.14703  0.00000 -0.29406
       5     C     3.09008  3.09008  0.00000 -0.18017
       6     H     0.43972  0.43972  0.00000  0.12056
       7     H     0.43918  0.43918  0.00000  0.12164
       8     C     3.09183  3.09183  0.00000 -0.18366
       9     H     0.44671  0.44671  0.00000  0.10658
      10     H     0.44139  0.44139  0.00000  0.11721
      11     C     3.14642  3.14642  0.00000 -0.29283
      12     H     0.45636  0.45636  0.00000  0.08727
      13     H     0.44728  0.44728  0.00000  0.10544
      14     H     0.45599  0.45599  0.00000  0.08802
      15     H     0.44946  0.44946  0.00000  0.10109
      16     H     0.45269  0.45269  0.00000  0.09462
      17     C     3.03770  3.03770  0.00000 -0.07539
      18     H     0.45432  0.45432  0.00000  0.09135
      19     H     0.44529  0.44529  0.00000  0.10942
      20     H     0.45433  0.45433  0.00000  0.09134

   Total alpha = 32.00000, Total beta = 32.00000, Total charge = -0.00000

*** Psi4 exiting successfully. Buy a developer a beer!
