  ==> Input File <==

--------------------------------------------------------------------------
set {
	reference rhf
	basis 6-31G*
}

set_num_threads( 4 )
memory 2 gb

molecule MOL {
0 1

H	 -0.101260	 -6.064173	 1.113942
C	 0.254994	 -5.063526	 0.891367
C	 -0.909393	 -4.084894	 0.744923
H	 0.920491	 -4.764136	 1.696168
H	 0.843099	 -5.117997	 -0.020451
C	 -0.451378	 -2.664503	 0.430109
H	 -1.498513	 -4.064131	 1.656459
H	 -1.573362	 -4.431197	 -0.045401
N	 -1.579830	 -1.760261	 0.328128
H	 0.190498	 -2.308923	 1.231683
H	 0.161572	 -2.669990	 -0.477438
C	 -1.217365	 -0.386708	 0.039277
H	 -2.210620	 -2.093266	 -0.376323
C	 -2.452633	 0.504241	 -0.042481
H	 -0.574246	 -0.034948	 0.841537
H	 -0.637272	 -0.294309	 -0.885027
C	 -3.758029	 -0.289423	 -0.010781
H	 -2.394220	 1.093569	 -0.952170
H	 -2.440793	 1.210787	 0.785871
H	 -3.816659	 -0.981993	 -0.845726
H	 -4.617837	 0.370165	 -0.069296
H	 -3.847478	 -0.867502	 0.904682

	symmetry c1
}
set optking {
	frozen_dihedral = ("
		15 12 14 18
	")
}

ee = optimize('scf')
oeprop('DIPOLE', 'QUADRUPOLE', 'MULLIKEN_CHARGES')
f=open( 'psi4out.xyz', 'w' )
f.write( "22  " )
f.write( str(ee) + "\n" )
f.write( MOL.save_string_xyz() )
f.close()
--------------------------------------------------------------------------

    Molecular point group: c1
  Charge       = 0
  Multiplicity = 1
  Basis Set: 6-31G*
  Basis Set:
  @DF-RHF Final Energy:  -290.37099178550250
    Total Energy =                       -290.3709917855025537
    Molecular point group: c1
  Basis Set: 6-31G*
  Basis Set:
  Basis Set: 6-31G*
  Basis Set:
  @DF-RHF Final Energy:  -290.37095367654956
    Total Energy =                       -290.3709536765497887
  Basis Set: 6-31G*
  Basis Set:
  Basis Set: 6-31G*
  Basis Set:
  @DF-RHF Final Energy:  -290.37386422322163
    Total Energy =                       -290.3738642232214602
  Basis Set: 6-31G*
  Basis Set:
  Basis Set: 6-31G*
  Basis Set:
  @DF-RHF Final Energy:  -290.37411643459939
    Total Energy =                       -290.3741164345991592
  Basis Set: 6-31G*
  Basis Set:
  Basis Set: 6-31G*
  Basis Set:
  @DF-RHF Final Energy:  -290.37412227802707
    Total Energy =                       -290.3741222780270732
  Basis Set: 6-31G*
  Basis Set:
  Basis Set: 6-31G*
  Basis Set:
  @DF-RHF Final Energy:  -290.37413836341341
    Total Energy =                       -290.3741383634130671
  Basis Set: 6-31G*
  Basis Set:
  Charge       = 0
  Multiplicity = 1
  Basis Set: 6-31G*
  Basis Set:

    Orbital Energies (a.u.)
    -----------------------

    Doubly Occupied:

       1A    -15.533325     2A    -11.238822     3A    -11.238055
       4A    -11.213898     5A    -11.213767     6A    -11.209886
       7A    -11.204492     8A     -1.204936     9A     -1.055522
      10A     -1.020115    11A     -0.926604    12A     -0.880630
      13A     -0.804624    14A     -0.785556    15A     -0.668017
      16A     -0.627188    17A     -0.623530    18A     -0.595826
      19A     -0.574734    20A     -0.567000    21A     -0.534322
      22A     -0.528635    23A     -0.503176    24A     -0.486269
      25A     -0.482951    26A     -0.471472    27A     -0.461367
      28A     -0.450250    29A     -0.356689

  @DF-RHF Final Energy:  -290.37414390485418

   => Energetics <=

    Nuclear Repulsion Energy =            318.2271258508022242
    One-Electron Energy =               -1022.2792216258776534
    Two-Electron Energy =                 413.6779518702210225
    DFT Exchange-Correlation Energy =       0.0000000000000000
    Empirical Dispersion Energy =           0.0000000000000000
    PCM Polarization Energy =               0.0000000000000000
    EFP Energy =                            0.0000000000000000
    Total Energy =                       -290.3741439048544635
    Molecular point group: c1
  Basis Set: 6-31G*
  Basis Set:

  -Total Gradient:
     Atom            X                  Y                   Z
    ------   -----------------  -----------------  -----------------
       1        0.000000687316    -0.000000823094     0.000000247508
       2        0.000001042614     0.000000346720     0.000000285806
       3       -0.000005015877     0.000006937844    -0.000000887395
       4       -0.000000863619     0.000000327722    -0.000001493506
       5       -0.000000388585    -0.000000384307     0.000000242434
       6        0.000007610064     0.000007351437     0.000005168677
       7       -0.000000431175    -0.000001128154     0.000000516711
       8        0.000000446813     0.000000055434    -0.000000147863
       9       -0.000005460180     0.000019005517    -0.000023344576
      10        0.000005310312    -0.000002383272     0.000001765081
      11       -0.000001247265    -0.000000637291     0.000001171454
      12        0.001179587822     0.001399938091    -0.002238934255
      13       -0.000008197504    -0.000004172421    -0.000002543820
      14        0.001331288967     0.001761980381     0.001873908443
      15       -0.001202999511    -0.001463203089     0.001620697177
      16       -0.000002272055     0.000004395983    -0.000006241979
      17        0.000005235718     0.000005274856    -0.000000291458
      18       -0.001300191600    -0.001727217448    -0.001238992155
      19        0.000007298232     0.000001792619     0.000003310936
      20       -0.000004283300     0.000000822165     0.000004353693
      21       -0.000003692490    -0.000004300837     0.000000886878
      22       -0.000003464695    -0.000003978857     0.000000322208

  **** Optimization is complete! (in 7 steps) ****
    Final optimized geometry and variables:
    Molecular point group: c1

    Geometry (in Angstrom), charge = 0, multiplicity = 1:

    H            1.440808280148    -4.099147185551     0.802696010930
    C            1.773028541493    -3.087167275763     0.594587525382
    C            0.584191800022    -2.146520178055     0.402650585340
    H            2.396281421451    -2.767637301947     1.425012480110
    H            2.397963356752    -3.121179595496    -0.293407011346
    C            1.008400447993    -0.711432875301     0.107541032635
    H           -0.040811569395    -2.146778592987     1.290223620017
    H           -0.036272369893    -2.512860851306    -0.413630041115
    N           -0.144136522958     0.156208897289    -0.036171326878
    H            1.608628218578    -0.338096289301     0.932957441577
    H            1.655015320259    -0.695429865509    -0.776435058219
    C            0.202415022802     1.536299997262    -0.329727351702
    H           -0.737653917824    -0.206570079521    -0.756577710948
    C           -1.016996002705     2.493933091092    -0.365582936340
    H            0.873355654735     1.853586787993     0.461365507992
    H            0.763160998622     1.619900113558    -1.264043061745
    C           -2.395598060415     1.827740547716    -0.335046582789
    H           -0.959774687682     3.097405083570    -1.267006256688
    H           -0.953914551611     3.182519700039     0.470840034710
    H           -2.559361493214     1.194139618085    -1.202705935587
    H           -3.170924311451     2.587805135606    -0.343785980807
    H           -2.524635290934     1.219562933284     0.550939797223

  Mulliken Charges: (a.u.)
   Center  Symbol    Alpha    Beta     Spin     Total
       1     H     0.41771  0.41771  0.00000  0.16457
       2     C     3.24326  3.24326  0.00000 -0.48652
       3     C     3.15587  3.15587  0.00000 -0.31173
       4     H     0.42067  0.42067  0.00000  0.15867
       5     H     0.42161  0.42161  0.00000  0.15679
       6     C     3.04557  3.04557  0.00000 -0.09114
       7     H     0.41317  0.41317  0.00000  0.17367
       8     H     0.42665  0.42665  0.00000  0.14669
       9     N     3.85970  3.85970  0.00000 -0.71939
      10     H     0.42183  0.42183  0.00000  0.15635
      11     H     0.43651  0.43651  0.00000  0.12698
      12     C     3.05313  3.05313  0.00000 -0.10626
      13     H     0.33305  0.33305  0.00000  0.33389
      14     C     3.16094  3.16094  0.00000 -0.32189
      15     H     0.41926  0.41926  0.00000  0.16148
      16     H     0.43312  0.43312  0.00000  0.13376
      17     C     3.24110  3.24110  0.00000 -0.48219
      18     H     0.42195  0.42195  0.00000  0.15611
      19     H     0.41820  0.41820  0.00000  0.16359
      20     H     0.42854  0.42854  0.00000  0.14292
      21     H     0.42093  0.42093  0.00000  0.15814
      22     H     0.40724  0.40724  0.00000  0.18551

   Total alpha = 29.00000, Total beta = 29.00000, Total charge =  0.00000
