  ==> Input File <==

--------------------------------------------------------------------------
set {
	reference rhf
	basis 6-31G*
}

set_num_threads( 1 )
memory 2 gb

molecule MOL {
0 1

H	 -4.236494	 0.538104	 0.039757
O	 -3.517110	 -0.026191	 -0.205115
C	 -2.306886	 0.532354	 0.237577
C	 -1.177863	 -0.397191	 -0.171080
H	 -2.156308	 1.517575	 -0.201710
H	 -2.315015	 0.655684	 1.319734
C	 0.198102	 0.111031	 0.262842
H	 -1.208843	 -0.518759	 -1.250427
H	 -1.368741	 -1.376554	 0.258909
C	 1.331804	 -0.827780	 -0.158768
H	 0.361943	 1.100838	 -0.156218
H	 0.217265	 0.229072	 1.345532
C	 2.723619	 -0.410569	 0.329459
H	 1.342964	 -0.912588	 -1.244120
H	 1.116806	 -1.824343	 0.220779
C	 3.088040	 -0.921779	 1.724520
H	 2.775428	 0.675432	 0.332079
H	 3.471474	 -0.747444	 -0.385658
H	 2.350167	 -0.610451	 2.459134
H	 3.151123	 -2.004424	 1.757356
H	 4.050924	 -0.530767	 2.038712

	symmetry c1
}
set optking {
	frozen_dihedral = ("
		2 3 4 8,
		8 4 7 10,
		4 7 10 14,
		1 2 3 5
	")
}

ee = energy('scf')
oeprop('DIPOLE', 'QUADRUPOLE', 'MULLIKEN_CHARGES')
f=open( 'psi4out.xyz', 'w' )
f.write( "21  " )
f.write( str(ee) + "\n" )
f.write( MOL.save_string_xyz() )
f.close()
--------------------------------------------------------------------------

    Molecular point group: c1

    Geometry (in Angstrom), charge = 0, multiplicity = 1:

       Center              X                  Y                   Z               Mass
    ------------   -----------------  -----------------  -----------------  -----------------
           H         -4.213357998151     0.804738357305    -0.254047876446     1.007825032070
           O         -3.493973998151     0.240443357305    -0.498919876446    15.994914619560
           C         -2.283749998151     0.798988357305    -0.056227876446    12.000000000000
           C         -1.154726998151    -0.130556642695    -0.464884876446    12.000000000000
           H         -2.133171998151     1.784209357305    -0.495514876446     1.007825032070
           H         -2.291878998151     0.922318357305     1.025929123554     1.007825032070
           C          0.221238001849     0.377665357305    -0.030962876446    12.000000000000
           H         -1.185706998151    -0.252124642695    -1.544231876446     1.007825032070
           H         -1.345604998151    -1.109919642695    -0.034895876446     1.007825032070
           C          1.354940001849    -0.561145642695    -0.452572876446    12.000000000000
           H          0.385079001849     1.367472357305    -0.450022876446     1.007825032070
           H          0.240401001849     0.495706357305     1.051727123554     1.007825032070
           C          2.746755001849    -0.143934642695     0.035654123554    12.000000000000
           H          1.366100001849    -0.645953642695    -1.537924876446     1.007825032070
           H          1.139942001849    -1.557708642695    -0.073025876446     1.007825032070
           C          3.111176001849    -0.655144642695     1.430715123554    12.000000000000
           H          2.798564001849     0.942066357305     0.038274123554     1.007825032070
           H          3.494610001849    -0.480809642695    -0.679462876446     1.007825032070
           H          2.373303001849    -0.343816642695     2.165329123554     1.007825032070
           H          3.174259001849    -1.737789642695     1.463551123554     1.007825032070
           H          4.074060001849    -0.264132642695     1.744907123554     1.007825032070

  Charge       = 0
  Multiplicity = 1
  Basis Set: 6-31G*
  Basis Set:

    Orbital Energies (a.u.)
    -----------------------

    Doubly Occupied:

       1A    -20.551921     2A    -11.267173     3A    -11.216425
       4A    -11.214431     5A    -11.212916     6A    -11.210708
       7A    -11.208544     8A     -1.358745     9A     -1.086028
      10A     -1.033566    11A     -0.955323    12A     -0.872994
      13A     -0.805480    14A     -0.783674    15A     -0.692596
      16A     -0.661487    17A     -0.618473    18A     -0.610975
      19A     -0.586442    20A     -0.565291    21A     -0.539636
      22A     -0.521429    23A     -0.508341    24A     -0.487698
      25A     -0.479271    26A     -0.461074    27A     -0.454278
      28A     -0.443372    29A     -0.434075

  @DF-RHF Final Energy:  -310.21113727529922

   => Energetics <=

    Nuclear Repulsion Energy =            311.4226655401551511
    One-Electron Energy =               -1037.5828653875510099
    Two-Electron Energy =                 415.9490625720957269
    DFT Exchange-Correlation Energy =       0.0000000000000000
    Empirical Dispersion Energy =           0.0000000000000000
    PCM Polarization Energy =               0.0000000000000000
    EFP Energy =                            0.0000000000000000
    Total Energy =                       -310.2111372753001888

  Mulliken Charges: (a.u.)
   Center  Symbol    Alpha    Beta     Spin     Total
       1     H     0.28116  0.28116  0.00000  0.43767
       2     O     4.37175  4.37175  0.00000 -0.74351
       3     C     2.98978  2.98978  0.00000  0.02045
       4     C     3.15944  3.15944  0.00000 -0.31888
       5     H     0.43291  0.43291  0.00000  0.13418
       6     H     0.43287  0.43287  0.00000  0.13426
       7     C     3.16136  3.16136  0.00000 -0.32272
       8     H     0.41472  0.41472  0.00000  0.17056
       9     H     0.41456  0.41456  0.00000  0.17088
      10     C     3.15290  3.15290  0.00000 -0.30581
      11     H     0.42296  0.42296  0.00000  0.15408
      12     H     0.42326  0.42326  0.00000  0.15347
      13     C     3.15394  3.15394  0.00000 -0.30789
      14     H     0.42035  0.42035  0.00000  0.15930
      15     H     0.42213  0.42213  0.00000  0.15574
      16     C     3.24009  3.24009  0.00000 -0.48018
      17     H     0.42308  0.42308  0.00000  0.15383
      18     H     0.42017  0.42017  0.00000  0.15966
      19     H     0.42212  0.42212  0.00000  0.15576
      20     H     0.42072  0.42072  0.00000  0.15855
      21     H     0.41971  0.41971  0.00000  0.16058

   Total alpha = 29.00000, Total beta = 29.00000, Total charge = -0.00000
