                              Psi4 1.0.54 Driver

  ==> Input File <==

--------------------------------------------------------------------------
set {
	reference rhf
	basis cc-pvtz
}

set_num_threads( 4 )
memory 2 gb

molecule MOL {
0 1

H	 -3.162190	 0.493205	 -0.000107
C	 -2.363908	 -0.234727	 0.000005
O	 -1.158738	 0.454634	 -0.000087
H	 -2.464314	 -0.863616	 -0.882153
H	 -2.464327	 -0.863359	 0.882345
C	 -0.979213	 1.302043	 -1.090952
C	 0.365655	 1.990280	 -0.972415
H	 -1.778603	 2.042638	 -1.124601
H	 -1.029222	 0.732325	 -2.019156
C	 0.638507	 2.939313	 -2.133982
H	 0.395189	 2.531345	 -0.033105
H	 1.138603	 1.231453	 -0.920603
H	 -0.110809	 3.721956	 -2.189500
H	 1.604390	 3.416791	 -2.023964
H	 0.637871	 2.413338	 -3.082886

	symmetry c1
}
set optking {
	frozen_dihedral = ("
		6 3 2 4
	")
}

ee,wfn = optimize('scf', return_wfn=True)
oeprop( wfn, 'DIPOLE', 'QUADRUPOLE', 'MULLIKEN_CHARGES')
f=open( 'psi4out.xyz', 'w' )
f.write( "15  " )
f.write( str(ee) + "\n" )
f.write( MOL.save_string_xyz() )
f.close()
--------------------------------------------------------------------------

    Molecular point group: c1
  Charge       = 0
  Multiplicity = 1
  Basis Set: CC-PVTZ
  Basis Set:
  @DF-RHF Final Energy:  -232.22718363586472
    Total Energy =                       -232.2271836358649466
    Molecular point group: c1
  Basis Set: CC-PVTZ
  Basis Set:
  Basis Set: CC-PVTZ
  Basis Set:
  @DF-RHF Final Energy:  -232.22800109852540
    Total Energy =                       -232.2280010985253966
  Basis Set: CC-PVTZ
  Basis Set:
  Basis Set: CC-PVTZ
  Basis Set:
  @DF-RHF Final Energy:  -232.22822136757762
    Total Energy =                       -232.2282213675773050
  Basis Set: CC-PVTZ
  Basis Set:
  Charge       = 0
  Multiplicity = 1
  Basis Set: CC-PVTZ
  Basis Set:

    Orbital Energies (a.u.)
    -----------------------

    Doubly Occupied:

       1A    -20.547594     2A    -11.264418     3A    -11.261791
       4A    -11.212791     5A    -11.210739     6A     -1.382005
       7A     -1.058504     8A     -0.956172     9A     -0.877338
      10A     -0.809589    11A     -0.677280    12A     -0.656011
      13A     -0.632378    14A     -0.608529    15A     -0.565265
      16A     -0.540863    17A     -0.503771    18A     -0.490408
      19A     -0.478379    20A     -0.462970    21A     -0.416833

  @DF-RHF Final Energy:  -232.22822233809384

   => Energetics <=

    Nuclear Repulsion Energy =            190.0195724119398335
    One-Electron Energy =                -691.2683341542626749
    Two-Electron Energy =                 269.0205394042291118
    DFT Exchange-Correlation Energy =       0.0000000000000000
    Empirical Dispersion Energy =           0.0000000000000000
    PCM Polarization Energy =               0.0000000000000000
    EFP Energy =                            0.0000000000000000
    Total Energy =                       -232.2282223380937012
    Molecular point group: c1
  Basis Set: CC-PVTZ
  Basis Set:

  -Total Gradient:
     Atom            X                  Y                   Z
    ------   -----------------  -----------------  -----------------
       1        0.000022626818     0.000015335793     0.000001300605
       2        0.000081131303    -0.000018907109     0.000008333488
       3       -0.000079630788     0.000109332528     0.000076859302
       4       -0.000003210313     0.000070671497    -0.000063651105
       5        0.000042654080     0.000010676464     0.000006877254
       6       -0.000016771312    -0.000099151915    -0.000194865840
       7        0.000013032683    -0.000038628912     0.000087130847
       8       -0.000004020692    -0.000018084426     0.000051056832
       9       -0.000007242165    -0.000002041823    -0.000014290131
      10       -0.000065987938    -0.000026584394     0.000004430663
      11        0.000023085151     0.000019482609     0.000010601241
      12        0.000007406109    -0.000004942294     0.000004147963
      13       -0.000002976016     0.000009010018    -0.000006794660
      14       -0.000010934065    -0.000022225919     0.000027786580
      15        0.000000837145    -0.000003942120     0.000001076961

  **** Optimization is complete! (in 4 steps) ****
    Final optimized geometry and variables:
    Molecular point group: c1

    Geometry (in Angstrom), charge = 0, multiplicity = 1:

    H           -2.475300703512    -0.857085467428     0.865713466694
    C           -1.614607200564    -1.522536680845     0.846463146133
    O           -0.421924440635    -0.812433304704     0.843088282144
    H           -1.698815918118    -2.165677520914    -0.027187470996
    H           -1.631943596308    -2.138274521590     1.734076610844
    C           -0.250735348502     0.022213239745    -0.258690990112
    C            1.080515046163     0.736648003773    -0.141196421767
    H           -1.063312690825     0.747527510756    -0.307928071924
    H           -0.284309056417    -0.561476693275    -1.178987440135
    C            1.343374925305     1.673865004493    -1.314613478125
    H            1.094003878055     1.291693869704     0.790381016273
    H            1.867014000531    -0.006942178453    -0.073553757313
    H            0.580029125557     2.441569203123    -1.386256606214
    H            2.299550091768     2.170790492291    -1.205308720002
    H            1.358803454911     1.134310173829    -2.255795171680

  Mulliken Charges: (a.u.)
   Center  Symbol    Alpha    Beta     Spin     Total
       1     H     0.47205  0.47205  0.00000  0.05590
       2     C     3.03351  3.03351  0.00000 -0.06701
       3     O     4.17142  4.17142  0.00000 -0.34283
       4     H     0.47230  0.47230  0.00000  0.05540
       5     H     0.44686  0.44686  0.00000  0.10628
       6     C     2.95608  2.95608  0.00000  0.08784
       7     C     3.08012  3.08012  0.00000 -0.16024
       8     H     0.47592  0.47592  0.00000  0.04816
       9     H     0.47576  0.47576  0.00000  0.04847
      10     C     3.15583  3.15583  0.00000 -0.31166
      11     H     0.45109  0.45109  0.00000  0.09781
      12     H     0.45111  0.45111  0.00000  0.09779
      13     H     0.45584  0.45584  0.00000  0.08832
      14     H     0.44627  0.44627  0.00000  0.10745
      15     H     0.45584  0.45584  0.00000  0.08832

   Total alpha = 21.00000, Total beta = 21.00000, Total charge = -0.00000

*** Psi4 exiting successfully. Buy a developer a beer!
