  ==> Input File <==

--------------------------------------------------------------------------
set {
	reference rhf
	basis 6-31G*
}

set_num_threads( 4 )
memory 2 gb

molecule MOL {
0 1

H	 -3.135461	 -1.215070	 0.001379
O	 -2.310168	 -0.871793	 -0.309793
C	 -2.026376	 0.340750	 0.341611
C	 -0.673256	 0.843270	 -0.132153
H	 -2.792215	 1.080697	 0.115987
H	 -2.013526	 0.200402	 1.421792
C	 0.486613	 -0.083066	 0.235839
H	 -0.715586	 0.970948	 -1.210718
H	 -0.508072	 1.829858	 0.297090
C	 1.385394	 0.493553	 1.331064
H	 1.076884	 -0.283884	 -0.652286
H	 0.088581	 -1.041695	 0.566657
C	 2.541110	 -0.434726	 1.702938
H	 1.784277	 1.450672	 1.001622
H	 0.789927	 0.700692	 2.218169
H	 3.175341	 -0.632991	 0.843675
H	 3.162441	 0.000751	 2.479631
H	 2.174689	 -1.389751	 2.069237

	symmetry c1
}
set optking {
	frozen_dihedral = ("
		10 7 4 8
	")
}

ee = optimize('scf')
oeprop('DIPOLE', 'QUADRUPOLE', 'MULLIKEN_CHARGES')
f=open( 'psi4out.xyz', 'w' )
f.write( "18  " )
f.write( str(ee) + "\n" )
f.write( MOL.save_string_xyz() )
f.close()
--------------------------------------------------------------------------

    Molecular point group: c1
  Charge       = 0
  Multiplicity = 1
  Basis Set: 6-31G*
  Basis Set:
  @DF-RHF Final Energy:  -271.17499645962994
    Total Energy =                       -271.1749964596297104
    Molecular point group: c1
  Basis Set: 6-31G*
  Basis Set:
  Basis Set: 6-31G*
  Basis Set:
  @DF-RHF Final Energy:  -271.17524496239747
    Total Energy =                       -271.1752449623974144
  Basis Set: 6-31G*
  Basis Set:
  Basis Set: 6-31G*
  Basis Set:
  @DF-RHF Final Energy:  -271.17531096149742
    Total Energy =                       -271.1753109614976438
  Basis Set: 6-31G*
  Basis Set:
  Basis Set: 6-31G*
  Basis Set:
  @DF-RHF Final Energy:  -271.17530525763527
    Total Energy =                       -271.1753052576352729
  Basis Set: 6-31G*
  Basis Set:
  Basis Set: 6-31G*
  Basis Set:
  @DF-RHF Final Energy:  -271.17531640706784
    Total Energy =                       -271.1753164070678395
  Basis Set: 6-31G*
  Basis Set:
  Charge       = 0
  Multiplicity = 1
  Basis Set: 6-31G*
  Basis Set:

    Orbital Energies (a.u.)
    -----------------------

    Doubly Occupied:

       1A    -20.553101     2A    -11.268295     3A    -11.212407
       4A    -11.211698     5A    -11.206650     6A    -11.205465
       7A     -1.359912     8A     -1.073790     9A     -1.008077
      10A     -0.913025    11A     -0.823108    12A     -0.781310
      13A     -0.702103    14A     -0.650889    15A     -0.617777
      16A     -0.579705    17A     -0.569209    18A     -0.557844
      19A     -0.525319    20A     -0.505944    21A     -0.484105
      22A     -0.468719    23A     -0.454139    24A     -0.449754
      25A     -0.428318

  @DF-RHF Final Energy:  -271.17531642387763

   => Energetics <=

    Nuclear Repulsion Energy =            250.0346636739363362
    One-Electron Energy =                -863.1986362146348029
    Two-Electron Energy =                 341.9886561168206640
    DFT Exchange-Correlation Energy =       0.0000000000000000
    Empirical Dispersion Energy =           0.0000000000000000
    PCM Polarization Energy =               0.0000000000000000
    EFP Energy =                            0.0000000000000000
    Total Energy =                       -271.1753164238778595
    Molecular point group: c1
  Basis Set: 6-31G*
  Basis Set:

  -Total Gradient:
     Atom            X                  Y                   Z
    ------   -----------------  -----------------  -----------------
       1       -0.000000436995    -0.000002463479    -0.000000170914
       2        0.000016734372    -0.000012033682     0.000012715617
       3       -0.000014898337     0.000022374340    -0.000035036285
       4       -0.001286071364    -0.001898924807    -0.000602325095
       5       -0.000005768790     0.000005863982     0.000006815791
       6        0.000007773579    -0.000000524630    -0.000007146360
       7       -0.000916785604    -0.000534948526     0.001554212938
       8        0.001303513219     0.001742504329     0.000162048085
       9       -0.000002241081     0.000001622460     0.000000815765
      10        0.000890950944     0.000689693994    -0.001098720923
      11        0.000003257527     0.000000344625     0.000003114910
      12        0.000002430206    -0.000011051418     0.000007093904
      13        0.000003894748     0.000002306265    -0.000000530466
      14        0.000002994146    -0.000004561771    -0.000000469151
      15       -0.000004575608    -0.000000376810    -0.000004660156
      16       -0.000003011338    -0.000002876579    -0.000000774867
      17        0.000003037782     0.000000311047    -0.000001283109
      18       -0.000000797406     0.000002740659     0.000004300318

  **** Optimization is complete! (in 6 steps) ****
    Final optimized geometry and variables:
    Molecular point group: c1

    Geometry (in Angstrom), charge = 0, multiplicity = 1:

    H           -2.985405729062    -1.239429442832    -0.506642059455
    O           -2.173212468459    -0.883958774426    -0.838065537832
    C           -1.877840330505     0.319729592200    -0.175943087599
    C           -0.530102543273     0.822049773586    -0.663325668490
    H           -2.645238068151     1.064085051676    -0.380618130962
    H           -1.849189506013     0.165325340907     0.902331291391
    C            0.649221186502    -0.099529009781    -0.289958492237
    H           -0.582907268081     0.959193926613    -1.738462739003
    H           -0.372117869585     1.813202404675    -0.242843442300
    C            1.546855562172     0.475549431027     0.808609616200
    H            1.258361322440    -0.285789916151    -1.170330777358
    H            0.268769091266    -1.069297213169     0.015212457417
    C            2.692553586777    -0.459365953869     1.192718150595
    H            1.953482435768     1.428387169993     0.476170847188
    H            0.948082878162     0.692761520772     1.691867221306
    H            3.327548389168    -0.671770204327     0.337131182420
    H            3.316022790233    -0.022648530307     1.967006560447
    H            2.315929845798    -1.407543209131     1.565934375111

  Mulliken Charges: (a.u.)
   Center  Symbol    Alpha    Beta     Spin     Total
       1     H     0.28080  0.28080  0.00000  0.43840
       2     O     4.36899  4.36899  0.00000 -0.73798
       3     C     2.99933  2.99933  0.00000  0.00134
       4     C     3.16242  3.16242  0.00000 -0.32485
       5     H     0.42947  0.42947  0.00000  0.14106
       6     H     0.43299  0.43299  0.00000  0.13402
       7     C     3.15540  3.15540  0.00000 -0.31081
       8     H     0.41187  0.41187  0.00000  0.17625
       9     H     0.42201  0.42201  0.00000  0.15599
      10     C     3.15381  3.15381  0.00000 -0.30762
      11     H     0.42024  0.42024  0.00000  0.15953
      12     H     0.41018  0.41018  0.00000  0.17964
      13     C     3.23938  3.23938  0.00000 -0.47876
      14     H     0.42371  0.42371  0.00000  0.15257
      15     H     0.42599  0.42599  0.00000  0.14802
      16     H     0.42145  0.42145  0.00000  0.15709
      17     H     0.42041  0.42041  0.00000  0.15919
      18     H     0.42155  0.42155  0.00000  0.15691

   Total alpha = 25.00000, Total beta = 25.00000, Total charge = -0.00000
