                              Psi4 1.0.54 Driver

  ==> Input File <==

--------------------------------------------------------------------------
set {
	reference rhf
	basis cc-pvtz
}

set_num_threads( 4 )
memory 2 gb

molecule MOL {
0 1

O	 -2.081319	 -0.951530	 -0.502732
N	 -1.613558	 0.006676	 0.014756
C	 -0.329345	 -0.171618	 0.743966
O	 -2.068523	 1.100482	 -0.024385
C	 0.835904	 0.041968	 -0.213982
H	 -0.346048	 -1.174374	 1.137184
H	 -0.333613	 0.555559	 1.538590
C	 2.177039	 -0.130175	 0.494460
H	 0.754456	 -0.665923	 -1.030569
H	 0.765464	 1.037260	 -0.637266
C	 2.254345	 0.662540	 1.794501
H	 2.978237	 0.183303	 -0.168300
H	 2.342693	 -1.183065	 0.702758
H	 2.125585	 1.723804	 1.613287
H	 1.483840	 0.348795	 2.489916
H	 3.213895	 0.522269	 2.276943

	symmetry c1
}
set optking {
	frozen_dihedral = ("
		11 8 5 9
	")
}

ee,wfn = optimize('scf', return_wfn=True)
oeprop( wfn, 'DIPOLE', 'QUADRUPOLE', 'MULLIKEN_CHARGES')
f=open( 'psi4out.xyz', 'w' )
f.write( "16  " )
f.write( str(ee) + "\n" )
f.write( MOL.save_string_xyz() )
f.close()
--------------------------------------------------------------------------

    Molecular point group: c1
  Charge       = 0
  Multiplicity = 1
  Basis Set: CC-PVTZ
  Basis Set:
  @DF-RHF Final Energy:  -360.90536669019161
    Total Energy =                       -360.9053666901916131
    Molecular point group: c1
  Basis Set: CC-PVTZ
  Basis Set:
  Basis Set: CC-PVTZ
  Basis Set:
  @DF-RHF Final Energy:  -359.77578865443394
    Total Energy =                       -359.7757886544337680
  Basis Set: CC-PVTZ
  Basis Set:
  Basis Set: CC-PVTZ
  Basis Set:
  @DF-RHF Final Energy:  -359.97224030771679
    Total Energy =                       -359.9722403077170156
  Basis Set: CC-PVTZ
  Basis Set:
  Basis Set: CC-PVTZ
  Basis Set:
  @DF-RHF Final Energy:  -360.39014278750369
    Total Energy =                       -360.3901427875039190
  Basis Set: CC-PVTZ
  Basis Set:
  @DF-RHF Final Energy:  -360.64495906709902
    Total Energy =                       -360.6449590670988528
  @DF-RHF Final Energy:  -360.63415404307341
    Total Energy =                       -360.6341540430737496
  @DF-RHF Final Energy:  -360.80158265386365
    Total Energy =                       -360.8015826538638748
  @DF-RHF Final Energy:  -360.05234004281385
    Total Energy =                       -360.0523400428139098
  @DF-RHF Final Energy:  -360.46058173308211
    Total Energy =                       -360.4605817330819946
  @DF-RHF Final Energy:  -360.67527468624462
    Total Energy =                       -360.6752746862449612
  @DF-RHF Final Energy:  -360.82925921944661
    Total Energy =                       -360.8292592194465556
  @DF-RHF Final Energy:  -360.88608546540110
    Total Energy =                       -360.8860854654005834
  @DF-RHF Final Energy:  -359.87182461599582
    Total Energy =                       -359.8718246159954788
  @DF-RHF Final Energy:  -360.27423166295705
    Total Energy =                       -360.2742316629571064
  @DF-RHF Final Energy:  -360.60077491865218
    Total Energy =                       -360.6007749186521210
  @DF-RHF Final Energy:  -360.78829650023994
    Total Energy =                       -360.7882965002403921
  @DF-RHF Final Energy:  -360.87722773174050
    Total Energy =                       -360.8772277317407315
  @DF-RHF Final Energy:  -360.89876171208971
    Total Energy =                       -360.8987617120897085
  @DF-RHF Final Energy:  -360.89711524131519
    Total Energy =                       -360.8971152413152481
  @DF-RHF Final Energy:  -360.90634759349246
    Total Energy =                       -360.9063475934923417
  @DF-RHF Final Energy:  -360.90090208676213
    Total Energy =                       -360.9009020867621302
  @DF-RHF Final Energy:  -360.90610139421489
    Total Energy =                       -360.9061013942151703
  @DF-RHF Final Energy:  -360.90696474393087
    Total Energy =                       -360.9069647439304731
  @DF-RHF Final Energy:  -360.90702032640263
    Total Energy =                       -360.9070203264027441
  @DF-RHF Final Energy:  -360.90705511992286
    Total Energy =                       -360.9070551199228021
  Basis Set: CC-PVTZ
  Basis Set:
  @DF-RHF Final Energy:  -360.90705886530225
    Total Energy =                       -360.9070588653023037
  Basis Set: CC-PVTZ
  Basis Set:
  Basis Set: CC-PVTZ
  Basis Set:
  @DF-RHF Final Energy:  -360.90707634523039
    Total Energy =                       -360.9070763452303368
  Basis Set: CC-PVTZ
  Basis Set:
  Basis Set: CC-PVTZ
  Basis Set:
  @DF-RHF Final Energy:  -360.90707991424313
    Total Energy =                       -360.9070799142427859
  Basis Set: CC-PVTZ
  Basis Set:
  Charge       = 0
  Multiplicity = 1
  Basis Set: CC-PVTZ
  Basis Set:

    Orbital Energies (a.u.)
    -----------------------

    Doubly Occupied:

       1A    -20.589582     2A    -20.589213     3A    -15.835891
       4A    -11.295467     5A    -11.251125     6A    -11.242057
       7A    -11.229127     8A     -1.634958     9A     -1.419248
      10A     -1.136523    11A     -1.057750    12A     -0.952172
      13A     -0.854965    14A     -0.817756    15A     -0.761332
      16A     -0.737637    17A     -0.723889    18A     -0.670765
      19A     -0.625989    20A     -0.605998    21A     -0.574058
      22A     -0.552272    23A     -0.512079    24A     -0.499646
      25A     -0.495184    26A     -0.485517    27A     -0.471611
      28A     -0.451884

  @DF-RHF Final Energy:  -360.90708080755383

   => Energetics <=

    Nuclear Repulsion Energy =            316.8646511668404173
    One-Electron Energy =               -1119.3960791503018299
    Two-Electron Energy =                 441.6243471759079284
    DFT Exchange-Correlation Energy =       0.0000000000000000
    Empirical Dispersion Energy =           0.0000000000000000
    PCM Polarization Energy =               0.0000000000000000
    EFP Energy =                            0.0000000000000000
    Total Energy =                       -360.9070808075534842
    Molecular point group: c1
  Basis Set: CC-PVTZ
  Basis Set:

  -Total Gradient:
     Atom            X                  Y                   Z
    ------   -----------------  -----------------  -----------------
       1       -0.000049647429     0.000060276092    -0.000120472352
       2        0.000102144749    -0.000099285634     0.000074929051
       3        0.000004301070     0.000076732672     0.000036464746
       4       -0.000021360496     0.000027507901     0.000003763289
       5        0.002223894601     0.001443706211    -0.001367817101
       6       -0.000016568513     0.000027595544    -0.000014100229
       7       -0.000022193299    -0.000020026248    -0.000027752989
       8        0.001652499717     0.001052445867    -0.001922558346
       9       -0.002296463456    -0.001544348453     0.001722147650
      10       -0.000025859889    -0.000020570943     0.000004147629
      11       -0.001522446040    -0.001055181517     0.001546346872
      12        0.000028054986     0.000005554868     0.000040210137
      13        0.000010965849     0.000012073545    -0.000001402338
      14       -0.000021570401     0.000009117363     0.000034755221
      15       -0.000011523027    -0.000036174467    -0.000002266585
      16       -0.000034228419     0.000060577199    -0.000006394657

  **** Optimization is complete! (in 29 steps) ****
    Final optimized geometry and variables:
    Molecular point group: c1

    Geometry (in Angstrom), charge = 0, multiplicity = 1:

    O            0.724756042452    -1.657296876238     1.486302135540
    N            0.512238926484    -1.377525962772     0.354345472458
    C           -0.442380225124    -0.267173717816     0.091741719716
    O            1.017810786303    -1.890471786217    -0.587213777886
    C            0.334087716033     1.042798128175    -0.015071249155
    H           -1.128178253083    -0.260241738668     0.922827675868
    H           -0.945731474343    -0.524770624923    -0.823528670207
    C           -0.579489002383     2.265530722262    -0.138690520329
    H            0.929545476832     1.138631614132     0.884880159041
    H            1.006293815168     0.982154512937    -0.862072567225
    C           -1.650200566312     2.172001535448    -1.223256394577
    H            0.048171000616     3.129626577447    -0.323253487132
    H           -1.062730099916     2.441060205973     0.817812751487
    H           -1.215606296217     1.950756891858    -2.192594307588
    H           -2.383855313061     1.405006422755    -1.004635451775
    H           -2.182983977817     3.111104246445    -1.308454467108

  Mulliken Charges: (a.u.)
   Center  Symbol    Alpha    Beta     Spin     Total
       1     O     4.17346  4.17346  0.00000 -0.34692
       2     N     3.27510  3.27510  0.00000  0.44980
       3     C     3.04348  3.04348  0.00000 -0.08696
       4     O     4.17462  4.17462  0.00000 -0.34924
       5     C     3.10925  3.10925  0.00000 -0.21849
       6     H     0.43356  0.43356  0.00000  0.13288
       7     H     0.43297  0.43297  0.00000  0.13407
       8     C     3.09676  3.09676  0.00000 -0.19353
       9     H     0.43332  0.43332  0.00000  0.13335
      10     H     0.43550  0.43550  0.00000  0.12900
      11     C     3.15741  3.15741  0.00000 -0.31482
      12     H     0.44243  0.44243  0.00000  0.11513
      13     H     0.44812  0.44812  0.00000  0.10376
      14     H     0.44906  0.44906  0.00000  0.10188
      15     H     0.45400  0.45400  0.00000  0.09200
      16     H     0.44095  0.44095  0.00000  0.11809

   Total alpha = 28.00000, Total beta = 28.00000, Total charge =  0.00000

*** Psi4 exiting successfully. Buy a developer a beer!
