                              Psi4 1.0.54 Driver

  ==> Input File <==

--------------------------------------------------------------------------
set {
	reference rhf
	basis cc-pvtz
}

set_num_threads( 4 )
memory 2 gb

molecule MOL {
0 1

H	 0.717313	 0.223020	 -4.232380
O	 1.618564	 -0.035045	 -4.286966
C	 2.284445	 0.270136	 -3.089995
C	 1.903552	 -0.643034	 -1.934259
H	 3.339436	 0.162974	 -3.303278
H	 2.115199	 1.309726	 -2.816024
C	 0.449857	 -0.513182	 -1.485083
H	 2.106620	 -1.669706	 -2.223856
H	 2.560120	 -0.415083	 -1.097984
C	 0.113298	 -1.420414	 -0.302504
H	 -0.205029	 -0.747131	 -2.317786
H	 0.248971	 0.520808	 -1.209773
C	 -1.311023	 -1.277304	 0.237018
H	 0.287260	 -2.455595	 -0.585992
H	 0.808946	 -1.207592	 0.504497
C	 -2.041121	 -0.006551	 -0.194127
H	 -1.888548	 -2.136293	 -0.093331
H	 -1.289731	 -1.328757	 1.323321
C	 -3.489218	 0.042606	 0.286507
H	 -2.022185	 0.066287	 -1.279394
H	 -1.518764	 0.869305	 0.178730
C	 -4.219984	 1.311773	 -0.139038
H	 -4.022855	 -0.824300	 -0.093339
H	 -3.510372	 -0.038577	 1.370031
H	 -4.244251	 1.405725	 -1.219696
H	 -5.244345	 1.313233	 0.215630
H	 -3.732090	 2.196311	 0.257073

	symmetry c1
}
set optking {
	frozen_dihedral = ("
		14 10 13 16
	")
}

ee,wfn = optimize('scf', return_wfn=True)
oeprop( wfn, 'DIPOLE', 'QUADRUPOLE', 'MULLIKEN_CHARGES')
f=open( 'psi4out.xyz', 'w' )
f.write( "27  " )
f.write( str(ee) + "\n" )
f.write( MOL.save_string_xyz() )
f.close()
--------------------------------------------------------------------------

    Molecular point group: c1
  Charge       = 0
  Multiplicity = 1
  Basis Set: CC-PVTZ
  Basis Set:
  @DF-RHF Final Energy:  -388.41911635470467
    Total Energy =                       -388.4191163547041015
    Molecular point group: c1
  Basis Set: CC-PVTZ
  Basis Set:
  Basis Set: CC-PVTZ
  Basis Set:
  @DF-RHF Final Energy:  -388.32876696257961
    Total Energy =                       -388.3287669625793797
  Basis Set: CC-PVTZ
  Basis Set:
  Basis Set: CC-PVTZ
  Basis Set:
  @DF-RHF Final Energy:  -388.40821641275153
    Total Energy =                       -388.4082164127510168
  Basis Set: CC-PVTZ
  Basis Set:
  Basis Set: CC-PVTZ
  Basis Set:
  @DF-RHF Final Energy:  -388.42060297523290
    Total Energy =                       -388.4206029752332370
  Basis Set: CC-PVTZ
  Basis Set:
  Basis Set: CC-PVTZ
  Basis Set:
  @DF-RHF Final Energy:  -388.42102350576425
    Total Energy =                       -388.4210235057641967
  Basis Set: CC-PVTZ
  Basis Set:
  Basis Set: CC-PVTZ
  Basis Set:
  @DF-RHF Final Energy:  -388.42105493612581
    Total Energy =                       -388.4210549361250742
  Basis Set: CC-PVTZ
  Basis Set:
  Charge       = 0
  Multiplicity = 1
  Basis Set: CC-PVTZ
  Basis Set:

    Orbital Energies (a.u.)
    -----------------------

    Doubly Occupied:

       1A    -20.545180     2A    -11.264768     3A    -11.216567
       4A    -11.215115     5A    -11.214108     6A    -11.213566
       7A    -11.212918     8A    -11.212516     9A    -11.207821
      10A     -1.363086    11A     -1.094605    12A     -1.062513
      13A     -1.010406    14A     -0.949205    15A     -0.890529
      16A     -0.820821    17A     -0.807285    18A     -0.769318
      19A     -0.696389    20A     -0.658111    21A     -0.635297
      22A     -0.613745    23A     -0.606542    24A     -0.586000
      25A     -0.574854    26A     -0.553830    27A     -0.544182
      28A     -0.528632    29A     -0.506756    30A     -0.497769
      31A     -0.489385    32A     -0.475383    33A     -0.467293
      34A     -0.455516    35A     -0.448569    36A     -0.443089
      37A     -0.425887

  @DF-RHF Final Energy:  -388.42105536977783

   => Energetics <=

    Nuclear Repulsion Energy =            461.9659333380673161
    One-Electron Energy =               -1442.2188834640094228
    Two-Electron Energy =                 591.8318947561643881
    DFT Exchange-Correlation Energy =       0.0000000000000000
    Empirical Dispersion Energy =           0.0000000000000000
    PCM Polarization Energy =               0.0000000000000000
    EFP Energy =                            0.0000000000000000
    Total Energy =                       -388.4210553697777186
    Molecular point group: c1
  Basis Set: CC-PVTZ
  Basis Set:

  -Total Gradient:
     Atom            X                  Y                   Z
    ------   -----------------  -----------------  -----------------
       1       -0.000008104138     0.000005605431     0.000012096235
       2        0.000011502449    -0.000012001482    -0.000006125819
       3       -0.000042215678    -0.000006697876    -0.000011877638
       4       -0.000003328188    -0.000020840824    -0.000025973252
       5       -0.000004249500    -0.000008787418     0.000003229192
       6        0.000006246945    -0.000001766597     0.000016580023
       7        0.000039413548     0.000072310055     0.000083604074
       8        0.000012612532    -0.000020195573     0.000001193368
       9       -0.000008527368     0.000011155173     0.000001301118
      10        0.001699965884    -0.002303812909     0.004482137826
      11       -0.000016160613     0.000019865531     0.000003389729
      12        0.000014962420     0.000022366485    -0.000004928973
      13        0.003168847791     0.002588156592     0.003001271343
      14       -0.002339017051     0.001276375110    -0.004709208861
      15        0.000009303416     0.000017872846    -0.000008988355
      16       -0.002553667155    -0.001606095674    -0.002803192771
      17       -0.000017970710    -0.000007205176     0.000002307795
      18        0.000015678894    -0.000000354881    -0.000017924223
      19       -0.000022551522    -0.000009006776    -0.000010229650
      20        0.000003665583    -0.000025262520    -0.000013962081
      21        0.000011345778     0.000017560409    -0.000015616240
      22        0.000024307054     0.000004488496     0.000015340557
      23       -0.000013219990    -0.000007435164    -0.000003579566
      24       -0.000005829561     0.000004809989    -0.000003181269
      25        0.000002579789    -0.000017948398     0.000005310660
      26        0.000004523165    -0.000007857542     0.000008224402
      27        0.000009886228     0.000014702693    -0.000001197624

  **** Optimization is complete! (in 7 steps) ****
    Final optimized geometry and variables:
    Molecular point group: c1

    Geometry (in Angstrom), charge = 0, multiplicity = 1:

    H            0.662325328950    -0.198030208716    -3.235165605913
    O            1.373303580920    -0.783326981377    -3.418392687204
    C            2.367300622455    -0.662177207434    -2.435313772900
    C            1.970367337872    -1.261462730124    -1.094520261012
    H            3.231600457733    -1.184048656353    -2.823406843610
    H            2.650737439254     0.380922373523    -2.309027509418
    C            0.805450473207    -0.549309687174    -0.410169479705
    H            1.724571759751    -2.308526205294    -1.243545005233
    H            2.841652772643    -1.231496255219    -0.444440631204
    C            0.473092601942    -1.166856738344     0.950769852516
    H           -0.071871415668    -0.600004025993    -1.048611441636
    H            1.050240509066     0.502710055001    -0.297542851897
    C           -0.731597155151    -0.563138816291     1.711081395695
    H            0.265289344739    -2.215466260330     0.765252127684
    H            1.360648213874    -1.121725523642     1.573117810740
    C           -1.177410667386     0.844549594629     1.315196568280
    H           -1.586291662024    -1.220558301697     1.578299493548
    H           -0.515487506671    -0.577708045053     2.774303343857
    C           -2.356410228117     1.337725515273     2.150432202928
    H           -1.457201673613     0.864067494329     0.267169142011
    H           -0.352570528176     1.544504246265     1.425264779095
    C           -2.821511633063     2.737447571709     1.762754842372
    H           -3.184883150481     0.642092246154     2.047581443710
    H           -2.081141687414     1.328602510228     3.201428110311
    H           -3.138610884052     2.771593292398     0.725632615446
    H           -3.657801400600     3.056943652672     2.373931021315
    H           -2.024935341824     3.463548329021     1.887404689882

  Mulliken Charges: (a.u.)
   Center  Symbol    Alpha    Beta     Spin     Total
       1     H     0.39224  0.39224  0.00000  0.21552
       2     O     4.20581  4.20581  0.00000 -0.41162
       3     C     2.97959  2.97959  0.00000  0.04083
       4     C     3.08837  3.08837  0.00000 -0.17673
       5     H     0.44867  0.44867  0.00000  0.10266
       6     H     0.47008  0.47008  0.00000  0.05983
       7     C     3.10920  3.10920  0.00000 -0.21841
       8     H     0.45065  0.45065  0.00000  0.09870
       9     H     0.45619  0.45619  0.00000  0.08762
      10     C     3.09508  3.09508  0.00000 -0.19015
      11     H     0.45600  0.45600  0.00000  0.08799
      12     H     0.44932  0.44932  0.00000  0.10137
      13     C     3.09628  3.09628  0.00000 -0.19257
      14     H     0.44946  0.44946  0.00000  0.10109
      15     H     0.45122  0.45122  0.00000  0.09757
      16     C     3.09026  3.09026  0.00000 -0.18051
      17     H     0.45286  0.45286  0.00000  0.09427
      18     H     0.44948  0.44948  0.00000  0.10104
      19     C     3.08478  3.08478  0.00000 -0.16955
      20     H     0.45298  0.45298  0.00000  0.09404
      21     H     0.45421  0.45421  0.00000  0.09157
      22     C     3.14993  3.14993  0.00000 -0.29987
      23     H     0.45440  0.45440  0.00000  0.09119
      24     H     0.45373  0.45373  0.00000  0.09253
      25     H     0.45578  0.45578  0.00000  0.08844
      26     H     0.44804  0.44804  0.00000  0.10391
      27     H     0.45539  0.45539  0.00000  0.08923

   Total alpha = 37.00000, Total beta = 37.00000, Total charge = -0.00000

*** Psi4 exiting successfully. Buy a developer a beer!
