                              Psi4 1.0.54 Driver

  ==> Input File <==

--------------------------------------------------------------------------
set {
	reference rhf
	basis cc-pvtz
}

set_num_threads( 4 )
memory 2 gb

molecule MOL {
0 1

O	 1.524092	 0.160917	 -0.992483
C	 0.860843	 0.273204	 -0.013120
C	 -0.623368	 -0.117453	 -0.005652
C	 1.482801	 0.818653	 1.257186
C	 -0.892588	 -1.253841	 -1.002900
C	 -1.473463	 1.100646	 -0.372896
C	 -0.981836	 -0.579025	 1.418506
H	 -0.609333	 -0.970024	 -2.010649
H	 -1.950451	 -1.487353	 -1.013175
H	 -0.360848	 -2.161259	 -0.746463
H	 -1.232203	 1.461623	 -1.364827
H	 -2.524364	 0.834451	 -0.354500
H	 -1.312381	 1.914833	 0.318657
H	 -2.035706	 -0.826342	 1.468082
H	 -0.425078	 -1.458934	 1.716857
H	 -0.788494	 0.205047	 2.140903
H	 1.698950	 -0.004133	 1.929545
H	 2.408492	 1.312965	 1.005746
H	 0.828248	 1.502926	 1.779260

	symmetry c1
}
set optking {
	frozen_dihedral = ("
		1 2 3 5
	")
}

ee,wfn = optimize('scf', return_wfn=True)
oeprop( wfn, 'DIPOLE', 'QUADRUPOLE', 'MULLIKEN_CHARGES')
f=open( 'psi4out.xyz', 'w' )
f.write( "19  " )
f.write( str(ee) + "\n" )
f.write( MOL.save_string_xyz() )
f.close()
--------------------------------------------------------------------------

    Molecular point group: c1
  Charge       = 0
  Multiplicity = 1
  Basis Set: CC-PVTZ
  Basis Set:
  @DF-RHF Final Energy:  -309.17153803145760
    Total Energy =                       -309.1715380314576578
    Molecular point group: c1
  Basis Set: CC-PVTZ
  Basis Set:
  Basis Set: CC-PVTZ
  Basis Set:
  @DF-RHF Final Energy:  -309.17097910917937
    Total Energy =                       -309.1709791091792567
  Basis Set: CC-PVTZ
  Basis Set:
  Basis Set: CC-PVTZ
  Basis Set:
  @DF-RHF Final Energy:  -309.17260093704311
    Total Energy =                       -309.1726009370430006
  Basis Set: CC-PVTZ
  Basis Set:
  Basis Set: CC-PVTZ
  Basis Set:
  @DF-RHF Final Energy:  -309.17381036884831
    Total Energy =                       -309.1738103688483648
  Basis Set: CC-PVTZ
  Basis Set:
  @DF-RHF Final Energy:  -309.17388650914529
    Total Energy =                       -309.1738865091451771
  @DF-RHF Final Energy:  -309.17392153006460
    Total Energy =                       -309.1739215300648311
  @DF-RHF Final Energy:  -309.17394382266747
    Total Energy =                       -309.1739438226674110
  Basis Set: CC-PVTZ
  Basis Set:
  @DF-RHF Final Energy:  -309.17393867981457
    Total Energy =                       -309.1739386798146256
  Basis Set: CC-PVTZ
  Basis Set:
  Basis Set: CC-PVTZ
  Basis Set:
  @DF-RHF Final Energy:  -309.17394398973556
    Total Energy =                       -309.1739439897355624
  Basis Set: CC-PVTZ
  Basis Set:
  Basis Set: CC-PVTZ
  Basis Set:
  @DF-RHF Final Energy:  -309.17394755072672
    Total Energy =                       -309.1739475507264956
  Basis Set: CC-PVTZ
  Basis Set:
  Charge       = 0
  Multiplicity = 1
  Basis Set: CC-PVTZ
  Basis Set:

    Orbital Energies (a.u.)
    -----------------------

    Doubly Occupied:

       1A    -20.536975     2A    -11.318062     3A    -11.245657
       4A    -11.225617     5A    -11.221254     6A    -11.220863
       7A    -11.207931     8A     -1.398324     9A     -1.110356
      10A     -1.003845    11A     -0.946543    12A     -0.936838
      13A     -0.835072    14A     -0.705583    15A     -0.666779
      16A     -0.634102    17A     -0.622864    18A     -0.595006
      19A     -0.590399    20A     -0.568637    21A     -0.547985
      22A     -0.546578    23A     -0.525377    24A     -0.514154
      25A     -0.503059    26A     -0.472686    27A     -0.466149
      28A     -0.394161

  @DF-RHF Final Energy:  -309.17394792176088

   => Energetics <=

    Nuclear Repulsion Energy =            326.9163528341511551
    One-Electron Energy =               -1067.0588978013827273
    Two-Electron Energy =                 430.9685970454705739
    DFT Exchange-Correlation Energy =       0.0000000000000000
    Empirical Dispersion Energy =           0.0000000000000000
    PCM Polarization Energy =               0.0000000000000000
    EFP Energy =                            0.0000000000000000
    Total Energy =                       -309.1739479217609414
    Molecular point group: c1
  Basis Set: CC-PVTZ
  Basis Set:

  -Total Gradient:
     Atom            X                  Y                   Z
    ------   -----------------  -----------------  -----------------
       1       -0.000440864149     0.001090586777    -0.000163503973
       2        0.000710118528    -0.001686450418     0.000423330515
       3       -0.000548859814     0.001212024819    -0.000770106276
       4        0.000018600749    -0.000021600059    -0.000013835511
       5        0.000290250112    -0.000594835891     0.000541748307
       6       -0.000000302856    -0.000002775755     0.000013658182
       7       -0.000015396310     0.000004929759    -0.000018065925
       8        0.000002290300     0.000006023897    -0.000007265305
       9       -0.000018503228    -0.000005933110    -0.000000088742
      10        0.000010225329    -0.000010537587    -0.000000861196
      11       -0.000005418473    -0.000013118677    -0.000003614282
      12       -0.000001530605    -0.000000974268     0.000003342063
      13        0.000005234549     0.000008589423     0.000004141971
      14       -0.000003261338     0.000000154427    -0.000001083358
      15        0.000000170239     0.000002582013    -0.000009720749
      16        0.000000804988     0.000003217101    -0.000002965072
      17        0.000004718374    -0.000012782081     0.000012156164
      18        0.000010180948     0.000008784041    -0.000005961096
      19       -0.000018457342     0.000012115589    -0.000001305717

  **** Optimization is complete! (in 11 steps) ****
    Final optimized geometry and variables:
    Molecular point group: c1

    Geometry (in Angstrom), charge = 0, multiplicity = 1:

    O            1.369269784359     0.333226921425    -1.191067718713
    C            0.843985336962     0.301231476074    -0.125606066730
    C           -0.580314804948    -0.254393666288     0.030410146778
    C            1.556120311769     0.866482672180     1.085267352112
    C           -0.823333656909    -1.327413606286    -1.035093188887
    C           -1.540222997660     0.927720010325    -0.193509169376
    C           -0.819632189312    -0.857122345368     1.420974633795
    H           -0.668330613540    -0.934704031731    -2.028769763446
    H           -1.840300358617    -1.696235981180    -0.962169918550
    H           -0.151174974351    -2.167312662465    -0.902695639750
    H           -1.406456099188     1.350754154491    -1.180923559253
    H           -2.566630957003     0.591455504206    -0.103882598573
    H           -1.387723635629     1.715403508348     0.536118074140
    H           -1.823034927549    -1.262248601094     1.473090607745
    H           -0.129682138520    -1.667944491920     1.627429334413
    H           -0.724118107035    -0.124192740648     2.211835780146
    H            1.818157839198     0.068795065326     1.770329053843
    H            2.455350529014     1.365001984515     0.758380691674
    H            0.926384725716     1.562616820565     1.625212314530

  Mulliken Charges: (a.u.)
   Center  Symbol    Alpha    Beta     Spin     Total
       1     O     4.17845  4.17845  0.00000 -0.35691
       2     C     2.84977  2.84977  0.00000  0.30046
       3     C     3.00708  3.00708  0.00000 -0.01416
       4     C     3.16455  3.16455  0.00000 -0.32911
       5     C     3.15183  3.15183  0.00000 -0.30366
       6     C     3.15561  3.15561  0.00000 -0.31121
       7     C     3.16533  3.16533  0.00000 -0.33065
       8     H     0.43606  0.43606  0.00000  0.12788
       9     H     0.45160  0.45160  0.00000  0.09680
      10     H     0.44909  0.44909  0.00000  0.10182
      11     H     0.43966  0.43966  0.00000  0.12069
      12     H     0.44683  0.44683  0.00000  0.10635
      13     H     0.44748  0.44748  0.00000  0.10503
      14     H     0.44264  0.44264  0.00000  0.11472
      15     H     0.44409  0.44409  0.00000  0.11181
      16     H     0.44565  0.44565  0.00000  0.10871
      17     H     0.44616  0.44616  0.00000  0.10767
      18     H     0.43175  0.43175  0.00000  0.13650
      19     H     0.44637  0.44637  0.00000  0.10726

   Total alpha = 28.00000, Total beta = 28.00000, Total charge = -0.00000

*** Psi4 exiting successfully. Buy a developer a beer!
