                              Psi4 1.0.54 Driver

  ==> Input File <==

--------------------------------------------------------------------------
set {
	reference rhf
	basis cc-pvtz
}

set_num_threads( 4 )
memory 2 gb

molecule MOL {
0 1

H	 2.190573	 -0.629143	 -0.208718
O	 1.355408	 -0.529451	 0.208662
C	 0.700177	 0.619554	 -0.266242
C	 -0.713111	 0.588314	 0.266177
H	 0.678680	 0.627133	 -1.351786
H	 1.199747	 1.521489	 0.077736
O	 -1.421673	 -0.521378	 -0.196983
H	 -1.244794	 1.469161	 -0.069059
H	 -0.685100	 0.604721	 1.352683
H	 -2.291123	 -0.492671	 0.162542

	symmetry c1
}
set optking {
	frozen_dihedral = ("
		10 7 4 3
	")
}

ee,wfn = optimize('scf', return_wfn=True)
oeprop( wfn, 'DIPOLE', 'QUADRUPOLE', 'MULLIKEN_CHARGES')
f=open( 'psi4out.xyz', 'w' )
f.write( "10  " )
f.write( str(ee) + "\n" )
f.write( MOL.save_string_xyz() )
f.close()
--------------------------------------------------------------------------

    Molecular point group: c1
  Charge       = 0
  Multiplicity = 1
  Basis Set: CC-PVTZ
  Basis Set:
  @DF-RHF Final Energy:  -229.02219787961266
    Total Energy =                       -229.0221978796126905
    Molecular point group: c1
  Basis Set: CC-PVTZ
  Basis Set:
  Basis Set: CC-PVTZ
  Basis Set:
  @DF-RHF Final Energy:  -229.02302612453644
    Total Energy =                       -229.0230261245363863
  Basis Set: CC-PVTZ
  Basis Set:
  Basis Set: CC-PVTZ
  Basis Set:
  @DF-RHF Final Energy:  -229.02402975451508
    Total Energy =                       -229.0240297545149701
  Basis Set: CC-PVTZ
  Basis Set:
  Basis Set: CC-PVTZ
  Basis Set:
  @DF-RHF Final Energy:  -229.02407262384418
    Total Energy =                       -229.0240726238442335
  Basis Set: CC-PVTZ
  Basis Set:
  Basis Set: CC-PVTZ
  Basis Set:
  @DF-RHF Final Energy:  -229.02408014835535
    Total Energy =                       -229.0240801483552104
  Basis Set: CC-PVTZ
  Basis Set:
  Basis Set: CC-PVTZ
  Basis Set:
  @DF-RHF Final Energy:  -229.02408195625097
    Total Energy =                       -229.0240819562511092
  Basis Set: CC-PVTZ
  Basis Set:
  Charge       = 0
  Multiplicity = 1
  Basis Set: CC-PVTZ
  Basis Set:

    Orbital Energies (a.u.)
    -----------------------

    Doubly Occupied:

       1A    -20.546183     2A    -20.545670     3A    -11.268527
       4A    -11.267847     5A     -1.375152     6A     -1.355331
       7A     -1.003920     8A     -0.831481     9A     -0.716660
      10A     -0.711816    11A     -0.613255    12A     -0.606774
      13A     -0.590584    14A     -0.528578    15A     -0.475228
      16A     -0.446743    17A     -0.441290

  @DF-RHF Final Energy:  -229.02408252784011

   => Energetics <=

    Nuclear Repulsion Energy =            133.5026144254345013
    One-Electron Energy =                -578.4033176658508637
    Two-Electron Energy =                 215.8766207125763117
    DFT Exchange-Correlation Energy =       0.0000000000000000
    Empirical Dispersion Energy =           0.0000000000000000
    PCM Polarization Energy =               0.0000000000000000
    EFP Energy =                            0.0000000000000000
    Total Energy =                       -229.0240825278400507
    Molecular point group: c1
  Basis Set: CC-PVTZ
  Basis Set:

  -Total Gradient:
     Atom            X                  Y                   Z
    ------   -----------------  -----------------  -----------------
       1        0.000012883570     0.000001662428    -0.000000545395
       2       -0.000034104798     0.000002858050    -0.000002796576
       3       -0.000082539719     0.000191324767    -0.000316141939
       4        0.000101425727    -0.000250564060     0.000309316071
       5       -0.000024783392     0.000002084142    -0.000012650606
       6       -0.000008372422    -0.000000724930    -0.000011677016
       7        0.000331521011    -0.000281305398     0.000566756222
       8       -0.000008235697     0.000012018275     0.000009993776
       9        0.000012771520     0.000007937412     0.000007943763
      10       -0.000300565800     0.000314709314    -0.000550198299

  **** Optimization is complete! (in 7 steps) ****
    Final optimized geometry and variables:
    Molecular point group: c1

    Geometry (in Angstrom), charge = 0, multiplicity = 1:

    H            2.242234377082    -0.478577319373    -0.342680224206
    O            1.482320063770    -0.345656536338     0.192460713291
    C            0.617290351995     0.570980324735    -0.415003901352
    C           -0.720835319990     0.530752922127     0.279312469049
    H            0.471936488598     0.337974889198    -1.465460794816
    H            1.015357253199     1.580710276956    -0.340974191559
    O           -1.382658582563    -0.653891849036    -0.061196685852
    H           -1.296811740518     1.398179765363    -0.035905863268
    H           -0.563127126720     0.597904225073     1.351874667078
    H           -2.218397085987    -0.690782632467     0.365545673646

  Mulliken Charges: (a.u.)
   Center  Symbol    Alpha    Beta     Spin     Total
       1     H     0.39450  0.39450  0.00000  0.21101
       2     O     4.19551  4.19551  0.00000 -0.39102
       3     C     2.96193  2.96193  0.00000  0.07615
       4     C     2.96075  2.96075  0.00000  0.07850
       5     H     0.47068  0.47068  0.00000  0.05864
       6     H     0.47766  0.47766  0.00000  0.04467
       7     O     4.19408  4.19408  0.00000 -0.38816
       8     H     0.47829  0.47829  0.00000  0.04341
       9     H     0.47085  0.47085  0.00000  0.05830
      10     H     0.39575  0.39575  0.00000  0.20850

   Total alpha = 17.00000, Total beta = 17.00000, Total charge = -0.00000

*** Psi4 exiting successfully. Buy a developer a beer!
