  ==> Input File <==

--------------------------------------------------------------------------
set {
	reference rhf
	basis 6-31G*
}

set_num_threads( 1 )
memory 2 gb

molecule MOL {
0 1

O	 -1.480382	 1.239358	 -0.123246
C	 -1.083277	 0.139568	 0.115197
C	 0.323299	 -0.082943	 0.642902
C	 -1.942803	 -1.083149	 -0.117198
C	 1.355627	 -0.005344	 -0.493127
H	 0.396251	 -1.044647	 1.143147
H	 0.528637	 0.693580	 1.371677
C	 2.786168	 -0.195604	 0.007473
H	 1.132807	 -0.760304	 -1.243899
H	 1.259610	 0.958506	 -0.981915
H	 3.495561	 -0.130713	 -0.811210
H	 2.912696	 -1.165395	 0.480041
H	 3.049284	 0.565503	 0.735850
H	 -1.410918	 -1.820723	 -0.711127
H	 -2.859567	 -0.801434	 -0.616111
H	 -2.179355	 -1.549315	 0.835660

	symmetry c1
}
set optking {
	frozen_dihedral = ("
		9 5 3 2
	")
}

ee = energy('scf')
oeprop('DIPOLE', 'QUADRUPOLE', 'MULLIKEN_CHARGES')
f=open( 'psi4out.xyz', 'w' )
f.write( "16  " )
f.write( str(ee) + "\n" )
f.write( MOL.save_string_xyz() )
f.close()
--------------------------------------------------------------------------

    Molecular point group: c1

    Geometry (in Angstrom), charge = 0, multiplicity = 1:

       Center              X                  Y                   Z               Mass
    ------------   -----------------  -----------------  -----------------  -----------------
           O         -1.479964723378     1.239366547266    -0.124353770274    15.994914619560
           C         -1.082859723378     0.139576547266     0.114089229726    12.000000000000
           C          0.323716276622    -0.082934452734     0.641794229726    12.000000000000
           C         -1.942385723378    -1.083140452734    -0.118305770274    12.000000000000
           C          1.356044276622    -0.005335452734    -0.494234770274    12.000000000000
           H          0.396668276622    -1.044638452734     1.142039229726     1.007825032070
           H          0.529054276622     0.693588547266     1.370569229726     1.007825032070
           C          2.786585276622    -0.195595452734     0.006365229726    12.000000000000
           H          1.133224276622    -0.760295452734    -1.245006770274     1.007825032070
           H          1.260027276622     0.958514547266    -0.983022770274     1.007825032070
           H          3.495978276622    -0.130704452734    -0.812317770274     1.007825032070
           H          2.913113276622    -1.165386452734     0.478933229726     1.007825032070
           H          3.049701276622     0.565511547266     0.734742229726     1.007825032070
           H         -1.410500723378    -1.820714452734    -0.712234770274     1.007825032070
           H         -2.859149723378    -0.801425452734    -0.617218770274     1.007825032070
           H         -2.178937723378    -1.549306452734     0.834552229726     1.007825032070

  Charge       = 0
  Multiplicity = 1
  Basis Set: 6-31G*
  Basis Set:

    Orbital Energies (a.u.)
    -----------------------

    Doubly Occupied:

       1A    -20.548010     2A    -11.325066     3A    -11.232727
       4A    -11.229967     5A    -11.228673     6A    -11.219071
       7A     -1.393782     8A     -1.082050     9A     -1.013371
      10A     -0.949390    11A     -0.828576    12A     -0.735232
      13A     -0.659436    14A     -0.648295    15A     -0.611670
      16A     -0.607065    17A     -0.575634    18A     -0.559031
      19A     -0.538503    20A     -0.517031    21A     -0.502613
      22A     -0.483958    23A     -0.471202    24A     -0.398211

  @DF-RHF Final Energy:  -270.03037389833321

   => Energetics <=

    Nuclear Repulsion Energy =            237.0117089506852324
    One-Electron Energy =                -835.3672047937791376
    Two-Electron Energy =                 328.3251219447613494
    DFT Exchange-Correlation Energy =       0.0000000000000000
    Empirical Dispersion Energy =           0.0000000000000000
    PCM Polarization Energy =               0.0000000000000000
    EFP Energy =                            0.0000000000000000
    Total Energy =                       -270.0303738983325275

  Mulliken Charges: (a.u.)
   Center  Symbol    Alpha    Beta     Spin     Total
       1     O     4.26206  4.26206  0.00000 -0.52412
       2     C     2.73746  2.73746  0.00000  0.52507
       3     C     3.19899  3.19899  0.00000 -0.39798
       4     C     3.28956  3.28956  0.00000 -0.57912
       5     C     3.16119  3.16119  0.00000 -0.32238
       6     H     0.41712  0.41712  0.00000  0.16576
       7     H     0.40128  0.40128  0.00000  0.19745
       8     C     3.23977  3.23977  0.00000 -0.47954
       9     H     0.41998  0.41998  0.00000  0.16004
      10     H     0.40501  0.40501  0.00000  0.18999
      11     H     0.41542  0.41542  0.00000  0.16915
      12     H     0.42093  0.42093  0.00000  0.15814
      13     H     0.41772  0.41772  0.00000  0.16457
      14     H     0.40980  0.40980  0.00000  0.18040
      15     H     0.39698  0.39698  0.00000  0.20604
      16     H     0.40673  0.40673  0.00000  0.18653

   Total alpha = 24.00000, Total beta = 24.00000, Total charge = -0.00000
