  ==> Input File <==

--------------------------------------------------------------------------
set {
	reference rhf
	basis cc-pvtz
}

set_num_threads( 4 )
memory 2 gb

molecule MOL {
0 1

H	 -2.816458	 -0.841657	 -0.064679
N	 -1.878861	 -0.711874	 0.250184
C	 -1.341419	 0.551458	 -0.220231
H	 -1.333674	 -1.468530	 -0.105118
C	 -0.103084	 0.322251	 -1.056076
H	 -2.050727	 1.131761	 -0.809022
H	 -1.063859	 1.152105	 0.638975
O	 -0.461961	 -0.374865	 -2.210608
H	 0.346211	 1.278371	 -1.320920
H	 0.623877	 -0.249032	 -0.483282
C	 0.603755	 -0.709995	 -3.035930
H	 0.208407	 -1.238804	 -3.891177
H	 1.129716	 0.175830	 -3.385751
H	 1.316019	 -1.353236	 -2.524575

	symmetry c1
}
set optking {
	frozen_dihedral = ("
		6 3 2 4
	")
}

ee = optimize('scf')
oeprop('DIPOLE', 'QUADRUPOLE', 'MULLIKEN_CHARGES')
f=open( 'psi4out.xyz', 'w' )
f.write( "14  " )
f.write( str(ee) + "\n" )
f.write( MOL.save_string_xyz() )
f.close()
--------------------------------------------------------------------------

    Molecular point group: c1
  Charge       = 0
  Multiplicity = 1
  Basis Set: CC-PVTZ
  Basis Set:
  @DF-RHF Final Energy:  -248.22048003294748
    Total Energy =                       -248.2204800329474210
    Molecular point group: c1
  Basis Set: CC-PVTZ
  Basis Set:
  Basis Set: CC-PVTZ
  Basis Set:
  @DF-RHF Final Energy:  -248.22125724903350
    Total Energy =                       -248.2212572490336129
  Basis Set: CC-PVTZ
  Basis Set:
  Basis Set: CC-PVTZ
  Basis Set:
  @DF-RHF Final Energy:  -248.22140750540018
    Total Energy =                       -248.2214075054001796
  Basis Set: CC-PVTZ
  Basis Set:
  Basis Set: CC-PVTZ
  Basis Set:
  @DF-RHF Final Energy:  -248.22141014278898
    Total Energy =                       -248.2214101427888977
  Basis Set: CC-PVTZ
  Basis Set:
  Charge       = 0
  Multiplicity = 1
  Basis Set: CC-PVTZ
  Basis Set:

    Orbital Energies (a.u.)
    -----------------------

    Doubly Occupied:

       1A    -20.554142     2A    -15.521420     3A    -11.269824
       4A    -11.267135     5A    -11.240475     6A     -1.388638
       7A     -1.173582     8A     -1.002826     9A     -0.911228
      10A     -0.822313    11A     -0.689620    12A     -0.667479
      13A     -0.655528    14A     -0.627541    15A     -0.584244
      16A     -0.551479    17A     -0.537227    18A     -0.504949
      19A     -0.473107    20A     -0.423964    21A     -0.380752

  @DF-RHF Final Energy:  -248.22141033227823

   => Energetics <=

    Nuclear Repulsion Energy =            194.3202400263795937
    One-Electron Energy =                -722.5883576135806834
    Two-Electron Energy =                 280.0467072549225804
    DFT Exchange-Correlation Energy =       0.0000000000000000
    Empirical Dispersion Energy =           0.0000000000000000
    PCM Polarization Energy =               0.0000000000000000
    EFP Energy =                            0.0000000000000000
    Total Energy =                       -248.2214103322785377
    Molecular point group: c1
  Basis Set: CC-PVTZ
  Basis Set:

  -Total Gradient:
     Atom            X                  Y                   Z
    ------   -----------------  -----------------  -----------------
       1       -0.000005063899    -0.000002508681     0.000008135318
       2       -0.000512857928     0.000079913366    -0.000513742874
       3        0.000298657978    -0.000388643841    -0.000485195269
       4        0.000392123518     0.000035521230     0.000504842452
       5        0.000003848090    -0.000001530193     0.000074808866
       6       -0.000175406122     0.000288695548     0.000472176012
       7       -0.000002112464    -0.000005050737     0.000012181681
       8        0.000007647874    -0.000001309345    -0.000039153892
       9       -0.000006330884    -0.000009608084    -0.000022217786
      10        0.000005369050     0.000003081306    -0.000004975455
      11       -0.000013867790     0.000007634174    -0.000001666098
      12        0.000005289965    -0.000003181661    -0.000005097870
      13        0.000003317897    -0.000001696023    -0.000002899851
      14       -0.000000615287    -0.000001317057     0.000002804760

  **** Optimization is complete! (in 5 steps) ****
    Final optimized geometry and variables:
    Molecular point group: c1

    Geometry (in Angstrom), charge = 0, multiplicity = 1:

    H           -2.239540168214    -0.579849192093     1.252368071430
    N           -1.296629365520    -0.484545326268     1.557286576549
    C           -0.699272577828     0.746479336911     1.054702909704
    H           -0.804611297279    -1.283464782321     1.221026464060
    C            0.532747996454     0.513659036901     0.207268888908
    H           -1.418500203417     1.311103380153     0.471559435319
    H           -0.404405373545     1.378099327574     1.887888542410
    O            0.189978420946    -0.197171568978    -0.940906334029
    H            0.975290774075     1.472480379768    -0.057883089588
    H            1.276333349398    -0.040568090910     0.781536620320
    C            1.258003086361    -0.479914485798    -1.783080486299
    H            0.875737443040    -1.030837335747    -2.630116958786
    H            1.733273401542     0.429811683153    -2.143363001463
    H            2.011101671959    -1.085069171481    -1.282883056635

  Mulliken Charges: (a.u.)
   Center  Symbol    Alpha    Beta     Spin     Total
       1     H     0.42739  0.42739  0.00000  0.14521
       2     N     3.69220  3.69220  0.00000 -0.38441
       3     C     3.01453  3.01453  0.00000 -0.02906
       4     H     0.42780  0.42780  0.00000  0.14439
       5     C     2.97939  2.97939  0.00000  0.04121
       6     H     0.45993  0.45993  0.00000  0.08014
       7     H     0.46605  0.46605  0.00000  0.06790
       8     O     4.17666  4.17666  0.00000 -0.35332
       9     H     0.46617  0.46617  0.00000  0.06766
      10     H     0.46958  0.46958  0.00000  0.06083
      11     C     3.03195  3.03195  0.00000 -0.06390
      12     H     0.44653  0.44653  0.00000  0.10693
      13     H     0.47049  0.47049  0.00000  0.05902
      14     H     0.47131  0.47131  0.00000  0.05738

   Total alpha = 21.00000, Total beta = 21.00000, Total charge = -0.00000
