  ==> Input File <==

--------------------------------------------------------------------------
set {
	reference rhf
	basis 6-31G*
}

set_num_threads( 4 )
memory 2 gb

molecule MOL {
0 1

O	 -2.324811	 1.361668	 -0.277141
C	 -2.105949	 0.203097	 -0.092081
C	 -0.889235	 -0.467034	 -0.705952
C	 -3.002726	 -0.644460	 0.782455
C	 -1.304889	 -1.451295	 -1.811214
H	 -0.376722	 -1.005315	 0.083915
H	 -0.205855	 0.275607	 -1.107826
C	 -0.103063	 -2.169541	 -2.429559
H	 -1.998588	 -2.166445	 -1.383746
H	 -1.844499	 -0.918288	 -2.592541
C	 -0.454877	 -3.112345	 -3.586020
H	 0.416511	 -2.730073	 -1.654593
H	 0.602301	 -1.424602	 -2.792016
C	 -1.293825	 -4.326070	 -3.182246
H	 0.471052	 -3.461506	 -4.035947
H	 -0.975619	 -2.552673	 -4.360412
H	 -0.801108	 -4.898507	 -2.401048
H	 -1.445330	 -4.987360	 -4.029679
H	 -2.273474	 -4.039921	 -2.814557
H	 -3.496582	 -1.399307	 0.176174
H	 -3.747939	 -0.023774	 1.260148
H	 -2.421318	 -1.168775	 1.535358

	symmetry c1
}
set optking {
	frozen_dihedral = ("
		6 3 2 1
	")
}

ee = optimize('scf')
oeprop('DIPOLE', 'QUADRUPOLE', 'MULLIKEN_CHARGES')
f=open( 'psi4out.xyz', 'w' )
f.write( "22  " )
f.write( str(ee) + "\n" )
f.write( MOL.save_string_xyz() )
f.close()
--------------------------------------------------------------------------

    Molecular point group: c1
  Charge       = 0
  Multiplicity = 1
  Basis Set: 6-31G*
  Basis Set:
  @DF-RHF Final Energy:  -348.09684231168302
    Total Energy =                       -348.0968423116826216
    Molecular point group: c1
  Basis Set: 6-31G*
  Basis Set:
  Basis Set: 6-31G*
  Basis Set:
  @DF-RHF Final Energy:  -348.09732036807759
    Total Energy =                       -348.0973203680775896
  Basis Set: 6-31G*
  Basis Set:
  Basis Set: 6-31G*
  Basis Set:
  @DF-RHF Final Energy:  -348.09604461570513
    Total Energy =                       -348.0960446157051251
  Basis Set: 6-31G*
  Basis Set:
  Basis Set: 6-31G*
  Basis Set:
  @DF-RHF Final Energy:  -348.09773826530568
    Total Energy =                       -348.0977382653056225
  Basis Set: 6-31G*
  Basis Set:
  @DF-RHF Final Energy:  -348.09761012645805
    Total Energy =                       -348.0976101264582780
  @DF-RHF Final Energy:  -348.09752860180868
    Total Energy =                       -348.0975286018086763
  @DF-RHF Final Energy:  -348.09779921913918
    Total Energy =                       -348.0977992191391763
  Basis Set: 6-31G*
  Basis Set:
  @DF-RHF Final Energy:  -348.09779317048333
    Total Energy =                       -348.0977931704836692
  Basis Set: 6-31G*
  Basis Set:
  Basis Set: 6-31G*
  Basis Set:
  @DF-RHF Final Energy:  -348.09780045393569
    Total Energy =                       -348.0978004539358039
  Basis Set: 6-31G*
  Basis Set:
  Basis Set: 6-31G*
  Basis Set:
  @DF-RHF Final Energy:  -348.09780145859844
    Total Energy =                       -348.0978014585984965
  Basis Set: 6-31G*
  Basis Set:
  Charge       = 0
  Multiplicity = 1
  Basis Set: 6-31G*
  Basis Set:

    Orbital Energies (a.u.)
    -----------------------

    Doubly Occupied:

       1A    -20.548053     2A    -11.324095     3A    -11.232345
       4A    -11.229334     5A    -11.227292     6A    -11.224327
       7A    -11.222477     8A    -11.214878     9A     -1.393088
      10A     -1.098106    11A     -1.045650    12A     -0.997676
      13A     -0.939865    14A     -0.861484    15A     -0.788832
      16A     -0.733012    17A     -0.661763    18A     -0.647441
      19A     -0.627084    20A     -0.621050    21A     -0.597324
      22A     -0.588249    23A     -0.552976    24A     -0.548518
      25A     -0.537004    26A     -0.518320    27A     -0.498951
      28A     -0.491224    29A     -0.472621    30A     -0.466816
      31A     -0.462958    32A     -0.396515

  @DF-RHF Final Energy:  -348.09780232716389

   => Energetics <=

    Nuclear Repulsion Energy =            372.7920012788832764
    One-Electron Energy =               -1210.2409520266612617
    Two-Electron Energy =                 489.3511484206140949
    DFT Exchange-Correlation Energy =       0.0000000000000000
    Empirical Dispersion Energy =           0.0000000000000000
    PCM Polarization Energy =               0.0000000000000000
    EFP Energy =                            0.0000000000000000
    Total Energy =                       -348.0978023271638904
    Molecular point group: c1
  Basis Set: 6-31G*
  Basis Set:

  -Total Gradient:
     Atom            X                  Y                   Z
    ------   -----------------  -----------------  -----------------
       1        0.000140547184     0.000108384588     0.000230730379
       2       -0.000183267623    -0.000087040624    -0.000384462916
       3       -0.000120472171    -0.000285483571     0.000054037067
       4        0.000080194091     0.000003867366     0.000061013706
       5        0.000001272572     0.000075207747    -0.000043648660
       6        0.000179054241     0.000223394305     0.000076871876
       7       -0.000036043625     0.000014073449     0.000020226507
       8       -0.000011480294    -0.000021119443     0.000025610194
       9        0.000020014305    -0.000025196734     0.000001402347
      10       -0.000041057668    -0.000000255773    -0.000024353779
      11       -0.000000237877     0.000006728358     0.000012971212
      12        0.000006991616    -0.000012108329    -0.000000427523
      13       -0.000017467231     0.000003786860     0.000007976002
      14       -0.000006329151    -0.000012387630    -0.000003209602
      15        0.000009067736     0.000016936713     0.000010023453
      16       -0.000001643917    -0.000000418829     0.000003473190
      17        0.000002688667    -0.000011507138    -0.000002748184
      18       -0.000008063175    -0.000000711586     0.000000446258
      19        0.000004867443     0.000005397780     0.000005771064
      20       -0.000005423638     0.000017592584    -0.000038605492
      21        0.000005143667     0.000012766213    -0.000019427440
      22       -0.000018355149    -0.000031906304     0.000006330342

  **** Optimization is complete! (in 11 steps) ****
    Final optimized geometry and variables:
    Molecular point group: c1

    Geometry (in Angstrom), charge = 0, multiplicity = 1:

    O           -0.824091566480     2.715663670375     1.111267724528
    C           -0.644934431531     1.557393080820     1.336545623731
    C            0.533480636006     0.813702872141     0.733627806525
    C           -1.589150479235     0.778139324981     2.229235019343
    C            0.118204492685    -0.167896487670    -0.373958835957
    H            1.057976584691     0.273959591602     1.519193206442
    H            1.208005306208     1.560596941917     0.332748143057
    C            1.329473715470    -0.836564185640    -1.029642746653
    H           -0.543060192236    -0.924731280804     0.036164961648
    H           -0.450178401502     0.369775166748    -1.129675923373
    C            0.986542587373    -1.764467915153    -2.200545528944
    H            1.882441913248    -1.396534088405    -0.277114648344
    H            2.002068806199    -0.060826693448    -1.387733925424
    C            0.194965646113    -3.014556275308    -1.811933381352
    H            1.914864655009    -2.073005575644    -2.674365974830
    H            0.434234880750    -1.204857209827    -2.952376858723
    H            0.718972861299    -3.588210610801    -1.052073530894
    H            0.051443290562    -3.661203867630    -2.671843122577
    H           -0.788278608694    -2.770123157931    -1.423495883937
    H           -2.102389687695     0.008547083346     1.660774677972
    H           -2.320847982108     1.451238393553     2.653858143057
    H           -1.042791016973     0.281380678455     3.025338236084

  Mulliken Charges: (a.u.)
   Center  Symbol    Alpha    Beta     Spin     Total
       1     O     4.26012  4.26012  0.00000 -0.52024
       2     C     2.73585  2.73585  0.00000  0.52829
       3     C     3.20210  3.20210  0.00000 -0.40421
       4     C     3.29001  3.29001  0.00000 -0.58003
       5     C     3.16623  3.16623  0.00000 -0.33245
       6     H     0.41497  0.41497  0.00000  0.17006
       7     H     0.39967  0.39967  0.00000  0.20065
       8     C     3.15255  3.15255  0.00000 -0.30510
       9     H     0.41769  0.41769  0.00000  0.16462
      10     H     0.41208  0.41208  0.00000  0.17584
      11     C     3.15354  3.15354  0.00000 -0.30709
      12     H     0.42292  0.42292  0.00000  0.15416
      13     H     0.41778  0.41778  0.00000  0.16444
      14     C     3.24189  3.24189  0.00000 -0.48378
      15     H     0.41876  0.41876  0.00000  0.16248
      16     H     0.42095  0.42095  0.00000  0.15809
      17     H     0.42184  0.42184  0.00000  0.15632
      18     H     0.41715  0.41715  0.00000  0.16570
      19     H     0.42094  0.42094  0.00000  0.15812
      20     H     0.40650  0.40650  0.00000  0.18701
      21     H     0.39630  0.39630  0.00000  0.20740
      22     H     0.41015  0.41015  0.00000  0.17970

   Total alpha = 32.00000, Total beta = 32.00000, Total charge =  0.00000
