  ==> Input File <==

--------------------------------------------------------------------------
set {
	reference rhf
	basis 6-31G*
}

set_num_threads( 4 )
memory 2 gb

molecule MOL {
0 1

H	 -1.487063	 -0.662662	 0.784782
N	 -1.172117	 -0.314371	 -0.100254
C	 -0.024542	 0.565565	 0.069209
H	 -0.923525	 -1.112211	 -0.654086
C	 1.271298	 -0.229563	 -0.014192
H	 -0.049409	 1.297310	 -0.731596
H	 -0.046881	 1.125219	 1.006750
H	 1.332152	 -0.753033	 -0.961461
H	 2.134169	 0.422483	 0.080702
H	 1.326077	 -0.968298	 0.781395

	symmetry c1
}
set optking {
	frozen_dihedral = ("
		1 2 3 6
	")
}

ee = optimize('scf')
oeprop('DIPOLE', 'QUADRUPOLE', 'MULLIKEN_CHARGES')
f=open( 'psi4out.xyz', 'w' )
f.write( "10  " )
f.write( str(ee) + "\n" )
f.write( MOL.save_string_xyz() )
f.close()
--------------------------------------------------------------------------

    Molecular point group: c1
  Charge       = 0
  Multiplicity = 1
  Basis Set: 6-31G*
  Basis Set:
  @DF-RHF Final Energy:  -134.24338896639512
    Total Energy =                       -134.2433889663951447
    Molecular point group: c1
  Basis Set: 6-31G*
  Basis Set:
  Basis Set: 6-31G*
  Basis Set:
  @DF-RHF Final Energy:  -134.24552994955963
    Total Energy =                       -134.2455299495594545
  Basis Set: 6-31G*
  Basis Set:
  Basis Set: 6-31G*
  Basis Set:
  @DF-RHF Final Energy:  -134.24580567910675
    Total Energy =                       -134.2458056791067236
  Basis Set: 6-31G*
  Basis Set:
  Basis Set: 6-31G*
  Basis Set:
  @DF-RHF Final Energy:  -134.24581755500665
    Total Energy =                       -134.2458175550066528
  Basis Set: 6-31G*
  Basis Set:
  Charge       = 0
  Multiplicity = 1
  Basis Set: 6-31G*
  Basis Set:

    Orbital Energies (a.u.)
    -----------------------

    Doubly Occupied:

       1A    -15.530867     2A    -11.242432     3A    -11.211340
       4A     -1.174547     5A     -0.988005     6A     -0.831989
       7A     -0.672612     8A     -0.600827     9A     -0.583652
      10A     -0.550849    11A     -0.508012    12A     -0.483605
      13A     -0.376573

  @DF-RHF Final Energy:  -134.24581846086062

   => Energetics <=

    Nuclear Repulsion Energy =             83.1658485417671471
    One-Electron Energy =                -345.3127146150618501
    Two-Electron Energy =                 127.9010476124340698
    DFT Exchange-Correlation Energy =       0.0000000000000000
    Empirical Dispersion Energy =           0.0000000000000000
    PCM Polarization Energy =               0.0000000000000000
    EFP Energy =                            0.0000000000000000
    Total Energy =                       -134.2458184608606189
    Molecular point group: c1
  Basis Set: 6-31G*
  Basis Set:

  -Total Gradient:
     Atom            X                  Y                   Z
    ------   -----------------  -----------------  -----------------
       1       -0.001995491222     0.002834303270     0.000487193330
       2        0.002101785196    -0.003066732820    -0.000199583457
       3        0.001507879978    -0.001804294354    -0.002284011091
       4        0.000030336399     0.000047658582     0.000025827764
       5       -0.000065494482     0.000007623458    -0.000009457606
       6       -0.001595218598     0.001923132840     0.001955909316
       7       -0.000015434181     0.000039290688     0.000028382084
       8        0.000004844658    -0.000001941756     0.000025546396
       9        0.000027853033     0.000009946077    -0.000000346873
      10       -0.000001060781     0.000011014014    -0.000029459860

  **** Optimization is complete! (in 5 steps) ****
    Final optimized geometry and variables:
    Molecular point group: c1

    Geometry (in Angstrom), charge = 0, multiplicity = 1:

    H           -1.509073995113    -0.637292193475     0.821713939789
    N           -1.226883212176    -0.273390232617    -0.065631481305
    C           -0.036104381227     0.555669182521     0.049453204749
    H           -1.091537193361    -1.041314183114    -0.692973279557
    C            1.290380793362    -0.199331857225    -0.001428171031
    H           -0.065521435189     1.315654694616    -0.725758234925
    H           -0.107304186240     1.098274667936     0.987088384951
    H            1.395346772572    -0.736753114956    -0.940585583073
    H            2.133071334141     0.480778640306     0.084879420783
    H            1.357309430215    -0.923616345297     0.805716292897

  Mulliken Charges: (a.u.)
   Center  Symbol    Alpha    Beta     Spin     Total
       1     H     0.33245  0.33245  0.00000  0.33509
       2     N     3.92352  3.92352  0.00000 -0.84704
       3     C     3.05902  3.05902  0.00000 -0.11804
       4     H     0.33348  0.33348  0.00000  0.33304
       5     C     3.24541  3.24541  0.00000 -0.49082
       6     H     0.41793  0.41793  0.00000  0.16414
       7     H     0.42152  0.42152  0.00000  0.15696
       8     H     0.42316  0.42316  0.00000  0.15367
       9     H     0.42038  0.42038  0.00000  0.15923
      10     H     0.42312  0.42312  0.00000  0.15376

   Total alpha = 13.00000, Total beta = 13.00000, Total charge =  0.00000
