  ==> Input File <==

--------------------------------------------------------------------------
set {
	reference rhf
	basis 6-31G*
}

set_num_threads( 4 )
memory 2 gb

molecule MOL {
0 1

H	 -2.808455	 2.362444	 -0.164611
O	 -2.114041	 1.766032	 -0.405417
C	 -2.306886	 0.532354	 0.237577
C	 -1.177863	 -0.397191	 -0.171080
H	 -2.311350	 0.660638	 1.319164
H	 -3.266161	 0.099690	 -0.043373
C	 0.198102	 0.111031	 0.262842
H	 -1.208843	 -0.518759	 -1.250427
H	 -1.368741	 -1.376554	 0.258909
C	 1.331804	 -0.827780	 -0.158768
H	 0.361943	 1.100838	 -0.156218
H	 0.217265	 0.229072	 1.345532
C	 2.723619	 -0.410569	 0.329459
H	 1.342964	 -0.912588	 -1.244120
H	 1.116806	 -1.824343	 0.220779
C	 3.243875	 0.895854	 -0.272975
H	 3.424222	 -1.207124	 0.091250
H	 2.714788	 -0.329854	 1.414619
H	 3.251977	 0.848779	 -1.358681
H	 2.637085	 1.747371	 0.016682
H	 4.259473	 1.094070	 0.055697

	symmetry c1
}
set optking {
	frozen_dihedral = ("
		2 3 4 8
	")
}

ee = optimize('scf')
oeprop('DIPOLE', 'QUADRUPOLE', 'MULLIKEN_CHARGES')
f=open( 'psi4out.xyz', 'w' )
f.write( "21  " )
f.write( str(ee) + "\n" )
f.write( MOL.save_string_xyz() )
f.close()
--------------------------------------------------------------------------

    Molecular point group: c1
  Charge       = 0
  Multiplicity = 1
  Basis Set: 6-31G*
  Basis Set:
  @DF-RHF Final Energy:  -310.21300334631508
    Total Energy =                       -310.2130033463148493
    Molecular point group: c1
  Basis Set: 6-31G*
  Basis Set:
  Basis Set: 6-31G*
  Basis Set:
  @DF-RHF Final Energy:  -310.21308147888914
    Total Energy =                       -310.2130814788891939
  Basis Set: 6-31G*
  Basis Set:
  Basis Set: 6-31G*
  Basis Set:
  @DF-RHF Final Energy:  -310.21307177907323
    Total Energy =                       -310.2130717790732888
  Basis Set: 6-31G*
  Basis Set:
  Basis Set: 6-31G*
  Basis Set:
  @DF-RHF Final Energy:  -310.21309512023072
    Total Energy =                       -310.2130951202303777
  Basis Set: 6-31G*
  Basis Set:
  Basis Set: 6-31G*
  Basis Set:
  @DF-RHF Final Energy:  -310.21309678029877
    Total Energy =                       -310.2130967802985992
  Basis Set: 6-31G*
  Basis Set:
  Charge       = 0
  Multiplicity = 1
  Basis Set: 6-31G*
  Basis Set:

    Orbital Energies (a.u.)
    -----------------------

    Doubly Occupied:

       1A    -20.553132     2A    -11.267988     3A    -11.211931
       4A    -11.210826     5A    -11.208625     6A    -11.205689
       7A    -11.203079     8A     -1.359800     9A     -1.080572
      10A     -1.029583    11A     -0.952602    12A     -0.874592
      13A     -0.801225    14A     -0.772681    15A     -0.705028
      16A     -0.640615    17A     -0.626135    18A     -0.600045
      19A     -0.587363    20A     -0.561867    21A     -0.539635
      22A     -0.517004    23A     -0.500572    24A     -0.495067
      25A     -0.475538    26A     -0.455366    27A     -0.452935
      28A     -0.441098    29A     -0.427188

  @DF-RHF Final Energy:  -310.21309700745923

   => Energetics <=

    Nuclear Repulsion Energy =            317.4935517770720139
    One-Electron Energy =               -1049.8977322784546686
    Two-Electron Energy =                 422.1910834939232018
    DFT Exchange-Correlation Energy =       0.0000000000000000
    Empirical Dispersion Energy =           0.0000000000000000
    PCM Polarization Energy =               0.0000000000000000
    EFP Energy =                            0.0000000000000000
    Total Energy =                       -310.2130970074593961
    Molecular point group: c1
  Basis Set: 6-31G*
  Basis Set:

  -Total Gradient:
     Atom            X                  Y                   Z
    ------   -----------------  -----------------  -----------------
       1       -0.000004703721     0.000032749760    -0.000016051910
       2        0.000102580129     0.000088318679     0.000235043569
       3       -0.000181756611    -0.000164133267    -0.000285960870
       4        0.000298620503     0.000304563394     0.000036592968
       5       -0.000011498705     0.000003417179    -0.000011863219
       6       -0.000024141361     0.000022340539     0.000006897131
       7       -0.000056614799    -0.000050222085     0.000025327009
       8       -0.000200459692    -0.000275040848     0.000048326166
       9        0.000031597838     0.000006876981    -0.000013649174
      10        0.000024438318    -0.000013377075     0.000008045634
      11       -0.000002607350     0.000044374978    -0.000000649111
      12        0.000006761970     0.000005214101    -0.000011341970
      13        0.000005702813    -0.000011472570    -0.000016685608
      14        0.000007316875    -0.000000692041     0.000005227844
      15        0.000010583357     0.000003176523    -0.000005231185
      16        0.000001636544    -0.000001350916    -0.000001537127
      17       -0.000000053818     0.000000050861     0.000000698290
      18       -0.000005804433    -0.000001192263    -0.000003819352
      19        0.000003013103    -0.000000436766    -0.000001350662
      20       -0.000000342345     0.000005386181     0.000001784469
      21       -0.000004268611     0.000001448653     0.000000197108

  **** Optimization is complete! (in 6 steps) ****
    Final optimized geometry and variables:
    Molecular point group: c1

    Geometry (in Angstrom), charge = 0, multiplicity = 1:

    H           -3.047134908787     2.080649006498    -0.112073023184
    O           -2.358814051042     1.486752372724    -0.375372768821
    C           -2.533231052263     0.247077953898     0.263430555054
    C           -1.393925569610    -0.674536464551    -0.137642561675
    H           -2.544627129872     0.373977124079     1.345310928525
    H           -3.483977921070    -0.197957308935    -0.024603074661
    C           -0.016790139799    -0.171646091664     0.298522484090
    H           -1.418048993011    -0.798713507413    -1.217205919927
    H           -1.583357621401    -1.654872443460     0.295853447081
    C            1.112536742702    -1.115228916460    -0.123479785473
    H            0.140558237677     0.816631211707    -0.116775665152
    H           -0.003833897708    -0.060068851234     1.382410029526
    C            2.505997062878    -0.699852363658     0.362133897000
    H            1.123429401901    -1.200262427306    -1.209075244779
    H            0.898303624091    -2.112652176819     0.256209137364
    C            3.026105229013     0.604852709763    -0.244038641270
    H            3.205845009558    -1.497736645479     0.125301868975
    H            2.498137678725    -0.616243959533     1.447163937653
    H            3.036275277399     0.553364430886    -1.329488219999
    H            2.416872961904     1.456056267451     0.040358882278
    H            4.040968798773     0.805410333537     0.085971668074

  Mulliken Charges: (a.u.)
   Center  Symbol    Alpha    Beta     Spin     Total
       1     H     0.28054  0.28054  0.00000  0.43893
       2     O     4.36972  4.36972  0.00000 -0.73944
       3     C     2.99717  2.99717  0.00000  0.00566
       4     C     3.15988  3.15988  0.00000 -0.31976
       5     H     0.43267  0.43267  0.00000  0.13466
       6     H     0.42929  0.42929  0.00000  0.14142
       7     C     3.15660  3.15660  0.00000 -0.31320
       8     H     0.41533  0.41533  0.00000  0.16935
       9     H     0.42427  0.42427  0.00000  0.15147
      10     C     3.15273  3.15273  0.00000 -0.30546
      11     H     0.40484  0.40484  0.00000  0.19032
      12     H     0.42790  0.42790  0.00000  0.14421
      13     C     3.15181  3.15181  0.00000 -0.30362
      14     H     0.42377  0.42377  0.00000  0.15246
      15     H     0.42471  0.42471  0.00000  0.15057
      16     C     3.24114  3.24114  0.00000 -0.48228
      17     H     0.42215  0.42215  0.00000  0.15569
      18     H     0.42432  0.42432  0.00000  0.15137
      19     H     0.42211  0.42211  0.00000  0.15579
      20     H     0.41843  0.41843  0.00000  0.16314
      21     H     0.42063  0.42063  0.00000  0.15874

   Total alpha = 29.00000, Total beta = 29.00000, Total charge = -0.00000
