  ==> Input File <==

--------------------------------------------------------------------------
set {
	reference rhf
	basis 6-31G*
}

set_num_threads( 4 )
memory 2 gb

molecule MOL {
0 1

H	 -3.426402	 -0.856423	 -0.515587
O	 -3.118162	 -0.155691	 0.042606
C	 -1.777354	 -0.061246	 0.005466
C	 -0.995437	 -0.911005	 -0.771397
C	 -1.185343	 0.928369	 0.780225
H	 -1.462240	 -1.675385	 -1.368998
C	 0.376151	 -0.767599	 -0.770335
H	 -1.809779	 1.571372	 1.370902
C	 0.187684	 1.059302	 0.770752
H	 0.991636	 -1.416233	 -1.364938
C	 0.984182	 0.218375	 0.000000
H	 0.646957	 1.826032	 1.370965
C	 2.452467	 0.370529	 0.000000
O	 3.228994	 -0.533774	 0.000000
H	 2.809473	 1.405765	 0.000000

	symmetry c1
}
set optking {
	frozen_dihedral = ("
		7 11 13 14
	")
}

ee = optimize('scf')
oeprop('DIPOLE', 'QUADRUPOLE', 'MULLIKEN_CHARGES')
f=open( 'psi4out.xyz', 'w' )
f.write( "15  " )
f.write( str(ee) + "\n" )
f.write( MOL.save_string_xyz() )
f.close()
--------------------------------------------------------------------------

    Molecular point group: c1
  Charge       = 0
  Multiplicity = 1
  Basis Set: 6-31G*
  Basis Set:
  @DF-RHF Final Energy:  -418.28340767396020
    Total Energy =                       -418.2834076739600278
    Molecular point group: c1
  Basis Set: 6-31G*
  Basis Set:
  Basis Set: 6-31G*
  Basis Set:
  @DF-RHF Final Energy:  -418.28208666764391
    Total Energy =                       -418.2820866676441938
  Basis Set: 6-31G*
  Basis Set:
  Basis Set: 6-31G*
  Basis Set:
  @DF-RHF Final Energy:  -418.28400619777972
    Total Energy =                       -418.2840061977798314
  Basis Set: 6-31G*
  Basis Set:
  Basis Set: 6-31G*
  Basis Set:
  @DF-RHF Final Energy:  -418.28417831138819
    Total Energy =                       -418.2841783113884730
  Basis Set: 6-31G*
  Basis Set:
  Basis Set: 6-31G*
  Basis Set:
  @DF-RHF Final Energy:  -418.28418087263361
    Total Energy =                       -418.2841808726333284
  Basis Set: 6-31G*
  Basis Set:
  Basis Set: 6-31G*
  Basis Set:
  @DF-RHF Final Energy:  -418.28418313351642
    Total Energy =                       -418.2841831335165352
  Basis Set: 6-31G*
  Basis Set:
  Charge       = 0
  Multiplicity = 1
  Basis Set: 6-31G*
  Basis Set:

    Orbital Energies (a.u.)
    -----------------------

    Doubly Occupied:

       1A    -20.608589     2A    -20.560817     3A    -11.329980
       4A    -11.320556     5A    -11.258571     6A    -11.256978
       7A    -11.243849     8A    -11.240736     9A    -11.238740
      10A     -1.429248    11A     -1.400955    12A     -1.170133
      13A     -1.040272    14A     -1.038331    15A     -0.888021
      16A     -0.865921    17A     -0.795802    18A     -0.755668
      19A     -0.712546    20A     -0.668399    21A     -0.644902
      22A     -0.628824    23A     -0.607403    24A     -0.606131
      25A     -0.586290    26A     -0.560878    27A     -0.538991
      28A     -0.505690    29A     -0.486426    30A     -0.420017
      31A     -0.356691    32A     -0.325532

  @DF-RHF Final Energy:  -418.28418318165956

   => Energetics <=

    Nuclear Repulsion Energy =            400.8670327959407018
    One-Electron Energy =               -1364.1186529061460533
    Two-Electron Energy =                 544.9674369285455668
    DFT Exchange-Correlation Energy =       0.0000000000000000
    Empirical Dispersion Energy =           0.0000000000000000
    PCM Polarization Energy =               0.0000000000000000
    EFP Energy =                            0.0000000000000000
    Total Energy =                       -418.2841831816597278
    Molecular point group: c1
  Basis Set: 6-31G*
  Basis Set:

  -Total Gradient:
     Atom            X                  Y                   Z
    ------   -----------------  -----------------  -----------------
       1       -0.000001196805     0.000008573542    -0.000003424161
       2       -0.000020064332     0.000024334321    -0.000048703158
       3        0.000024887211    -0.000089989073     0.000127073059
       4       -0.000011384950     0.000043643591    -0.000032754473
       5       -0.000017821336    -0.000020156559    -0.000050744322
       6       -0.000012488302     0.000003147081     0.000005669429
       7       -0.000793210668     0.004472021372    -0.004895745567
       8        0.000004502414    -0.000007034038     0.000001593335
       9        0.000011666694    -0.000051927562    -0.000028317580
      10        0.000005613194     0.000010871480    -0.000010396042
      11        0.001241935186    -0.006664897555     0.010950623087
      12        0.000004608249     0.000007997345    -0.000008263930
      13       -0.000735422461     0.002526582097    -0.014142663851
      14        0.000274700366    -0.000269784997     0.008161810625
      15        0.000023675539     0.000006618960    -0.000025756450

  **** Optimization is complete! (in 7 steps) ****
    Final optimized geometry and variables:
    Molecular point group: c1

    Geometry (in Angstrom), charge = 0, multiplicity = 1:

    H           -3.434190425570    -0.850011922455    -0.512176535926
    O           -3.125039642863    -0.145492426017     0.040476785165
    C           -1.781573133777    -0.062773898833     0.010904467446
    C           -1.001288218863    -0.910763662953    -0.764295353699
    C           -1.186262310819     0.927048875268     0.783876469017
    H           -1.467390808086    -1.662952077444    -1.377653066241
    C            0.374405420545    -0.781118035407    -0.747025205350
    H           -1.809490902494     1.579154132448     1.366048967675
    C            0.185962038396     1.060898223155     0.770918069067
    H            0.984215344216    -1.438804616490    -1.338661722237
    C            0.984781765825     0.187660905307     0.038259407670
    H            0.642795723424     1.845600715948     1.349459877197
    C            2.454802017386     0.377766504436    -0.010163811966
    O            3.246155851184    -0.509657057375    -0.074982462263
    H            2.794800252374     1.414502260315     0.078608324067

  Mulliken Charges: (a.u.)
   Center  Symbol    Alpha    Beta     Spin     Total
       1     H     0.26899  0.26899  0.00000  0.46201
       2     O     4.37397  4.37397  0.00000 -0.74794
       3     C     2.78752  2.78752  0.00000  0.42496
       4     C     3.14603  3.14603  0.00000 -0.29205
       5     C     3.12584  3.12584  0.00000 -0.25167
       6     H     0.39846  0.39846  0.00000  0.20308
       7     C     3.08402  3.08402  0.00000 -0.16805
       8     H     0.38656  0.38656  0.00000  0.22688
       9     C     3.09393  3.09393  0.00000 -0.18786
      10     H     0.37963  0.37963  0.00000  0.24075
      11     C     3.05499  3.05499  0.00000 -0.10998
      12     H     0.39067  0.39067  0.00000  0.21867
      13     C     2.84207  2.84207  0.00000  0.31585
      14     O     4.24257  4.24257  0.00000 -0.48513
      15     H     0.42476  0.42476  0.00000  0.15049

   Total alpha = 32.00000, Total beta = 32.00000, Total charge = -0.00000
