  ==> Input File <==

--------------------------------------------------------------------------
set {
	reference rhf
	basis 6-31G*
}

set_num_threads( 4 )
memory 2 gb

molecule MOL {
0 1

H	 -2.698709	 -0.000305	 0.034435
C	 -1.693833	 0.000034	 0.434417
O	 -0.828952	 -0.000968	 -0.659236
H	 -1.574200	 0.882896	 1.055746
H	 -1.574147	 -0.881698	 1.057355
C	 -1.250949	 0.616423	 -1.853075
C	 -2.461362	 -0.077461	 -2.474638
C	 -1.463677	 2.120234	 -1.691035
H	 -0.407485	 0.470373	 -2.517356
H	 -2.295074	 -1.148011	 -2.527736
H	 -2.624178	 0.292258	 -3.482127
H	 -3.371643	 0.100762	 -1.910910
H	 -0.607210	 2.570691	 -1.201126
H	 -1.582448	 2.585248	 -2.664750
H	 -2.351126	 2.349532	 -1.109917

	symmetry c1
}
set optking {
	frozen_dihedral = ("
		6 3 2 1
	")
}

ee = optimize('scf')
oeprop('DIPOLE', 'QUADRUPOLE', 'MULLIKEN_CHARGES')
f=open( 'psi4out.xyz', 'w' )
f.write( "15  " )
f.write( str(ee) + "\n" )
f.write( MOL.save_string_xyz() )
f.close()
--------------------------------------------------------------------------

    Molecular point group: c1
  Charge       = 0
  Multiplicity = 1
  Basis Set: 6-31G*
  Basis Set:
  @DF-RHF Final Energy:  -232.13389795559368
    Total Energy =                       -232.1338979555935680
    Molecular point group: c1
  Basis Set: 6-31G*
  Basis Set:
  Basis Set: 6-31G*
  Basis Set:
  @DF-RHF Final Energy:  -232.13571443984469
    Total Energy =                       -232.1357144398446621
  Basis Set: 6-31G*
  Basis Set:
  Basis Set: 6-31G*
  Basis Set:
  @DF-RHF Final Energy:  -232.13664824410483
    Total Energy =                       -232.1366482441046628
  Basis Set: 6-31G*
  Basis Set:
  Basis Set: 6-31G*
  Basis Set:
  @DF-RHF Final Energy:  -232.13667542360398
    Total Energy =                       -232.1366754236038332
  Basis Set: 6-31G*
  Basis Set:
  Basis Set: 6-31G*
  Basis Set:
  @DF-RHF Final Energy:  -232.13668264406758
    Total Energy =                       -232.1366826440676050
  Basis Set: 6-31G*
  Basis Set:
  Basis Set: 6-31G*
  Basis Set:
  @DF-RHF Final Energy:  -232.13668164037281
    Total Energy =                       -232.1366816403727853
  Basis Set: 6-31G*
  Basis Set:
  Basis Set: 6-31G*
  Basis Set:
  @DF-RHF Final Energy:  -232.13668383391911
    Total Energy =                       -232.1366838339191645
  Basis Set: 6-31G*
  Basis Set:
  Charge       = 0
  Multiplicity = 1
  Basis Set: 6-31G*
  Basis Set:

    Orbital Energies (a.u.)
    -----------------------

    Doubly Occupied:

       1A    -20.547019     2A    -11.274667     3A    -11.261475
       4A    -11.211301     5A    -11.209784     6A     -1.369281
       7A     -1.050079     8A     -0.940165     9A     -0.930986
      10A     -0.781476    11A     -0.675669    12A     -0.639189
      13A     -0.632288    14A     -0.570568    15A     -0.563538
      16A     -0.553211    17A     -0.536525    18A     -0.500146
      19A     -0.497431    20A     -0.442746    21A     -0.404139

  @DF-RHF Final Energy:  -232.13668384147536

   => Energetics <=

    Nuclear Repulsion Energy =            198.7789397596746994
    One-Electron Energy =                -708.6478826568418299
    Two-Electron Energy =                 277.7322590556918271
    DFT Exchange-Correlation Energy =       0.0000000000000000
    Empirical Dispersion Energy =           0.0000000000000000
    PCM Polarization Energy =               0.0000000000000000
    EFP Energy =                            0.0000000000000000
    Total Energy =                       -232.1366838414753033
    Molecular point group: c1
  Basis Set: 6-31G*
  Basis Set:

  -Total Gradient:
     Atom            X                  Y                   Z
    ------   -----------------  -----------------  -----------------
       1        0.000201185778     0.001988615185    -0.000022683495
       2       -0.000634855818    -0.003224803485    -0.000192515645
       3        0.001214723764     0.002582673728     0.000669247800
       4       -0.000002448723     0.000003067573     0.000004219248
       5        0.000000561013    -0.000004110522    -0.000003137598
       6       -0.000776769524    -0.001340908854    -0.000464515026
       7       -0.000004323994    -0.000002399055     0.000008867960
       8        0.000004414594    -0.000001236321    -0.000002416995
       9       -0.000000603415     0.000003450072    -0.000001319109
      10       -0.000002411446    -0.000003200870     0.000000220434
      11        0.000007463541     0.000000885151     0.000002729739
      12       -0.000004961867     0.000000079880    -0.000003272931
      13       -0.000003928784     0.000000520345     0.000007743742
      14        0.000001841066     0.000004059836    -0.000000906329
      15        0.000000113812    -0.000006692662    -0.000002261796

  **** Optimization is complete! (in 8 steps) ****
    Final optimized geometry and variables:
    Molecular point group: c1

    Geometry (in Angstrom), charge = 0, multiplicity = 1:

    H           -1.191642589726    -0.367283664624     1.415735491868
    C           -0.144541995052    -0.469014292848     1.679364207164
    O            0.690475004356    -0.566078413960     0.564167581497
    H            0.127276265723     0.382301812496     2.298076486799
    H           -0.019658722991    -1.371809630473     2.262894598659
    C            0.305251163886     0.079097495567    -0.627029584240
    C           -0.882482030219    -0.610602584587    -1.295307974219
    C            0.083633695742     1.577652514726    -0.434541706894
    H            1.166826722331    -0.050458697953    -1.271131104312
    H           -0.691465009293    -1.674012096992    -1.387115816864
    H           -1.039190353433    -0.204195807728    -2.289863042497
    H           -1.804776966560    -0.476172512003    -0.739410908313
    H            0.941928580314     2.025426568068     0.054802625102
    H           -0.051838144318     2.063731561800    -1.395626791720
    H           -0.797585444881     1.784722349316     0.164945265064

  Mulliken Charges: (a.u.)
   Center  Symbol    Alpha    Beta     Spin     Total
       1     H     0.43043  0.43043  0.00000  0.13914
       2     C     3.08018  3.08018  0.00000 -0.16035
       3     O     4.31355  4.31355  0.00000 -0.62710
       4     H     0.42621  0.42621  0.00000  0.14758
       5     H     0.41447  0.41447  0.00000  0.17106
       6     C     2.91020  2.91020  0.00000  0.17961
       7     C     3.24978  3.24978  0.00000 -0.49955
       8     C     3.25359  3.25359  0.00000 -0.50718
       9     H     0.41548  0.41548  0.00000  0.16905
      10     H     0.41134  0.41134  0.00000  0.17732
      11     H     0.42067  0.42067  0.00000  0.15866
      12     H     0.42201  0.42201  0.00000  0.15598
      13     H     0.41173  0.41173  0.00000  0.17654
      14     H     0.41884  0.41884  0.00000  0.16231
      15     H     0.42153  0.42153  0.00000  0.15694

   Total alpha = 21.00000, Total beta = 21.00000, Total charge =  0.00000
