  ==> Input File <==

--------------------------------------------------------------------------
set {
	reference rhf
	basis 6-31G*
}

set_num_threads( 4 )
memory 2 gb

molecule MOL {
0 1

H	 1.063838	 1.816895	 0.337958
O	 0.241470	 1.337168	 0.355376
C	 0.489431	 0.077273	 0.000046
C	 -0.764129	 -0.759190	 0.000191
O	 1.581281	 -0.299977	 -0.275837
C	 -2.038368	 0.075731	 -0.000248
H	 -0.717284	 -1.412404	 -0.866059
H	 -0.717458	 -1.411724	 0.866967
H	 -2.086483	 0.712501	 -0.875098
H	 -2.908485	 -0.571682	 -0.000042
H	 -2.086576	 0.713280	 0.874068

	symmetry c1
}
set optking {
	frozen_dihedral = ("
		2 3 4 7
	")
}

ee = optimize('scf')
oeprop('DIPOLE', 'QUADRUPOLE', 'MULLIKEN_CHARGES')
f=open( 'psi4out.xyz', 'w' )
f.write( "11  " )
f.write( str(ee) + "\n" )
f.write( MOL.save_string_xyz() )
f.close()
--------------------------------------------------------------------------

    Molecular point group: c1
  Charge       = 0
  Multiplicity = 1
  Basis Set: 6-31G*
  Basis Set:
  @DF-RHF Final Energy:  -266.84248525598446
    Total Energy =                       -266.8424852559845704
    Molecular point group: c1
  Basis Set: 6-31G*
  Basis Set:
  Basis Set: 6-31G*
  Basis Set:
  @DF-RHF Final Energy:  -266.84323005282539
    Total Energy =                       -266.8432300528253336
  Basis Set: 6-31G*
  Basis Set:
  Basis Set: 6-31G*
  Basis Set:
  @DF-RHF Final Energy:  -266.84307577820221
    Total Energy =                       -266.8430757782024898
  Basis Set: 6-31G*
  Basis Set:
  Basis Set: 6-31G*
  Basis Set:
  @DF-RHF Final Energy:  -266.84352068478108
    Total Energy =                       -266.8435206847810264
  Basis Set: 6-31G*
  Basis Set:
  Basis Set: 6-31G*
  Basis Set:
  @DF-RHF Final Energy:  -266.84352938730007
    Total Energy =                       -266.8435293872998386
  Basis Set: 6-31G*
  Basis Set:
  Charge       = 0
  Multiplicity = 1
  Basis Set: 6-31G*
  Basis Set:

    Orbital Energies (a.u.)
    -----------------------

    Doubly Occupied:

       1A    -20.616310     2A    -20.548141     3A    -11.382478
       4A    -11.244580     5A    -11.224670     6A     -1.476653
       7A     -1.365304     8A     -1.066327     9A     -0.909103
      10A     -0.823642    11A     -0.701721    12A     -0.675037
      13A     -0.659780    14A     -0.597217    15A     -0.586774
      16A     -0.553676    17A     -0.523979    18A     -0.515862
      19A     -0.471114    20A     -0.440082

  @DF-RHF Final Energy:  -266.84353264134523

   => Energetics <=

    Nuclear Repulsion Energy =            180.0526306460959063
    One-Electron Energy =                -721.0274275325928102
    Two-Electron Energy =                 274.1312642451516126
    DFT Exchange-Correlation Energy =       0.0000000000000000
    Empirical Dispersion Energy =           0.0000000000000000
    PCM Polarization Energy =               0.0000000000000000
    EFP Energy =                            0.0000000000000000
    Total Energy =                       -266.8435326413453481
    Molecular point group: c1
  Basis Set: 6-31G*
  Basis Set:

  -Total Gradient:
     Atom            X                  Y                   Z
    ------   -----------------  -----------------  -----------------
       1       -0.000002546582    -0.000016984877    -0.000001519200
       2       -0.000102319974     0.000201534994    -0.000451673380
       3        0.000147130722    -0.000218028269     0.000532164208
       4        0.000311053421    -0.000429742748     0.000226390211
       5       -0.000044129730     0.000041832529     0.000016108993
       6       -0.000033138300     0.000003019708     0.000002113654
       7       -0.000262798366     0.000415223895    -0.000320507406
       8       -0.000003298306     0.000007627469    -0.000000936536
       9        0.000003333646    -0.000004116739     0.000005383014
      10       -0.000014169765     0.000003315993     0.000001191894
      11        0.000000883235    -0.000003681954    -0.000008715452

  **** Optimization is complete! (in 6 steps) ****
    Final optimized geometry and variables:
    Molecular point group: c1

    Geometry (in Angstrom), charge = 0, multiplicity = 1:

    H            1.239298570143     1.672096940249     0.307363295208
    O            0.389256714691     1.242417346173     0.316574625701
    C            0.573140765966    -0.030793249990    -0.021507867735
    C           -0.694236736481    -0.853205288480    -0.025440189211
    O            1.649273496971    -0.466003590813    -0.276747795127
    C           -2.004634165760    -0.069813175628    -0.022292282266
    H           -0.628617510015    -1.503113704185    -0.889975000985
    H           -0.634635858015    -1.500657300497     0.845176036202
    H           -2.079314872921     0.578610217235    -0.887793870161
    H           -2.842330472090    -0.758330226218    -0.045756052761
    H           -2.096649080709     0.546017022542     0.863337746658

  Mulliken Charges: (a.u.)
   Center  Symbol    Alpha    Beta     Spin     Total
       1     H     0.26716  0.26716  0.00000  0.46568
       2     O     4.34801  4.34801  0.00000 -0.69603
       3     C     2.62404  2.62404  0.00000  0.75192
       4     C     3.21068  3.21068  0.00000 -0.42136
       5     O     4.28186  4.28186  0.00000 -0.56372
       6     C     3.24078  3.24078  0.00000 -0.48155
       7     H     0.39498  0.39498  0.00000  0.21004
       8     H     0.39630  0.39630  0.00000  0.20740
       9     H     0.41268  0.41268  0.00000  0.17463
      10     H     0.41522  0.41522  0.00000  0.16956
      11     H     0.40828  0.40828  0.00000  0.18344

   Total alpha = 20.00000, Total beta = 20.00000, Total charge = -0.00000
