  ==> Input File <==

--------------------------------------------------------------------------
set {
	reference rhf
	basis 6-31G*
}

set_num_threads( 4 )
memory 2 gb

molecule MOL {
0 1

H	 0.393942	 2.775193	 1.810357
C	 0.011128	 1.870232	 2.298334
C	 -1.280572	 1.338422	 1.731502
O	 0.606307	 1.382672	 3.203761
C	 -1.220012	 1.144545	 0.209990
H	 -1.522959	 0.413478	 2.241832
H	 -2.057121	 2.064405	 1.969358
C	 -0.252658	 0.041456	 -0.226725
H	 -2.218629	 0.910709	 -0.146899
H	 -0.942140	 2.085066	 -0.263258
C	 1.180775	 0.282413	 0.250794
H	 -0.266029	 -0.034465	 -1.312038
H	 -0.597733	 -0.921000	 0.146291
C	 2.148627	 -0.814315	 -0.201312
H	 1.516199	 1.249228	 -0.115937
H	 1.192670	 0.346017	 1.338083
C	 3.580890	 -0.659131	 0.322722
H	 2.166869	 -0.852443	 -1.289387
H	 1.762857	 -1.776509	 0.128956
C	 4.324889	 0.564933	 -0.213704
H	 4.142010	 -1.551473	 0.056605
H	 3.564836	 -0.624694	 1.410140
H	 4.342616	 0.565491	 -1.300421
H	 3.866655	 1.493402	 0.110242
H	 5.353900	 0.572371	 0.132816

	symmetry c1
}
set optking {
	frozen_dihedral = ("
		3 5 8 12
	")
}

ee = optimize('scf')
oeprop('DIPOLE', 'QUADRUPOLE', 'MULLIKEN_CHARGES')
f=open( 'psi4out.xyz', 'w' )
f.write( "25  " )
f.write( str(ee) + "\n" )
f.write( MOL.save_string_xyz() )
f.close()
--------------------------------------------------------------------------

    Molecular point group: c1
  Charge       = 0
  Multiplicity = 1
  Basis Set: 6-31G*
  Basis Set:
  @DF-RHF Final Energy:  -387.11137693639222
    Total Energy =                       -387.1113769363919346
    Molecular point group: c1
  Basis Set: 6-31G*
  Basis Set:
  Basis Set: 6-31G*
  Basis Set:
  @DF-RHF Final Energy:  -387.11676579126248
    Total Energy =                       -387.1167657912619688
  Basis Set: 6-31G*
  Basis Set:
  Basis Set: 6-31G*
  Basis Set:
  @DF-RHF Final Energy:  -387.11701240829541
    Total Energy =                       -387.1170124082954089
  Basis Set: 6-31G*
  Basis Set:
  Basis Set: 6-31G*
  Basis Set:
  @DF-RHF Final Energy:  -387.11857033801431
    Total Energy =                       -387.1185703380142513
  Basis Set: 6-31G*
  Basis Set:
  @DF-RHF Final Energy:  -387.11905851007538
    Total Energy =                       -387.1190585100750923
  @DF-RHF Final Energy:  -387.11924263891257
    Total Energy =                       -387.1192426389125103
  @DF-RHF Final Energy:  -387.11928293421050
    Total Energy =                       -387.1192829342095365
  @DF-RHF Final Energy:  -387.11928209422689
    Total Energy =                       -387.1192820942268327
  Basis Set: 6-31G*
  Basis Set:
  @DF-RHF Final Energy:  -387.11928668397439
    Total Energy =                       -387.1192866839747921
  Basis Set: 6-31G*
  Basis Set:
  Basis Set: 6-31G*
  Basis Set:
  @DF-RHF Final Energy:  -387.11931046241875
    Total Energy =                       -387.1193104624188663
  Basis Set: 6-31G*
  Basis Set:
  Basis Set: 6-31G*
  Basis Set:
  @DF-RHF Final Energy:  -387.11931258359238
    Total Energy =                       -387.1193125835920910
  Basis Set: 6-31G*
  Basis Set:
  Charge       = 0
  Multiplicity = 1
  Basis Set: 6-31G*
  Basis Set:

    Orbital Energies (a.u.)
    -----------------------

    Doubly Occupied:

       1A    -20.561025     2A    -11.327035     3A    -11.235684
       4A    -11.235063     5A    -11.223935     6A    -11.217437
       7A    -11.215970     8A    -11.214893     9A    -11.207695
      10A     -1.401788    11A     -1.102652    12A     -1.066673
      13A     -1.009712    14A     -0.944760    15A     -0.880184
      16A     -0.812344    17A     -0.788610    18A     -0.779413
      19A     -0.662610    20A     -0.655210    21A     -0.638789
      22A     -0.624551    23A     -0.609449    24A     -0.585607
      25A     -0.562309    26A     -0.558864    27A     -0.538034
      28A     -0.524065    29A     -0.507923    30A     -0.503880
      31A     -0.483181    32A     -0.472151    33A     -0.460550
      34A     -0.454714    35A     -0.442520    36A     -0.409215

  @DF-RHF Final Energy:  -387.11931353500290

   => Energetics <=

    Nuclear Repulsion Energy =            454.4469359145153931
    One-Electron Energy =               -1425.2955047935665789
    Two-Electron Energy =                 583.7292553440477150
    DFT Exchange-Correlation Energy =       0.0000000000000000
    Empirical Dispersion Energy =           0.0000000000000000
    PCM Polarization Energy =               0.0000000000000000
    EFP Energy =                            0.0000000000000000
    Total Energy =                       -387.1193135350034709
    Molecular point group: c1
  Basis Set: 6-31G*
  Basis Set:

  -Total Gradient:
     Atom            X                  Y                   Z
    ------   -----------------  -----------------  -----------------
       1       -0.000000086153     0.000012095406    -0.000006367449
       2       -0.000014294302    -0.000003068212     0.000008873941
       3        0.000915600535     0.000856843810    -0.000036335371
       4        0.000030684955    -0.000000472095     0.000032798480
       5       -0.001105394911    -0.001024196349     0.000028788279
       6       -0.000001887586     0.000007757531     0.000002199088
       7       -0.000003605171     0.000004515014     0.000001579320
       8       -0.001108077340    -0.001008901129     0.000075134967
       9       -0.000000819889     0.000004785799    -0.000007084033
      10        0.000008397041    -0.000017678540    -0.000008313447
      11        0.000008248565     0.000045286270    -0.000052148330
      12        0.001254191145     0.001141610203    -0.000041834215
      13       -0.000040216127     0.000007824713    -0.000006608208
      14        0.000005001905    -0.000026921967     0.000047279415
      15        0.000028151974     0.000025492376     0.000014652570
      16        0.000002098343    -0.000020829466    -0.000053425223
      17        0.000008197515    -0.000005689828    -0.000020612885
      18       -0.000008616790     0.000016591697     0.000021039382
      19       -0.000004693399    -0.000011398116    -0.000006099636
      20        0.000005255164    -0.000005918187     0.000008248025
      21        0.000023596587     0.000004066786     0.000003305796
      22       -0.000004535703     0.000003146324    -0.000009290303
      23       -0.000007167994    -0.000004882931     0.000005354876
      24        0.000002266141    -0.000003213012     0.000001952584
      25        0.000007705499     0.000003153902    -0.000003087628

  **** Optimization is complete! (in 12 steps) ****
    Final optimized geometry and variables:
    Molecular point group: c1

    Geometry (in Angstrom), charge = 0, multiplicity = 1:

    H           -0.966420127238     2.447910649271     0.954158652024
    C           -1.226110858590     1.544904458885     1.519932841570
    C           -2.316273643414     0.698614587829     0.910657606831
    O           -0.686027814647     1.310319894282     2.552165473102
    C           -2.186338823140     0.474860938107    -0.604733500584
    H           -2.370893269872    -0.236670374098     1.456566235889
    H           -3.244096147257     1.237526837843     1.102561121242
    C           -1.204634479230    -0.623837381447    -1.031700053412
    H           -3.167257518736     0.223787786007    -0.995828967360
    H           -1.908243043242     1.414353230835    -1.080632068513
    C            0.244383667414    -0.430055729829    -0.573525379874
    H           -1.214435846899    -0.671435428412    -2.118395552317
    H           -1.569061143752    -1.585052882602    -0.675328308094
    C            1.182304572993    -1.490476361518    -1.158434806540
    H            0.581143230935     0.562029221535    -0.867028977563
    H            0.304061356083    -0.469967752694     0.510537834950
    C            2.626752479378    -1.416381957732    -0.650858161986
    H            1.179156996259    -1.414519771204    -2.244706838785
    H            0.783581800959    -2.474971527849    -0.922019796094
    C            3.379403567012    -0.148921879246    -1.059628958245
    H            3.167705238566    -2.280552889963    -1.028651961586
    H            2.631436248148    -1.505266843564     0.433234082930
    H            3.375804450718    -0.023409277024    -2.139280717708
    H            2.943128565698     0.741907642810    -0.620251383943
    H            4.414848490162    -0.195504949892    -0.736911230844

  Mulliken Charges: (a.u.)
   Center  Symbol    Alpha    Beta     Spin     Total
       1     H     0.43164  0.43164  0.00000  0.13672
       2     C     2.82791  2.82791  0.00000  0.34418
       3     C     3.20970  3.20970  0.00000 -0.41940
       4     O     4.24177  4.24177  0.00000 -0.48355
       5     C     3.16693  3.16693  0.00000 -0.33386
       6     H     0.39911  0.39911  0.00000  0.20178
       7     H     0.40465  0.40465  0.00000  0.19070
       8     C     3.15013  3.15013  0.00000 -0.30027
       9     H     0.41226  0.41226  0.00000  0.17548
      10     H     0.42002  0.42002  0.00000  0.15995
      11     C     3.16724  3.16724  0.00000 -0.33448
      12     H     0.41939  0.41939  0.00000  0.16123
      13     H     0.42004  0.42004  0.00000  0.15993
      14     C     3.15187  3.15187  0.00000 -0.30373
      15     H     0.42311  0.42311  0.00000  0.15377
      16     H     0.41179  0.41179  0.00000  0.17641
      17     C     3.15296  3.15296  0.00000 -0.30593
      18     H     0.42451  0.42451  0.00000  0.15098
      19     H     0.42160  0.42160  0.00000  0.15679
      20     C     3.24147  3.24147  0.00000 -0.48294
      21     H     0.42103  0.42103  0.00000  0.15794
      22     H     0.41993  0.41993  0.00000  0.16013
      23     H     0.42335  0.42335  0.00000  0.15331
      24     H     0.41922  0.41922  0.00000  0.16155
      25     H     0.41835  0.41835  0.00000  0.16330

   Total alpha = 36.00000, Total beta = 36.00000, Total charge =  0.00000
