  ==> Input File <==

--------------------------------------------------------------------------
set {
	reference rhf
	basis cc-pvtz
}

set_num_threads( 4 )
memory 2 gb

molecule MOL {
0 1

H	 0.497191	 1.299808	 -0.989213
O	 0.057669	 1.301365	 -0.158528
C	 0.004145	 -0.005141	 0.363049
C	 1.199168	 -0.827145	 -0.096690
C	 -1.316386	 -0.602081	 -0.083515
H	 0.012026	 0.043363	 1.450619
H	 1.216685	 -0.896776	 -1.178167
H	 2.129940	 -0.372354	 0.228035
H	 1.160783	 -1.829622	 0.314294
H	 -1.357882	 -0.655920	 -1.165207
H	 -2.140147	 0.011735	 0.257253
H	 -1.440790	 -1.601175	 0.317669

	symmetry c1
}
set optking {
	frozen_dihedral = ("
		1 2 3 4
	")
}

ee = optimize('scf')
oeprop('DIPOLE', 'QUADRUPOLE', 'MULLIKEN_CHARGES')
f=open( 'psi4out.xyz', 'w' )
f.write( "12  " )
f.write( str(ee) + "\n" )
f.write( MOL.save_string_xyz() )
f.close()
--------------------------------------------------------------------------

    Molecular point group: c1
  Charge       = 0
  Multiplicity = 1
  Basis Set: CC-PVTZ
  Basis Set:
  @DF-RHF Final Energy:  -193.19330764052356
    Total Energy =                       -193.1933076405236704
    Molecular point group: c1
  Basis Set: CC-PVTZ
  Basis Set:
  Basis Set: CC-PVTZ
  Basis Set:
  @DF-RHF Final Energy:  -193.19428587414868
    Total Energy =                       -193.1942858741486475
  Basis Set: CC-PVTZ
  Basis Set:
  Basis Set: CC-PVTZ
  Basis Set:
  @DF-RHF Final Energy:  -193.19457902113126
    Total Energy =                       -193.1945790211314034
  Basis Set: CC-PVTZ
  Basis Set:
  Basis Set: CC-PVTZ
  Basis Set:
  @DF-RHF Final Energy:  -193.19458055757974
    Total Energy =                       -193.1945805575797408
  Basis Set: CC-PVTZ
  Basis Set:
  Charge       = 0
  Multiplicity = 1
  Basis Set: CC-PVTZ
  Basis Set:

    Orbital Energies (a.u.)
    -----------------------

    Doubly Occupied:

       1A    -20.542852     2A    -11.274101     3A    -11.216121
       4A    -11.206244     5A     -1.363558     6A     -1.043582
       7A     -0.942492     8A     -0.818560     9A     -0.663445
      10A     -0.650061    11A     -0.606171    12A     -0.568365
      13A     -0.545588    14A     -0.517342    15A     -0.513242
      16A     -0.467211    17A     -0.432518

  @DF-RHF Final Energy:  -193.19458064471712

   => Energetics <=

    Nuclear Repulsion Energy =            135.6143284952346448
    One-Electron Energy =                -530.8749088665515501
    Two-Electron Energy =                 202.0659997265997845
    DFT Exchange-Correlation Energy =       0.0000000000000000
    Empirical Dispersion Energy =           0.0000000000000000
    PCM Polarization Energy =               0.0000000000000000
    EFP Energy =                            0.0000000000000000
    Total Energy =                       -193.1945806447171208
    Molecular point group: c1
  Basis Set: CC-PVTZ
  Basis Set:

  -Total Gradient:
     Atom            X                  Y                   Z
    ------   -----------------  -----------------  -----------------
       1        0.001345298981     0.000183938117     0.000777018633
       2       -0.001843892014    -0.000311570728    -0.001281253828
       3        0.000974142999     0.000382727293     0.001300142967
       4       -0.000482243103    -0.000239949483    -0.000804927928
       5       -0.000002096702     0.000003706476     0.000001227154
       6        0.000001968371    -0.000009026244    -0.000000950209
       7       -0.000001600061     0.000001249059     0.000008066060
       8       -0.000000571109    -0.000001521415    -0.000004796487
       9       -0.000000613747    -0.000006524917     0.000002604702
      10        0.000003522382     0.000002405537     0.000003700885
      11        0.000007741078     0.000000354304    -0.000001784579
      12       -0.000001657075    -0.000005787997     0.000000952632

  **** Optimization is complete! (in 5 steps) ****
    Final optimized geometry and variables:
    Molecular point group: c1

    Geometry (in Angstrom), charge = 0, multiplicity = 1:

    H            0.554085376150     1.355361576272    -0.926802258761
    O            0.088383483209     1.328499247110    -0.111260666812
    C            0.000173971851     0.003007467829     0.358996539630
    C            1.195745165513    -0.822126221818    -0.090385604315
    C           -1.321766187047    -0.617966622238    -0.067088454784
    H            0.015160547991     0.078041372912     1.440217613995
    H            1.214876865425    -0.911882421510    -1.173473860382
    H            2.121728396636    -0.360243158910     0.231047773828
    H            1.153419091108    -1.822789243709     0.322462580817
    H           -1.370591101418    -0.713012395649    -1.147296773687
    H           -2.146325742408     0.005692068852     0.253404385558
    H           -1.446624189408    -1.604285539463     0.366734409215

  Mulliken Charges: (a.u.)
   Center  Symbol    Alpha    Beta     Spin     Total
       1     H     0.39360  0.39360  0.00000  0.21281
       2     O     4.21041  4.21041  0.00000 -0.42081
       3     C     2.92388  2.92388  0.00000  0.15225
       4     C     3.15482  3.15482  0.00000 -0.30964
       5     C     3.13963  3.13963  0.00000 -0.27926
       6     H     0.45450  0.45450  0.00000  0.09100
       7     H     0.45995  0.45995  0.00000  0.08010
       8     H     0.44443  0.44443  0.00000  0.11113
       9     H     0.45255  0.45255  0.00000  0.09491
      10     H     0.46098  0.46098  0.00000  0.07805
      11     H     0.44625  0.44625  0.00000  0.10750
      12     H     0.45901  0.45901  0.00000  0.08197

   Total alpha = 17.00000, Total beta = 17.00000, Total charge = -0.00000
