  ==> Input File <==

--------------------------------------------------------------------------
set {
	reference rhf
	basis 6-31G*
}

set_num_threads( 4 )
memory 2 gb

molecule MOL {
0 1

O	 1.177956	 1.259443	 0.339951
C	 1.122059	 0.121804	 -0.000188
C	 -0.118227	 -0.590954	 -0.481394
O	 2.172624	 -0.688929	 0.000216
C	 -1.358597	 0.296985	 -0.501136
H	 0.097969	 -0.987278	 -1.469797
H	 -0.264058	 -1.456877	 0.158657
C	 -2.600140	 -0.449372	 -0.991938
H	 -1.172546	 1.158522	 -1.134889
H	 -1.534820	 0.688664	 0.495877
C	 -3.847832	 0.432557	 -1.013663
H	 -2.417908	 -0.840409	 -1.990916
H	 -2.780464	 -1.313045	 -0.355052
H	 -3.711465	 1.287587	 -1.669394
H	 -4.713201	 -0.120276	 -1.365498
H	 -4.076960	 0.811059	 -0.021758
C	 3.452279	 -0.082609	 0.000533
H	 3.583069	 0.529321	 -0.880332
H	 4.163299	 -0.894027	 0.001117
H	 3.582335	 0.529955	 0.881077

	symmetry c1
}
set optking {
	frozen_dihedral = ("
		1 2 4 17
	")
}

ee = optimize('scf')
oeprop('DIPOLE', 'QUADRUPOLE', 'MULLIKEN_CHARGES')
f=open( 'psi4out.xyz', 'w' )
f.write( "20  " )
f.write( str(ee) + "\n" )
f.write( MOL.save_string_xyz() )
f.close()
--------------------------------------------------------------------------

    Molecular point group: c1
  Charge       = 0
  Multiplicity = 1
  Basis Set: 6-31G*
  Basis Set:
  @DF-RHF Final Energy:  -383.93908806999508
    Total Energy =                       -383.9390880699950230
    Molecular point group: c1
  Basis Set: 6-31G*
  Basis Set:
  Basis Set: 6-31G*
  Basis Set:
  @DF-RHF Final Energy:  -383.93574329867465
    Total Energy =                       -383.9357432986746517
  Basis Set: 6-31G*
  Basis Set:
  Basis Set: 6-31G*
  Basis Set:
  @DF-RHF Final Energy:  -383.93931863611834
    Total Energy =                       -383.9393186361182870
  Basis Set: 6-31G*
  Basis Set:
  Basis Set: 6-31G*
  Basis Set:
  @DF-RHF Final Energy:  -383.93936889361487
    Total Energy =                       -383.9393688936150966
  Basis Set: 6-31G*
  Basis Set:
  @DF-RHF Final Energy:  -383.93937572961977
    Total Energy =                       -383.9393757296204512
  @DF-RHF Final Energy:  -383.93937857979796
    Total Energy =                       -383.9393785797981309
  @DF-RHF Final Energy:  -383.93938101392138
    Total Energy =                       -383.9393810139215475
  Basis Set: 6-31G*
  Basis Set:
  @DF-RHF Final Energy:  -383.93936894793308
    Total Energy =                       -383.9393689479330760
  Basis Set: 6-31G*
  Basis Set:
  Basis Set: 6-31G*
  Basis Set:
  @DF-RHF Final Energy:  -383.93937910041234
    Total Energy =                       -383.9393791004127934
  Basis Set: 6-31G*
  Basis Set:
  Basis Set: 6-31G*
  Basis Set:
  @DF-RHF Final Energy:  -383.93938046584719
    Total Energy =                       -383.9393804658470799
  Basis Set: 6-31G*
  Basis Set:
  Charge       = 0
  Multiplicity = 1
  Basis Set: 6-31G*
  Basis Set:

    Orbital Energies (a.u.)
    -----------------------

    Doubly Occupied:

       1A    -20.601733     2A    -20.546615     3A    -11.372736
       4A    -11.281930     5A    -11.235897     6A    -11.220460
       7A    -11.219472     8A    -11.210753     9A     -1.468081
      10A     -1.363263    11A     -1.088813    12A     -1.024009
      13A     -0.969131    14A     -0.886641    15A     -0.804271
      16A     -0.767383    17A     -0.696543    18A     -0.682673
      19A     -0.672110    20A     -0.645845    21A     -0.598875
      22A     -0.592356    23A     -0.579369    24A     -0.541701
      25A     -0.535916    26A     -0.522227    27A     -0.501214
      28A     -0.478499    29A     -0.473926    30A     -0.470470
      31A     -0.455127    32A     -0.436415

  @DF-RHF Final Energy:  -383.93938088637066

   => Energetics <=

    Nuclear Repulsion Energy =            380.9320399759942006
    One-Electron Energy =               -1277.8539333603721388
    Two-Electron Energy =                 512.9825124980068267
    DFT Exchange-Correlation Energy =       0.0000000000000000
    Empirical Dispersion Energy =           0.0000000000000000
    PCM Polarization Energy =               0.0000000000000000
    EFP Energy =                            0.0000000000000000
    Total Energy =                       -383.9393808863710547
    Molecular point group: c1
  Basis Set: 6-31G*
  Basis Set:

  -Total Gradient:
     Atom            X                  Y                   Z
    ------   -----------------  -----------------  -----------------
       1       -0.001571573583    -0.001511306605     0.006174499772
       2        0.002544695680     0.002012510889    -0.011763213306
       3        0.000014027973    -0.000020967114     0.000103557326
       4       -0.001275912529    -0.000053021165     0.010649411689
       5        0.000019735874    -0.000034868801    -0.000019529273
       6        0.000002706877    -0.000020173326    -0.000025526060
       7       -0.000013606955    -0.000024824160    -0.000020852324
       8        0.000005221398     0.000003400213    -0.000016001376
       9       -0.000004695135    -0.000004989631     0.000006990298
      10       -0.000000059581     0.000008439682     0.000011718198
      11        0.000004264283    -0.000000878692     0.000010182793
      12       -0.000002797295    -0.000002608965    -0.000005132661
      13        0.000003367280     0.000002675007    -0.000002513586
      14        0.000001042377    -0.000002737531    -0.000000658983
      15        0.000001650631    -0.000002514977     0.000003371439
      16       -0.000001956511     0.000003858428     0.000001316688
      17        0.000261018048    -0.000404114105    -0.005288126712
      18       -0.000020912738     0.000003094042     0.000076826679
      19        0.000002616086    -0.000006573195     0.000038156065
      20        0.000031167815     0.000055600008     0.000065523333

  **** Optimization is complete! (in 11 steps) ****
    Final optimized geometry and variables:
    Molecular point group: c1

    Geometry (in Angstrom), charge = 0, multiplicity = 1:

    O            1.168478012882     1.258538773370     0.516248791790
    C            1.097818011927     0.101257078201     0.257468381393
    C           -0.148376472265    -0.624431809302    -0.186362888388
    O            2.124243251870    -0.734805314155     0.382622415394
    C           -1.398369619143     0.249797390108    -0.173452476479
    H            0.045879298942    -1.015112801168    -1.182440537612
    H           -0.265883055375    -1.494258357069     0.453347340890
    C           -2.642897793543    -0.507537893206    -0.639157752534
    H           -1.236021309589     1.116585949480    -0.806122455134
    H           -1.556160229949     0.634066317049     0.829876781652
    C           -3.900316991370     0.360619786593    -0.626450782183
    H           -2.479859602718    -0.890776989428    -1.644499224624
    H           -2.798737527572    -1.376767630995    -0.003442243200
    H           -3.788834938231     1.220596938165    -1.280409940070
    H           -4.767674078640    -0.199892829952    -0.960816517934
    H           -4.110038974088     0.731231783821     0.372711358659
    C            3.419141648560    -0.162402856952     0.417555784618
    H            3.581419144180     0.455958354632    -0.454405158952
    H            4.109665776072    -0.991354117769     0.419400967776
    H            3.551482919993     0.435782208144     1.307308084451

  Mulliken Charges: (a.u.)
   Center  Symbol    Alpha    Beta     Spin     Total
       1     O     4.28299  4.28299  0.00000 -0.56597
       2     C     2.60506  2.60506  0.00000  0.78989
       3     C     3.20917  3.20917  0.00000 -0.41834
       4     O     4.30823  4.30823  0.00000 -0.61646
       5     C     3.15134  3.15134  0.00000 -0.30268
       6     H     0.40207  0.40207  0.00000  0.19586
       7     H     0.39950  0.39950  0.00000  0.20101
       8     C     3.15421  3.15421  0.00000 -0.30841
       9     H     0.41105  0.41105  0.00000  0.17790
      10     H     0.41274  0.41274  0.00000  0.17452
      11     C     3.23932  3.23932  0.00000 -0.47863
      12     H     0.42311  0.42311  0.00000  0.15377
      13     H     0.42278  0.42278  0.00000  0.15444
      14     H     0.41995  0.41995  0.00000  0.16009
      15     H     0.41873  0.41873  0.00000  0.16255
      16     H     0.41993  0.41993  0.00000  0.16013
      17     C     3.09272  3.09272  0.00000 -0.18544
      18     H     0.41275  0.41275  0.00000  0.17449
      19     H     0.40799  0.40799  0.00000  0.18401
      20     H     0.40636  0.40636  0.00000  0.18727

   Total alpha = 32.00000, Total beta = 32.00000, Total charge =  0.00000
