  ==> Input File <==

--------------------------------------------------------------------------
set {
	reference rhf
	basis 6-31G*
}

set_num_threads( 4 )
memory 2 gb

molecule MOL {
0 1

H	 0.921390	 1.071005	 -1.900496
O	 1.196311	 1.439145	 -1.071795
C	 0.709265	 0.639550	 -0.033818
C	 -0.793441	 0.596080	 0.058728
H	 1.118757	 1.050358	 0.882018
H	 1.091521	 -0.377331	 -0.116636
C	 -1.530462	 -0.493172	 -0.025500
H	 -1.268471	 1.554324	 0.202247
H	 -1.092586	 -1.461565	 -0.186463
H	 -2.602122	 -0.450675	 0.050101

	symmetry c1
}
set optking {
	frozen_dihedral = ("
		5 3 4 7
	")
}

ee = optimize('scf')
oeprop('DIPOLE', 'QUADRUPOLE', 'MULLIKEN_CHARGES')
f=open( 'psi4out.xyz', 'w' )
f.write( "10  " )
f.write( str(ee) + "\n" )
f.write( MOL.save_string_xyz() )
f.close()
--------------------------------------------------------------------------

    Molecular point group: c1
  Charge       = 0
  Multiplicity = 1
  Basis Set: 6-31G*
  Basis Set:
  @DF-RHF Final Energy:  -191.91712197946438
    Total Energy =                       -191.9171219794643548
    Molecular point group: c1
  Basis Set: 6-31G*
  Basis Set:
  Basis Set: 6-31G*
  Basis Set:
  @DF-RHF Final Energy:  -191.91752306784423
    Total Energy =                       -191.9175230678442574
  Basis Set: 6-31G*
  Basis Set:
  Basis Set: 6-31G*
  Basis Set:
  @DF-RHF Final Energy:  -191.91757314544628
    Total Energy =                       -191.9175731454462550
  Basis Set: 6-31G*
  Basis Set:
  Basis Set: 6-31G*
  Basis Set:
  @DF-RHF Final Energy:  -191.91757728864593
    Total Energy =                       -191.9175772886459015
  Basis Set: 6-31G*
  Basis Set:
  Charge       = 0
  Multiplicity = 1
  Basis Set: 6-31G*
  Basis Set:

    Orbital Energies (a.u.)
    -----------------------

    Doubly Occupied:

       1A    -20.557081     2A    -11.276051     3A    -11.232190
       4A    -11.228456     5A     -1.364115     6A     -1.064355
       7A     -0.921625     8A     -0.776077     9A     -0.703189
      10A     -0.622654    11A     -0.615678    12A     -0.604415
      13A     -0.528933    14A     -0.489163    15A     -0.444297
      16A     -0.374551

  @DF-RHF Final Energy:  -191.91757790300684

   => Energetics <=

    Nuclear Repulsion Energy =            117.5464309136457643
    One-Electron Energy =                -493.3223585509413169
    Two-Electron Energy =                 183.8583497342887654
    DFT Exchange-Correlation Energy =       0.0000000000000000
    Empirical Dispersion Energy =           0.0000000000000000
    PCM Polarization Energy =               0.0000000000000000
    EFP Energy =                            0.0000000000000000
    Total Energy =                       -191.9175779030068156
    Molecular point group: c1
  Basis Set: 6-31G*
  Basis Set:

  -Total Gradient:
     Atom            X                  Y                   Z
    ------   -----------------  -----------------  -----------------
       1        0.000013550093     0.000010830055     0.000054203297
       2        0.000021277774     0.000028247909    -0.000036924114
       3       -0.000003454411    -0.000385080524    -0.000057989749
       4       -0.000027442553     0.000004390477     0.000460395251
       5       -0.000022020652     0.000289427791    -0.000158761265
       6        0.000008130833    -0.000010046666     0.000034385091
       7        0.000024887893     0.000051832869    -0.000282917283
       8       -0.000005331280    -0.000001816117     0.000001335588
       9       -0.000011147834     0.000016974559     0.000004585315
      10        0.000001550134    -0.000004760355    -0.000018312131

  **** Optimization is complete! (in 5 steps) ****
    Final optimized geometry and variables:
    Molecular point group: c1

    Geometry (in Angstrom), charge = 0, multiplicity = 1:

    H            0.885178763459     0.543600984862    -1.571913421941
    O            1.222638235549     0.865517283048    -0.747117367007
    C            0.751052163882     0.044141049643     0.290397424524
    C           -0.750741185486     0.030210214277     0.358042095854
    H            1.163200134198     0.464081490765     1.199579867615
    H            1.132542861033    -0.969614777304     0.192713774185
    C           -1.491022263108    -1.058285541669     0.281370411929
    H           -1.218408518840     0.996326427645     0.461502513422
    H           -1.052560971936    -2.035935336350     0.170506895557
    H           -2.564464428859    -1.019309280828     0.333817582911

  Mulliken Charges: (a.u.)
   Center  Symbol    Alpha    Beta     Spin     Total
       1     H     0.28198  0.28198  0.00000  0.43604
       2     O     4.36807  4.36807  0.00000 -0.73615
       3     C     3.00914  3.00914  0.00000 -0.01828
       4     C     3.08406  3.08406  0.00000 -0.16812
       5     H     0.41086  0.41086  0.00000  0.17828
       6     H     0.42476  0.42476  0.00000  0.15048
       7     C     3.19751  3.19751  0.00000 -0.39502
       8     H     0.40309  0.40309  0.00000  0.19381
       9     H     0.41211  0.41211  0.00000  0.17577
      10     H     0.40841  0.40841  0.00000  0.18317

   Total alpha = 16.00000, Total beta = 16.00000, Total charge = -0.00000
