                              Psi4 1.0.54 Driver

  ==> Input File <==

--------------------------------------------------------------------------
set {
	reference rhf
	basis cc-pvtz
}

set_num_threads( 4 )
memory 2 gb

molecule MOL {
0 1

H	 -4.340537	 -0.784487	 0.000000
O	 -3.958786	 0.074640	 0.000000
C	 -2.613554	 0.009900	 0.000000
C	 -1.935498	 0.767391	 -0.940544
C	 -1.905907	 -0.773159	 0.891594
H	 -2.494609	 1.371226	 -1.627304
C	 -0.559316	 0.738689	 -0.985216
H	 -2.424906	 -1.363570	 1.624139
C	 -0.523946	 -0.800835	 0.845371
H	 -0.036613	 1.325340	 -1.713495
C	 0.143757	 -0.046188	 -0.091194
H	 0.020608	 -1.409488	 1.538700
Br	 2.040663	 -0.082264	 -0.156919

	symmetry c1
}
set optking {
	frozen_dihedral = ("
		4 3 2 1
	")
}

ee,wfn = optimize('scf', return_wfn=True)
oeprop( wfn, 'DIPOLE', 'QUADRUPOLE', 'MULLIKEN_CHARGES')
f=open( 'psi4out.xyz', 'w' )
f.write( "13  " )
f.write( str(ee) + "\n" )
f.write( MOL.save_string_xyz() )
f.close()
--------------------------------------------------------------------------

    Molecular point group: c1
  Charge       = 0
  Multiplicity = 1
  Basis Set: CC-PVTZ
  Basis Set:
  @DF-RHF Final Energy: -2877.54411540966703
    Total Energy =                      -2877.5441154096679384
    Molecular point group: c1
  Basis Set: CC-PVTZ
  Basis Set:
  Basis Set: CC-PVTZ
  Basis Set:
  @DF-RHF Final Energy: -2877.54432725037623
    Total Energy =                      -2877.5443272503789558
  Basis Set: CC-PVTZ
  Basis Set:
  Basis Set: CC-PVTZ
  Basis Set:
  @DF-RHF Final Energy: -2877.54435379080587
    Total Energy =                      -2877.5443537908081453
  Basis Set: CC-PVTZ
  Basis Set:
  Charge       = 0
  Multiplicity = 1
  Basis Set: CC-PVTZ
  Basis Set:

    Orbital Energies (a.u.)
    -----------------------

    Doubly Occupied:

       1A   -490.019988     2A    -65.160318     3A    -58.515542
       4A    -58.514176     5A    -58.514165     6A    -20.587958
       7A    -11.306515     8A    -11.291595     9A    -11.253101
      10A    -11.251880    11A    -11.242961    12A    -11.239523
      13A     -9.834119    14A     -7.445741    15A     -7.438968
      16A     -7.438927    17A     -3.189432    18A     -3.185883
      19A     -3.185758    20A     -3.177114    21A     -3.177110
      22A     -1.417236    23A     -1.180508    24A     -1.067402
      25A     -1.042024    26A     -0.970579    27A     -0.865067
      28A     -0.827119    29A     -0.755287    30A     -0.683848
      31A     -0.657549    32A     -0.643238    33A     -0.610408
      34A     -0.602718    35A     -0.558081    36A     -0.528988
      37A     -0.502775    38A     -0.498382    39A     -0.431601
      40A     -0.414929    41A     -0.359565    42A     -0.324456

  @DF-RHF Final Energy: -2877.54435672306545

   => Energetics <=

    Nuclear Repulsion Energy =            525.2991373675109799
    One-Electron Energy =               -5041.8619198053374930
    Two-Electron Energy =                1639.0184257147591325
    DFT Exchange-Correlation Energy =       0.0000000000000000
    Empirical Dispersion Energy =           0.0000000000000000
    PCM Polarization Energy =               0.0000000000000000
    EFP Energy =                            0.0000000000000000
    Total Energy =                      -2877.5443567230668123
    Molecular point group: c1
  Basis Set: CC-PVTZ
  Basis Set:

  -Total Gradient:
     Atom            X                  Y                   Z
    ------   -----------------  -----------------  -----------------
       1        0.000051192700     0.000001371998    -0.002499119743
       2       -0.000179224233    -0.000566947867     0.002520208106
       3        0.000394107651     0.001807206119     0.001212062650
       4        0.000096101813    -0.001376886993    -0.001204546953
       5       -0.000268724337     0.000185849688    -0.000026936622
       6       -0.000039105020     0.000019482998    -0.000033862968
       7       -0.000309263361     0.000201008885    -0.000098320338
       8        0.000013656935    -0.000004815735    -0.000010213158
       9        0.000339568975     0.000043178947    -0.000160503650
      10       -0.000018295573    -0.000028866099     0.000017483269
      11       -0.000002866678    -0.000296676104     0.000292959273
      12       -0.000022595614    -0.000006875599    -0.000000947263
      13       -0.000054554726     0.000022969756    -0.000008262653

  **** Optimization is complete! (in 4 steps) ****
    Final optimized geometry and variables:
    Molecular point group: c1

    Geometry (in Angstrom), charge = 0, multiplicity = 1:

    H           -4.340936419346    -0.747035103049     0.107631112180
    O           -3.964268234044     0.114907589137     0.107006028802
    C           -2.607844105913     0.049843218766     0.079860450992
    C           -1.930583306367     0.805185701806    -0.857901484885
    C           -1.903724117204    -0.733244044968     0.974287607169
    H           -2.489184197101     1.405911891247    -1.548048511691
    C           -0.551095876996     0.786759725939    -0.894651048089
    H           -2.431208249248    -1.310305293364     1.709898966838
    C           -0.522940381612    -0.765046775850     0.930091084302
    H           -0.025822973692     1.375523545707    -1.619149532203
    C            0.145709438370    -0.002288195889    -0.002428990507
    H            0.021957068148    -1.373872063438     1.622856192211
    BR           2.042510946081    -0.036462895600    -0.060036359497

  Mulliken Charges: (a.u.)
   Center  Symbol    Alpha    Beta     Spin     Total
       1     H     0.38456  0.38456  0.00000  0.23087
       2     O     4.18281  4.18281  0.00000 -0.36562
       3     C     2.87492  2.87492  0.00000  0.25016
       4     C     3.09130  3.09130  0.00000 -0.18261
       5     C     3.10668  3.10668  0.00000 -0.21336
       6     H     0.41341  0.41341  0.00000  0.17317
       7     C     3.08310  3.08310  0.00000 -0.16619
       8     H     0.42021  0.42021  0.00000  0.15957
       9     C     3.08696  3.08696  0.00000 -0.17392
      10     H     0.41030  0.41030  0.00000  0.17939
      11     C     2.97014  2.97014  0.00000  0.05972
      12     H     0.41041  0.41041  0.00000  0.17918
      13    BR    17.56519 17.56519  0.00000 -0.13038

   Total alpha = 42.00000, Total beta = 42.00000, Total charge =  0.00000

*** Psi4 exiting successfully. Buy a developer a beer!
