  ==> Input File <==

--------------------------------------------------------------------------
set {
	reference rhf
	basis 6-31G*
}

set_num_threads( 1 )
memory 2 gb

molecule MOL {
0 1

O	 -1.543250	 1.238399	 0.043922
C	 -1.083277	 0.139568	 0.115197
C	 0.323299	 -0.082943	 0.642902
C	 -1.859872	 -1.077507	 -0.335865
C	 1.355627	 -0.005344	 -0.493127
H	 0.396251	 -1.044647	 1.143147
H	 0.528637	 0.693580	 1.371677
C	 2.786168	 -0.195604	 0.007473
H	 1.132807	 -0.760304	 -1.243899
H	 1.259610	 0.958506	 -0.981915
H	 3.495561	 -0.130713	 -0.811210
H	 2.912696	 -1.165395	 0.480041
H	 3.049284	 0.565503	 0.735850
H	 -1.270906	 -1.677139	 -1.023781
H	 -2.781981	 -0.772780	 -0.810831
H	 -2.086409	 -1.704511	 0.522477

	symmetry c1
}
set optking {
	frozen_dihedral = ("
		9 5 3 2
	")
}

ee = energy('scf')
oeprop('DIPOLE', 'QUADRUPOLE', 'MULLIKEN_CHARGES')
f=open( 'psi4out.xyz', 'w' )
f.write( "16  " )
f.write( str(ee) + "\n" )
f.write( MOL.save_string_xyz() )
f.close()
--------------------------------------------------------------------------

    Molecular point group: c1

    Geometry (in Angstrom), charge = 0, multiplicity = 1:

       Center              X                  Y                   Z               Mass
    ------------   -----------------  -----------------  -----------------  -----------------
           O         -1.546348078305     1.237599627269     0.051843106476    15.994914619560
           C         -1.086375078305     0.138768627269     0.123118106476    12.000000000000
           C          0.320200921695    -0.083742372731     0.650823106476    12.000000000000
           C         -1.862970078305    -1.078306372731    -0.327943893524    12.000000000000
           C          1.352528921695    -0.006143372731    -0.485205893524    12.000000000000
           H          0.393152921695    -1.045446372731     1.151068106476     1.007825032070
           H          0.525538921695     0.692780627269     1.379598106476     1.007825032070
           C          2.783069921695    -0.196403372731     0.015394106476    12.000000000000
           H          1.129708921695    -0.761103372731    -1.235977893524     1.007825032070
           H          1.256511921695     0.957706627269    -0.973993893524     1.007825032070
           H          3.492462921695    -0.131512372731    -0.803288893524     1.007825032070
           H          2.909597921695    -1.166194372731     0.487962106476     1.007825032070
           H          3.046185921695     0.564703627269     0.743771106476     1.007825032070
           H         -1.274004078305    -1.677938372731    -1.015859893524     1.007825032070
           H         -2.785079078305    -0.773579372731    -0.802909893524     1.007825032070
           H         -2.089507078305    -1.705310372731     0.530398106476     1.007825032070

  Charge       = 0
  Multiplicity = 1
  Basis Set: 6-31G*
  Basis Set:

    Orbital Energies (a.u.)
    -----------------------

    Doubly Occupied:

       1A    -20.548104     2A    -11.324835     3A    -11.234129
       4A    -11.229808     5A    -11.228596     6A    -11.220012
       7A     -1.393660     8A     -1.083297     9A     -1.012844
      10A     -0.949767    11A     -0.829721    12A     -0.735555
      13A     -0.659651    14A     -0.648618    15A     -0.611300
      16A     -0.608457    17A     -0.576453    18A     -0.558010
      19A     -0.536338    20A     -0.518972    21A     -0.504432
      22A     -0.484968    23A     -0.471694    24A     -0.398178

  @DF-RHF Final Energy:  -270.03031102625874

   => Energetics <=

    Nuclear Repulsion Energy =            237.0911692923297096
    One-Electron Energy =                -835.5083130235032058
    Two-Electron Energy =                 328.3868327049144682
    DFT Exchange-Correlation Energy =       0.0000000000000000
    Empirical Dispersion Energy =           0.0000000000000000
    PCM Polarization Energy =               0.0000000000000000
    EFP Energy =                            0.0000000000000000
    Total Energy =                       -270.0303110262590280

  Mulliken Charges: (a.u.)
   Center  Symbol    Alpha    Beta     Spin     Total
       1     O     4.26115  4.26115  0.00000 -0.52230
       2     C     2.73791  2.73791  0.00000  0.52418
       3     C     3.19895  3.19895  0.00000 -0.39791
       4     C     3.28942  3.28942  0.00000 -0.57885
       5     C     3.16270  3.16270  0.00000 -0.32539
       6     H     0.41685  0.41685  0.00000  0.16629
       7     H     0.40076  0.40076  0.00000  0.19847
       8     C     3.23949  3.23949  0.00000 -0.47897
       9     H     0.41982  0.41982  0.00000  0.16035
      10     H     0.40661  0.40661  0.00000  0.18678
      11     H     0.41541  0.41541  0.00000  0.16917
      12     H     0.42055  0.42055  0.00000  0.15890
      13     H     0.41725  0.41725  0.00000  0.16551
      14     H     0.40958  0.40958  0.00000  0.18083
      15     H     0.39669  0.39669  0.00000  0.20662
      16     H     0.40685  0.40685  0.00000  0.18631

   Total alpha = 24.00000, Total beta = 24.00000, Total charge = -0.00000
