  ==> Input File <==

--------------------------------------------------------------------------
set {
	reference rhf
	basis 6-31G*
}

set_num_threads( 1 )
memory 2 gb

molecule MOL {
0 1

H	 3.873555	 0.282712	 0.269286
N	 3.092854	 -0.246221	 -0.068770
C	 1.865559	 0.531981	 0.018834
H	 3.029775	 -1.066881	 0.503391
C	 0.645745	 -0.382037	 -0.029944
H	 1.841966	 1.207024	 -0.831236
H	 1.815756	 1.155410	 0.915079
C	 -0.679275	 0.379305	 0.025956
H	 0.698998	 -0.976915	 -0.937203
H	 0.693479	 -1.083846	 0.802235
C	 -1.903357	 -0.536963	 -0.023547
H	 -0.726309	 1.082987	 -0.803784
H	 -0.717680	 0.977832	 0.934877
C	 -3.225172	 0.228290	 0.028445
H	 -1.867824	 -1.134999	 -0.931459
H	 -1.860449	 -1.239604	 0.805977
H	 -3.313397	 0.915643	 -0.808262
H	 -4.073500	 -0.448134	 -0.008893
H	 -3.306061	 0.809945	 0.942516

	symmetry c1
}
set optking {
	frozen_dihedral = ("
		6 3 5 9,
		12 8 5 9,
		12 8 11 15
	")
}

ee = energy('scf')
oeprop('DIPOLE', 'QUADRUPOLE', 'MULLIKEN_CHARGES')
f=open( 'psi4out.xyz', 'w' )
f.write( "19  " )
f.write( str(ee) + "\n" )
f.write( MOL.save_string_xyz() )
f.close()
--------------------------------------------------------------------------

    Molecular point group: c1

    Geometry (in Angstrom), charge = 0, multiplicity = 1:

       Center              X                  Y                   Z               Mass
    ------------   -----------------  -----------------  -----------------  -----------------
           H          3.875745885701     0.286339810231     0.267757592504     1.007825032070
           N          3.095044885701    -0.242593189769    -0.070298407496    14.003074004780
           C          1.867749885701     0.535608810231     0.017305592504    12.000000000000
           H          3.031965885701    -1.063253189769     0.501862592504     1.007825032070
           C          0.647935885701    -0.378409189769    -0.031472407496    12.000000000000
           H          1.844156885701     1.210651810231    -0.832764407496     1.007825032070
           H          1.817946885701     1.159037810231     0.913550592504     1.007825032070
           C         -0.677084114299     0.382932810231     0.024427592504    12.000000000000
           H          0.701188885701    -0.973287189769    -0.938731407496     1.007825032070
           H          0.695669885701    -1.080218189769     0.800706592504     1.007825032070
           C         -1.901166114299    -0.533335189769    -0.025075407496    12.000000000000
           H         -0.724118114299     1.086614810231    -0.805312407496     1.007825032070
           H         -0.715489114299     0.981459810231     0.933348592504     1.007825032070
           C         -3.222981114299     0.231917810231     0.026916592504    12.000000000000
           H         -1.865633114299    -1.131371189769    -0.932987407496     1.007825032070
           H         -1.858258114299    -1.235976189769     0.804448592504     1.007825032070
           H         -3.311206114299     0.919270810231    -0.809790407496     1.007825032070
           H         -4.071309114299    -0.444506189769    -0.010421407496     1.007825032070
           H         -3.303870114299     0.813572810231     0.940987592504     1.007825032070

  Charge       = 0
  Multiplicity = 1
  Basis Set: 6-31G*
  Basis Set:

    Orbital Energies (a.u.)
    -----------------------

    Doubly Occupied:

       1A    -15.531115     2A    -11.239143     3A    -11.215611
       4A    -11.214884     5A    -11.213646     6A    -11.208671
       7A     -1.176548     8A     -1.074612     9A     -0.999610
      10A     -0.900827    11A     -0.815618    12A     -0.792242
      13A     -0.656786    14A     -0.648497    15A     -0.616122
      16A     -0.593101    17A     -0.564792    18A     -0.544076
      19A     -0.537503    20A     -0.497671    21A     -0.485460
      22A     -0.467393    23A     -0.463313    24A     -0.448840
      25A     -0.380003

  @DF-RHF Final Energy:  -251.35034433073511

   => Energetics <=

    Nuclear Repulsion Energy =            245.8275659358996847
    One-Electron Energy =                -825.7836849305433589
    Two-Electron Energy =                 328.6057746639090738
    DFT Exchange-Correlation Energy =       0.0000000000000000
    Empirical Dispersion Energy =           0.0000000000000000
    PCM Polarization Energy =               0.0000000000000000
    EFP Energy =                            0.0000000000000000
    Total Energy =                       -251.3503443307346288

  Mulliken Charges: (a.u.)
   Center  Symbol    Alpha    Beta     Spin     Total
       1     H     0.33304  0.33304  0.00000  0.33393
       2     N     3.92422  3.92422  0.00000 -0.84845
       3     C     3.05265  3.05265  0.00000 -0.10530
       4     H     0.33531  0.33531  0.00000  0.32937
       5     C     3.16076  3.16076  0.00000 -0.32151
       6     H     0.41998  0.41998  0.00000  0.16004
       7     H     0.43468  0.43468  0.00000  0.13063
       8     C     3.15397  3.15397  0.00000 -0.30794
       9     H     0.41303  0.41303  0.00000  0.17394
      10     H     0.42765  0.42765  0.00000  0.14470
      11     C     3.15121  3.15121  0.00000 -0.30242
      12     H     0.42227  0.42227  0.00000  0.15545
      13     H     0.42402  0.42402  0.00000  0.15197
      14     C     3.23946  3.23946  0.00000 -0.47891
      15     H     0.42181  0.42181  0.00000  0.15639
      16     H     0.42333  0.42333  0.00000  0.15333
      17     H     0.42144  0.42144  0.00000  0.15712
      18     H     0.41912  0.41912  0.00000  0.16176
      19     H     0.42205  0.42205  0.00000  0.15590

   Total alpha = 25.00000, Total beta = 25.00000, Total charge =  0.00000
