  ==> Input File <==

--------------------------------------------------------------------------
set {
	reference rhf
	basis cc-pvtz
}

set_num_threads( 4 )
memory 2 gb

molecule MOL {
0 1

H	 -0.939693	 0.000281	 1.681345
O	 -0.046262	 -0.000157	 1.387678
C	 -0.000837	 0.000006	 -0.025491
C	 -0.909700	 -1.102025	 -0.566456
C	 -0.435535	 1.366792	 -0.550923
C	 1.453055	 -0.276997	 -0.382783
H	 -0.867867	 -1.150110	 -1.648460
H	 -1.942422	 -0.923086	 -0.282666
H	 -0.612274	 -2.063444	 -0.166862
H	 -0.376284	 1.409095	 -1.632351
H	 -1.461753	 1.579701	 -0.266987
H	 0.195910	 2.144721	 -0.140353
H	 1.589966	 -0.296493	 -1.457568
H	 1.762956	 -1.232020	 0.022314
H	 2.093767	 0.490236	 0.033217

	symmetry c1
}
set optking {
	frozen_dihedral = ("
		4 3 2 1
	")
}

ee = optimize('scf')
oeprop('DIPOLE', 'QUADRUPOLE', 'MULLIKEN_CHARGES')
f=open( 'psi4out.xyz', 'w' )
f.write( "15  " )
f.write( str(ee) + "\n" )
f.write( MOL.save_string_xyz() )
f.close()
--------------------------------------------------------------------------

    Molecular point group: c1
  Charge       = 0
  Multiplicity = 1
  Basis Set: CC-PVTZ
  Basis Set:
  @DF-RHF Final Energy:  -232.24663559061958
    Total Energy =                       -232.2466355906197464
    Molecular point group: c1
  Basis Set: CC-PVTZ
  Basis Set:
  Basis Set: CC-PVTZ
  Basis Set:
  @DF-RHF Final Energy:  -232.24664376369145
    Total Energy =                       -232.2466437636915089
  Basis Set: CC-PVTZ
  Basis Set:
  Basis Set: CC-PVTZ
  Basis Set:
  @DF-RHF Final Energy:  -232.24664681475448
    Total Energy =                       -232.2466468147546266
  Basis Set: CC-PVTZ
  Basis Set:
  Charge       = 0
  Multiplicity = 1
  Basis Set: CC-PVTZ
  Basis Set:

    Orbital Energies (a.u.)
    -----------------------

    Doubly Occupied:

       1A    -20.542089     2A    -11.280818     3A    -11.211175
       4A    -11.207490     5A    -11.203888     6A     -1.364850
       7A     -1.065242     8A     -0.942897     9A     -0.939700
      10A     -0.778517    11A     -0.672626    12A     -0.624419
      13A     -0.622726    14A     -0.576051    15A     -0.557500
      16A     -0.532941    17A     -0.517049    18A     -0.511364
      19A     -0.504487    20A     -0.459009    21A     -0.428436

  @DF-RHF Final Energy:  -232.24664728169350

   => Energetics <=

    Nuclear Repulsion Energy =            200.6719379787719220
    One-Electron Energy =                -712.7506294141408034
    Two-Electron Energy =                 279.8320441536752696
    DFT Exchange-Correlation Energy =       0.0000000000000000
    Empirical Dispersion Energy =           0.0000000000000000
    PCM Polarization Energy =               0.0000000000000000
    EFP Energy =                            0.0000000000000000
    Total Energy =                       -232.2466472816936403
    Molecular point group: c1
  Basis Set: CC-PVTZ
  Basis Set:

  -Total Gradient:
     Atom            X                  Y                   Z
    ------   -----------------  -----------------  -----------------
       1        0.000018478439    -0.000965773536    -0.000018581244
       2       -0.000133921697     0.001323820908    -0.000004500531
       3        0.000585491502    -0.000736905646     0.000018184673
       4       -0.000438929439     0.000370150743    -0.000019985127
       5       -0.000010725058     0.000015078155    -0.000013827704
       6       -0.000023493478    -0.000033731104     0.000030764800
       7       -0.000001800583     0.000005864606     0.000021187647
       8       -0.000008385873     0.000010787461    -0.000001734231
       9        0.000009682533    -0.000018305512    -0.000008219338
      10        0.000008810818     0.000019151303    -0.000024061981
      11        0.000029058639    -0.000011237746     0.000004581746
      12       -0.000018062643     0.000013360015     0.000002959251
      13       -0.000017547457     0.000014242800     0.000009542053
      14        0.000015418982    -0.000009771850     0.000000387120
      15       -0.000014074685     0.000003269401     0.000003302868

  **** Optimization is complete! (in 4 steps) ****
    Final optimized geometry and variables:
    Molecular point group: c1

    Geometry (in Angstrom), charge = 0, multiplicity = 1:

    H           -0.939080958376     0.011624190162     1.681776671450
    O           -0.045973576827     0.007294294752     1.387949153802
    C            0.000395144714     0.000414314516    -0.025403034393
    C           -0.910013986354    -1.100568966269    -0.564852052808
    C           -0.436492342382     1.366377262973    -0.552588196806
    C            1.454326369377    -0.274699753173    -0.383059180931
    H           -0.867407957112    -1.149183190604    -1.646500892371
    H           -1.943086260513    -0.918176726374    -0.283590353605
    H           -0.615440510989    -2.063329663053    -0.165622170730
    H           -0.378116346146     1.408521601905    -1.634313189610
    H           -1.461586227010     1.578197268010    -0.265552423801
    H            0.194557022820     2.144703497741    -0.142436700109
    H            1.594199724381    -0.277932765241    -1.457631883270
    H            1.762709688752    -1.235489866632     0.009353189155
    H            2.094386177636     0.486235779985     0.045416710224

  Mulliken Charges: (a.u.)
   Center  Symbol    Alpha    Beta     Spin     Total
       1     H     0.39549  0.39549  0.00000  0.20903
       2     O     4.21133  4.21133  0.00000 -0.42267
       3     C     2.87840  2.87840  0.00000  0.24320
       4     C     3.15219  3.15219  0.00000 -0.30439
       5     C     3.14839  3.14839  0.00000 -0.29678
       6     C     3.14282  3.14282  0.00000 -0.28564
       7     H     0.45450  0.45450  0.00000  0.09101
       8     H     0.45628  0.45628  0.00000  0.08744
       9     H     0.44591  0.44591  0.00000  0.10818
      10     H     0.45646  0.45646  0.00000  0.08708
      11     H     0.45546  0.45546  0.00000  0.08909
      12     H     0.44715  0.44715  0.00000  0.10571
      13     H     0.45877  0.45877  0.00000  0.08246
      14     H     0.44923  0.44923  0.00000  0.10155
      15     H     0.44764  0.44764  0.00000  0.10471

   Total alpha = 21.00000, Total beta = 21.00000, Total charge = -0.00000
