                              Psi4 1.0.54 Driver

  ==> Input File <==

--------------------------------------------------------------------------
set {
	reference rhf
	basis cc-pvtz
}

set_num_threads( 4 )
memory 2 gb

molecule MOL {
0 1

O	 -2.440701	 -0.934798	 -0.415053
C	 -1.922978	 0.063265	 -0.045005
C	 -2.632749	 1.372204	 0.158357
O	 -0.637375	 0.157174	 0.243149
H	 -2.187724	 2.129143	 -0.474664
H	 -3.677681	 1.257276	 -0.079438
H	 -2.516788	 1.693160	 1.185542
C	 0.162530	 -1.009518	 0.097799
C	 1.587210	 -0.664190	 0.477086
H	 0.096803	 -1.356267	 -0.924704
H	 -0.233803	 -1.785900	 0.736810
C	 2.378916	 -1.829457	 1.064552
H	 1.541831	 0.145692	 1.200114
H	 2.098774	 -0.273120	 -0.397103
C	 3.798157	 -1.436050	 1.460284
H	 1.854460	 -2.213295	 1.935594
H	 2.414618	 -2.639089	 0.344785
H	 4.335687	 -2.279476	 1.877513
H	 3.794656	 -0.645764	 2.203808
H	 4.358401	 -1.078930	 0.602607

	symmetry c1
}
set optking {
	frozen_dihedral = ("
		12 9 8 10
	")
}

ee,wfn = optimize('scf', return_wfn=True)
oeprop( wfn, 'DIPOLE', 'QUADRUPOLE', 'MULLIKEN_CHARGES')
f=open( 'psi4out.xyz', 'w' )
f.write( "20  " )
f.write( str(ee) + "\n" )
f.write( MOL.save_string_xyz() )
f.close()
--------------------------------------------------------------------------

    Molecular point group: c1
  Charge       = 0
  Multiplicity = 1
  Basis Set: CC-PVTZ
  Basis Set:
  @DF-RHF Final Energy:  -384.08464037779316
    Total Energy =                       -384.0846403777933347
    Molecular point group: c1
  Basis Set: CC-PVTZ
  Basis Set:
  Basis Set: CC-PVTZ
  Basis Set:
  @DF-RHF Final Energy:  -384.08432274578615
    Total Energy =                       -384.0843227457855278
  Basis Set: CC-PVTZ
  Basis Set:
  Basis Set: CC-PVTZ
  Basis Set:
  @DF-RHF Final Energy:  -384.08504106485299
    Total Energy =                       -384.0850410648531579
  Basis Set: CC-PVTZ
  Basis Set:
  Basis Set: CC-PVTZ
  Basis Set:
  @DF-RHF Final Energy:  -384.08493012267479
    Total Energy =                       -384.0849301226749617
  Basis Set: CC-PVTZ
  Basis Set:
  Basis Set: CC-PVTZ
  Basis Set:
  @DF-RHF Final Energy:  -384.08505235019959
    Total Energy =                       -384.0850523501997031
  Basis Set: CC-PVTZ
  Basis Set:
  Basis Set: CC-PVTZ
  Basis Set:
  @DF-RHF Final Energy:  -384.08506419069232
    Total Energy =                       -384.0850641906921510
  Basis Set: CC-PVTZ
  Basis Set:
  Charge       = 0
  Multiplicity = 1
  Basis Set: CC-PVTZ
  Basis Set:

    Orbital Energies (a.u.)
    -----------------------

    Doubly Occupied:

       1A    -20.593330     2A    -20.531854     3A    -11.365689
       4A    -11.280001     5A    -11.230923     6A    -11.223826
       7A    -11.222231     8A    -11.213520     9A     -1.469910
      10A     -1.364051    11A     -1.087991    12A     -1.030192
      13A     -0.980845    14A     -0.882384    15A     -0.808530
      16A     -0.777861    17A     -0.693876    18A     -0.687816
      19A     -0.670661    20A     -0.638307    21A     -0.597137
      22A     -0.594910    23A     -0.571169    24A     -0.559685
      25A     -0.545660    26A     -0.520473    27A     -0.510980
      28A     -0.484096    29A     -0.482693    30A     -0.475514
      31A     -0.454730    32A     -0.439810

  @DF-RHF Final Energy:  -384.08506526826909

   => Energetics <=

    Nuclear Repulsion Energy =            379.6321092381442668
    One-Electron Energy =               -1275.4530446320200099
    Two-Electron Energy =                 511.7358701256063682
    DFT Exchange-Correlation Energy =       0.0000000000000000
    Empirical Dispersion Energy =           0.0000000000000000
    PCM Polarization Energy =               0.0000000000000000
    EFP Energy =                            0.0000000000000000
    Total Energy =                       -384.0850652682693749
    Molecular point group: c1
  Basis Set: CC-PVTZ
  Basis Set:

  -Total Gradient:
     Atom            X                  Y                   Z
    ------   -----------------  -----------------  -----------------
       1        0.000088446849     0.000081902249     0.000045821668
       2       -0.000093382390     0.000002165173    -0.000061233020
       3       -0.000015241608    -0.000013691781     0.000018203546
       4        0.000074404272    -0.000165986112    -0.000004458402
       5       -0.000014393065    -0.000030402499     0.000023574502
       6        0.000032641845     0.000007805120     0.000005833783
       7        0.000001868173    -0.000014536714    -0.000041999219
       8        0.000447323872    -0.004793946841     0.003258361311
       9        0.001072618456    -0.000354649367    -0.004487568346
      10       -0.000704606550     0.004190843478    -0.001669707593
      11       -0.000054209543    -0.000000494107    -0.000003136768
      12       -0.000864501031     0.001070677787     0.002909962292
      13        0.000024441213    -0.000002711247    -0.000004953006
      14        0.000028322945    -0.000000837327     0.000020348626
      15       -0.000006636684     0.000015616724    -0.000007017477
      16        0.000012159713     0.000005818364    -0.000005437563
      17        0.000009262319     0.000020452491     0.000007302854
      18       -0.000011107554    -0.000000802976    -0.000003295217
      19       -0.000012283366    -0.000011634694    -0.000010513097
      20       -0.000015127869    -0.000005587719     0.000009911123

  **** Optimization is complete! (in 7 steps) ****
    Final optimized geometry and variables:
    Molecular point group: c1

    Geometry (in Angstrom), charge = 0, multiplicity = 1:

    O           -2.497425326563    -0.390116788975    -0.695166319689
    C           -1.943628522741     0.620842914933    -0.425253321430
    C           -2.608371401561     1.965934112453    -0.344077991692
    O           -0.653383584635     0.698704690111    -0.155691938915
    H           -2.141774433398     2.644251118996    -1.046645842516
    H           -3.658043861288     1.864616775851    -0.566585737968
    H           -2.475186966225     2.377654757867     0.647944585050
    C            0.107984274113    -0.504516079548    -0.201537859122
    C            1.556392765333    -0.150072873297     0.097898805039
    H           -0.006073397106    -0.924791251142    -1.190303878411
    H           -0.295193922998    -1.200137746945     0.520416030531
    C            2.322269397621    -1.305002880326     0.738373990221
    H            1.563407571703     0.694717779864     0.777801588650
    H            2.051770036483     0.176999437251    -0.809921548293
    C            3.788169196753    -0.972823655103     0.992698266917
    H            1.842430559724    -1.569233722662     1.675819336095
    H            2.259116235596    -2.185926225874     0.104557340484
    H            4.301674809095    -1.803664523559     1.461900262790
    H            3.885598378150    -0.111591875822     1.645100729039
    H            4.304384364316    -0.744950511296     0.066382954633

  Mulliken Charges: (a.u.)
   Center  Symbol    Alpha    Beta     Spin     Total
       1     O     4.19746  4.19746  0.00000 -0.39493
       2     C     2.80826  2.80826  0.00000  0.38347
       3     C     3.13800  3.13800  0.00000 -0.27599
       4     O     4.15178  4.15178  0.00000 -0.30356
       5     H     0.44589  0.44589  0.00000  0.10822
       6     H     0.43820  0.43820  0.00000  0.12359
       7     H     0.44604  0.44604  0.00000  0.10793
       8     C     2.98179  2.98179  0.00000  0.03642
       9     C     3.08511  3.08511  0.00000 -0.17022
      10     H     0.45157  0.45157  0.00000  0.09686
      11     H     0.45418  0.45418  0.00000  0.09164
      12     C     3.09147  3.09147  0.00000 -0.18294
      13     H     0.44927  0.44927  0.00000  0.10147
      14     H     0.45118  0.45118  0.00000  0.09765
      15     C     3.14986  3.14986  0.00000 -0.29971
      16     H     0.45205  0.45205  0.00000  0.09590
      17     H     0.45274  0.45274  0.00000  0.09453
      18     H     0.44707  0.44707  0.00000  0.10586
      19     H     0.45404  0.45404  0.00000  0.09191
      20     H     0.45405  0.45405  0.00000  0.09191

   Total alpha = 32.00000, Total beta = 32.00000, Total charge = -0.00000

*** Psi4 exiting successfully. Buy a developer a beer!
