  ==> Input File <==

--------------------------------------------------------------------------
set {
	reference rhf
	basis 6-31G*
}

set_num_threads( 1 )
memory 2 gb

molecule MOL {
0 1

H	 3.463771	 0.168298	 -0.756243
C	 2.752674	 -0.045734	 0.033351
C	 1.322923	 0.120767	 -0.479465
H	 2.934561	 -1.059086	 0.377456
H	 2.958358	 0.631174	 0.856809
C	 0.306652	 -0.176050	 0.621399
H	 1.144658	 -0.551717	 -1.312180
H	 1.166477	 1.131798	 -0.836680
N	 -1.068537	 -0.011044	 0.085269
H	 0.372515	 -1.192590	 0.973735
H	 0.391664	 0.520566	 1.441230
O	 -1.452557	 -0.817785	 -0.704079
O	 -1.684554	 0.940030	 0.459443

	symmetry c1
}
set optking {
	frozen_dihedral = ("
		7 3 6 9
	")
}

ee = energy('scf')
oeprop('DIPOLE', 'QUADRUPOLE', 'MULLIKEN_CHARGES')
f=open( 'psi4out.xyz', 'w' )
f.write( "13  " )
f.write( str(ee) + "\n" )
f.write( MOL.save_string_xyz() )
f.close()
--------------------------------------------------------------------------

    Molecular point group: c1

    Geometry (in Angstrom), charge = 0, multiplicity = 1:

       Center              X                  Y                   Z               Mass
    ------------   -----------------  -----------------  -----------------  -----------------
           H          3.464044476584     0.165668662014    -0.757753045005     1.007825032070
           C          2.752947476584    -0.048363337986     0.031840954995    12.000000000000
           C          1.323196476584     0.118137662014    -0.480975045005    12.000000000000
           H          2.934834476584    -1.061715337986     0.375945954995     1.007825032070
           H          2.958631476584     0.628544662014     0.855298954995     1.007825032070
           C          0.306925476584    -0.178679337986     0.619888954995    12.000000000000
           H          1.144931476584    -0.554346337986    -1.313690045005     1.007825032070
           H          1.166750476584     1.129168662014    -0.838190045005     1.007825032070
           N         -1.068263523416    -0.013673337986     0.083758954995    14.003074004780
           H          0.372788476584    -1.195219337986     0.972224954995     1.007825032070
           H          0.391937476584     0.517936662014     1.439719954995     1.007825032070
           O         -1.452283523416    -0.820414337986    -0.705589045005    15.994914619560
           O         -1.684280523416     0.937400662014     0.457932954995    15.994914619560

  Charge       = 0
  Multiplicity = 1
  Basis Set: 6-31G*
  Basis Set:

    Orbital Energies (a.u.)
    -----------------------

    Doubly Occupied:

       1A    -20.601582     2A    -20.599967     3A    -15.847064
       4A    -11.299162     5A    -11.256192     6A    -11.239609
       7A     -1.630675     8A     -1.416247     9A     -1.135276
      10A     -1.028238    11A     -0.883971    12A     -0.832608
      13A     -0.758810    14A     -0.735584    15A     -0.723250
      16A     -0.671259    17A     -0.604573    18A     -0.588069
      19A     -0.550722    20A     -0.521658    21A     -0.514094
      22A     -0.484049    23A     -0.473315    24A     -0.448097

  @DF-RHF Final Energy:  -321.73545110899545

   => Energetics <=

    Nuclear Repulsion Energy =            247.4788086375838247
    One-Electron Energy =                -928.7404186099613526
    Two-Electron Energy =                 359.5261588633823635
    DFT Exchange-Correlation Energy =       0.0000000000000000
    Empirical Dispersion Energy =           0.0000000000000000
    PCM Polarization Energy =               0.0000000000000000
    EFP Energy =                            0.0000000000000000
    Total Energy =                       -321.7354511089951643

  Mulliken Charges: (a.u.)
   Center  Symbol    Alpha    Beta     Spin     Total
       1     H     0.40738  0.40738  0.00000  0.18525
       2     C     3.24814  3.24814  0.00000 -0.49627
       3     C     3.17327  3.17327  0.00000 -0.34653
       4     H     0.41467  0.41467  0.00000  0.17065
       5     H     0.41508  0.41508  0.00000  0.16984
       6     C     3.08435  3.08435  0.00000 -0.16871
       7     H     0.39563  0.39563  0.00000  0.20873
       8     H     0.40237  0.40237  0.00000  0.19526
       9     N     3.22315  3.22315  0.00000  0.55371
      10     H     0.38904  0.38904  0.00000  0.22193
      11     H     0.38661  0.38661  0.00000  0.22677
      12     O     4.23123  4.23123  0.00000 -0.46246
      13     O     4.22908  4.22908  0.00000 -0.45816

   Total alpha = 24.00000, Total beta = 24.00000, Total charge =  0.00000
