                              Psi4 1.0.54 Driver

  ==> Input File <==

--------------------------------------------------------------------------
set {
	reference rhf
	basis cc-pvtz
}

set_num_threads( 4 )
memory 2 gb

molecule MOL {
0 1

H	 -1.088406	 -1.364814	 0.152217
O	 -1.432203	 -0.565316	 -0.200828
C	 -0.727308	 0.534455	 0.310670
C	 0.680072	 0.664361	 -0.252245
H	 -1.306952	 1.407929	 0.044195
H	 -0.690971	 0.490086	 1.397593
C	 1.605241	 -0.489432	 0.123082
H	 0.614939	 0.745575	 -1.332242
H	 1.101264	 1.597821	 0.110934
H	 1.247477	 -1.432557	 -0.275220
H	 2.601285	 -0.332888	 -0.273078
H	 1.691626	 -0.589974	 1.200758

	symmetry c1
}
ee,wfn = energy('scf', return_wfn=True)
oeprop( wfn, 'DIPOLE', 'QUADRUPOLE', 'MULLIKEN_CHARGES')
oeprop( wfn, 'GRID_ESP')
f=open( 'psi4out.xyz', 'w' )
f.write( "12  " )
f.write( str(ee) + "\n" )
f.write( MOL.save_string_xyz() )
f.close()
--------------------------------------------------------------------------

    Molecular point group: c1

    Geometry (in Angstrom), charge = 0, multiplicity = 1:

       Center              X                  Y                   Z               Mass
    ------------   -----------------  -----------------  -----------------  -----------------
           H         -1.088255972664    -1.364742120261     0.152233048397     1.007825032070
           O         -1.432052972664    -0.565244120261    -0.200811951603    15.994914619560
           C         -0.727157972664     0.534526879739     0.310686048397    12.000000000000
           C          0.680222027336     0.664432879739    -0.252228951603    12.000000000000
           H         -1.306801972664     1.408000879739     0.044211048397     1.007825032070
           H         -0.690820972664     0.490157879739     1.397609048397     1.007825032070
           C          1.605391027336    -0.489360120261     0.123098048397    12.000000000000
           H          0.615089027336     0.745646879739    -1.332225951603     1.007825032070
           H          1.101414027336     1.597892879739     0.110950048397     1.007825032070
           H          1.247627027336    -1.432485120261    -0.275203951603     1.007825032070
           H          2.601435027336    -0.332816120261    -0.273061951603     1.007825032070
           H          1.691776027336    -0.589902120261     1.200774048397     1.007825032070

  Charge       = 0
  Multiplicity = 1
  Basis Set: CC-PVTZ
  Basis Set:

    Orbital Energies (a.u.)
    -----------------------

    Doubly Occupied:

       1A    -20.546229     2A    -11.266000     3A    -11.217019
       4A    -11.214896     5A     -1.364277     6A     -1.051982
       7A     -0.928435     8A     -0.810199     9A     -0.699144
      10A     -0.637695    11A     -0.602466    12A     -0.590088
      13A     -0.540947    14A     -0.511151    15A     -0.492954
      16A     -0.469879    17A     -0.432928

  @DF-RHF Final Energy:  -193.19061066142021

   => Energetics <=

    Nuclear Repulsion Energy =            133.2035394998867162
    One-Electron Energy =                -526.0356589704317685
    Two-Electron Energy =                 199.6415088091249572
    DFT Exchange-Correlation Energy =       0.0000000000000000
    Empirical Dispersion Energy =           0.0000000000000000
    PCM Polarization Energy =               0.0000000000000000
    EFP Energy =                            0.0000000000000000
    Total Energy =                       -193.1906106614201235

  Mulliken Charges: (a.u.)
   Center  Symbol    Alpha    Beta     Spin     Total
       1     H     0.39251  0.39251  0.00000  0.21498
       2     O     4.20540  4.20540  0.00000 -0.41081
       3     C     2.97638  2.97638  0.00000  0.04725
       4     C     3.08233  3.08233  0.00000 -0.16466
       5     H     0.45000  0.45000  0.00000  0.10000
       6     H     0.47045  0.47045  0.00000  0.05910
       7     C     3.15956  3.15956  0.00000 -0.31912
       8     H     0.45148  0.45148  0.00000  0.09704
       9     H     0.45657  0.45657  0.00000  0.08686
      10     H     0.45667  0.45667  0.00000  0.08666
      11     H     0.44473  0.44473  0.00000  0.11055
      12     H     0.45392  0.45392  0.00000  0.09216

   Total alpha = 17.00000, Total beta = 17.00000, Total charge = -0.00000

*** Psi4 exiting successfully. Buy a developer a beer!
