                              Psi4 1.0.54 Driver

  ==> Input File <==

--------------------------------------------------------------------------
set {
	reference rhf
	basis cc-pvtz
}

set_num_threads( 4 )
memory 2 gb

molecule MOL {
0 1

O	 0.749630	 1.305591	 -0.000460
C	 0.576499	 0.134701	 -0.003900
C	 -0.765656	 -0.550508	 -0.002152
O	 1.564816	 -0.744612	 -0.000631
C	 -1.945526	 0.411052	 0.000603
H	 -0.794329	 -1.203792	 -0.868145
H	 -0.791555	 -1.205429	 0.862701
C	 -3.037842	 -0.023342	 0.971722
H	 -2.349638	 0.483623	 -1.001804
H	 -1.596606	 1.403947	 0.257105
H	 -3.426288	 -1.003683	 0.716083
H	 -3.866940	 0.673691	 0.957468
H	 -2.664857	 -0.071944	 1.989488
C	 2.884339	 -0.237801	 0.002883
H	 3.064150	 0.362814	 -0.876312
H	 3.533055	 -1.098529	 0.004958
H	 3.059365	 0.363432	 0.882614

	symmetry c1
}
set optking {
	frozen_dihedral = ("
		9 5 3 6
	")
}

ee,wfn = optimize('scf', return_wfn=True)
oeprop( wfn, 'DIPOLE', 'QUADRUPOLE', 'MULLIKEN_CHARGES')
f=open( 'psi4out.xyz', 'w' )
f.write( "17  " )
f.write( str(ee) + "\n" )
f.write( MOL.save_string_xyz() )
f.close()
--------------------------------------------------------------------------

    Molecular point group: c1
  Charge       = 0
  Multiplicity = 1
  Basis Set: CC-PVTZ
  Basis Set:
  @DF-RHF Final Energy:  -345.03109749545501
    Total Energy =                       -345.0310974954550716
    Molecular point group: c1
  Basis Set: CC-PVTZ
  Basis Set:
  Basis Set: CC-PVTZ
  Basis Set:
  @DF-RHF Final Energy:  -345.03128598142564
    Total Energy =                       -345.0312859814255262
  Basis Set: CC-PVTZ
  Basis Set:
  Basis Set: CC-PVTZ
  Basis Set:
  @DF-RHF Final Energy:  -345.03133247240305
    Total Energy =                       -345.0313324724029940
  Basis Set: CC-PVTZ
  Basis Set:
  Basis Set: CC-PVTZ
  Basis Set:
  @DF-RHF Final Energy:  -345.03150088445574
    Total Energy =                       -345.0315008844553404
  Basis Set: CC-PVTZ
  Basis Set:
  Basis Set: CC-PVTZ
  Basis Set:
  @DF-RHF Final Energy:  -345.03150268915874
    Total Energy =                       -345.0315026891588559
  Basis Set: CC-PVTZ
  Basis Set:
  Charge       = 0
  Multiplicity = 1
  Basis Set: CC-PVTZ
  Basis Set:

    Orbital Energies (a.u.)
    -----------------------

    Doubly Occupied:

       1A    -20.596725     2A    -20.535089     3A    -11.365507
       4A    -11.278855     5A    -11.234486     6A    -11.218729
       7A    -11.211957     8A     -1.472981     9A     -1.366527
      10A     -1.079215    11A     -1.002611    12A     -0.939666
      13A     -0.828360    14A     -0.768906    15A     -0.703072
      16A     -0.685852    17A     -0.676675    18A     -0.633079
      19A     -0.600734    20A     -0.573066    21A     -0.571283
      22A     -0.531572    23A     -0.525444    24A     -0.492819
      25A     -0.486857    26A     -0.476416    27A     -0.461381
      28A     -0.442557

  @DF-RHF Final Energy:  -345.03150299162184

   => Energetics <=

    Nuclear Repulsion Energy =            313.2465582356429081
    One-Electron Energy =               -1091.0352848765014642
    Two-Electron Energy =                 432.7572236492365505
    DFT Exchange-Correlation Energy =       0.0000000000000000
    Empirical Dispersion Energy =           0.0000000000000000
    PCM Polarization Energy =               0.0000000000000000
    EFP Energy =                            0.0000000000000000
    Total Energy =                       -345.0315029916220624
    Molecular point group: c1
  Basis Set: CC-PVTZ
  Basis Set:

  -Total Gradient:
     Atom            X                  Y                   Z
    ------   -----------------  -----------------  -----------------
       1       -0.000023482090    -0.000002490249     0.000002407823
       2       -0.000007308952     0.000022304881    -0.000051906223
       3       -0.002485939411    -0.003131774149     0.002151941246
       4       -0.000014752733    -0.000005957646     0.000032198413
       5        0.002707760178     0.003387487917    -0.001128740319
       6        0.001635990960     0.002048045395    -0.001578810040
       7       -0.000018118633     0.000010653980    -0.000021993116
       8        0.000007383629    -0.000011988919     0.000015095212
       9       -0.001813139896    -0.002304172404     0.000578715556
      10        0.000013494334    -0.000015945224     0.000008708158
      11        0.000009260168    -0.000000380357     0.000002161684
      12       -0.000002480993     0.000005061729    -0.000009001326
      13       -0.000011315267    -0.000001137712     0.000008901894
      14        0.000015700084     0.000002815539    -0.000021229639
      15       -0.000000061074    -0.000006021751     0.000013280695
      16       -0.000009150919     0.000006439562     0.000002606583
      17       -0.000003839385    -0.000002940590    -0.000004336601

  **** Optimization is complete! (in 6 steps) ****
    Final optimized geometry and variables:
    Molecular point group: c1

    Geometry (in Angstrom), charge = 0, multiplicity = 1:

    O            0.735039105615     1.272214908234    -0.132911055189
    C            0.550389408870     0.103195449170    -0.135232221875
    C           -0.794256938518    -0.584885124840    -0.112884781824
    O            1.532868445856    -0.782764155596    -0.158109516979
    C           -1.993825735609     0.368680764727    -0.116117308827
    H           -0.802396155062    -1.239176732791    -0.976971996189
    H           -0.796548171630    -1.230819957749     0.757687797378
    C           -3.112880994858    -0.098741421996     0.811657705237
    H           -2.391882196335     0.438330293077    -1.121881358400
    H           -1.668906694377     1.358547864541     0.168154547609
    H           -3.463282712313    -1.089959489959     0.542459846312
    H           -3.960612649986     0.574523785780     0.764677557349
    H           -2.776268709178    -0.136036021804     1.842390516355
    C            2.855607185055    -0.285532169858    -0.179049369206
    H            3.021776659978     0.319234617396    -1.058131707565
    H            3.498382358156    -1.150644139392    -0.195547178884
    H            3.053545183135     0.309118719087     0.700386123744

  Mulliken Charges: (a.u.)
   Center  Symbol    Alpha    Beta     Spin     Total
       1     O     4.19601  4.19601  0.00000 -0.39201
       2     C     2.80241  2.80241  0.00000  0.39518
       3     C     3.10322  3.10322  0.00000 -0.20643
       4     O     4.14775  4.14775  0.00000 -0.29549
       5     C     3.08652  3.08652  0.00000 -0.17303
       6     H     0.43695  0.43695  0.00000  0.12610
       7     H     0.43971  0.43971  0.00000  0.12059
       8     C     3.14952  3.14952  0.00000 -0.29904
       9     H     0.45301  0.45301  0.00000  0.09399
      10     H     0.43597  0.43597  0.00000  0.12806
      11     H     0.45568  0.45568  0.00000  0.08865
      12     H     0.44750  0.44750  0.00000  0.10499
      13     H     0.45514  0.45514  0.00000  0.08972
      14     C     3.03648  3.03648  0.00000 -0.07297
      15     H     0.45432  0.45432  0.00000  0.09137
      16     H     0.44544  0.44544  0.00000  0.10913
      17     H     0.45440  0.45440  0.00000  0.09121

   Total alpha = 28.00000, Total beta = 28.00000, Total charge = -0.00000

*** Psi4 exiting successfully. Buy a developer a beer!
