  ==> Input File <==

--------------------------------------------------------------------------
set {
	reference rhf
	basis 6-31G*
}

set_num_threads( 1 )
memory 2 gb

molecule MOL {
0 1

O	 -0.988096	 -1.408613	 0.050699
C	 -0.676749	 -0.249230	 -0.009274
C	 -1.746085	 0.827156	 -0.009539
N	 0.623947	 0.147590	 -0.102813
H	 -1.701500	 1.431508	 -0.908902
H	 -2.703425	 0.330732	 0.036390
H	 -1.647323	 1.487769	 0.845106
C	 0.911233	 1.468070	 -0.627861
C	 1.752374	 -0.755619	 -0.047040
H	 1.740326	 1.902097	 -0.079916
H	 0.043195	 2.094388	 -0.517516
H	 1.181802	 1.424374	 -1.680621
H	 2.597034	 -0.240464	 0.394779
H	 1.540549	 -1.618375	 0.564284
H	 2.048546	 -1.097412	 -1.037127

	symmetry c1
}
set optking {
	frozen_dihedral = ("
		2 4 8 10
	")
}

ee = energy('scf')
oeprop('DIPOLE', 'QUADRUPOLE', 'MULLIKEN_CHARGES')
f=open( 'psi4out.xyz', 'w' )
f.write( "15  " )
f.write( str(ee) + "\n" )
f.write( MOL.save_string_xyz() )
f.close()
--------------------------------------------------------------------------

    Molecular point group: c1

    Geometry (in Angstrom), charge = 0, multiplicity = 1:

       Center              X                  Y                   Z               Mass
    ------------   -----------------  -----------------  -----------------  -----------------
           O         -0.975983642352    -1.417570635170     0.181119591176    15.994914619560
           C         -0.664636642352    -0.258187635170     0.121146591176    12.000000000000
           C         -1.733972642352     0.818198364830     0.120881591176    12.000000000000
           N          0.636059357648     0.138632364830     0.027607591176    14.003074004780
           H         -1.689387642352     1.422550364830    -0.778481408824     1.007825032070
           H         -2.691312642352     0.321774364830     0.166810591176     1.007825032070
           H         -1.635210642352     1.478811364830     0.975526591176     1.007825032070
           C          0.923345357648     1.459112364830    -0.497440408824    12.000000000000
           C          1.764486357648    -0.764576635170     0.083380591176    12.000000000000
           H          1.752438357648     1.893139364830     0.050504591176     1.007825032070
           H          0.055307357648     2.085430364830    -0.387095408824     1.007825032070
           H          1.193914357648     1.415416364830    -1.550200408824     1.007825032070
           H          2.609146357648    -0.249421635170     0.525199591176     1.007825032070
           H          1.552661357648    -1.627332635170     0.694704591176     1.007825032070
           H          2.060658357648    -1.106369635170    -0.906706408824     1.007825032070

  Charge       = 0
  Multiplicity = 1
  Basis Set: 6-31G*
  Basis Set:

    Orbital Energies (a.u.)
    -----------------------

    Doubly Occupied:

       1A    -20.514483     2A    -15.582713     3A    -11.341208
       4A    -11.262706     5A    -11.253811     6A    -11.229407
       7A     -1.382642     8A     -1.244607     9A     -1.018245
      10A     -0.968530    11A     -0.923205    12A     -0.738694
      13A     -0.681107    14A     -0.658970    15A     -0.652372
      16A     -0.594008    17A     -0.577633    18A     -0.566448
      19A     -0.561267    20A     -0.553369    21A     -0.526048
      22A     -0.501247    23A     -0.410433    24A     -0.365477

  @DF-RHF Final Energy:  -286.02368768839983

   => Energetics <=

    Nuclear Repulsion Energy =            252.4336419516803005
    One-Electron Energy =                -888.6972772758344945
    Two-Electron Energy =                 350.2399476357546746
    DFT Exchange-Correlation Energy =       0.0000000000000000
    Empirical Dispersion Energy =           0.0000000000000000
    PCM Polarization Energy =               0.0000000000000000
    EFP Energy =                            0.0000000000000000
    Total Energy =                       -286.0236876883994910

  Mulliken Charges: (a.u.)
   Center  Symbol    Alpha    Beta     Spin     Total
       1     O     4.30090  4.30090  0.00000 -0.60180
       2     C     2.62666  2.62666  0.00000  0.74669
       3     C     3.30526  3.30526  0.00000 -0.61052
       4     N     3.81990  3.81990  0.00000 -0.63980
       5     H     0.40730  0.40730  0.00000  0.18540
       6     H     0.38926  0.38926  0.00000  0.22148
       7     H     0.40405  0.40405  0.00000  0.19191
       8     C     3.14522  3.14522  0.00000 -0.29043
       9     C     3.13799  3.13799  0.00000 -0.27599
      10     H     0.41346  0.41346  0.00000  0.17308
      11     H     0.40518  0.40518  0.00000  0.18964
      12     H     0.41633  0.41633  0.00000  0.16733
      13     H     0.41765  0.41765  0.00000  0.16469
      14     H     0.39352  0.39352  0.00000  0.21296
      15     H     0.41731  0.41731  0.00000  0.16538

   Total alpha = 24.00000, Total beta = 24.00000, Total charge =  0.00000
