  ==> Input File <==

--------------------------------------------------------------------------
set {
	reference rhf
	basis 6-31G*
}

set_num_threads( 4 )
memory 2 gb

molecule MOL {
0 1

O	 1.459499	 1.971812	 -0.387279
C	 0.564568	 2.105340	 -1.158244
C	 -0.735209	 1.338541	 -1.136632
O	 0.594015	 2.973162	 -2.161815
C	 -0.823008	 0.326187	 0.001381
H	 -1.540383	 2.065967	 -1.079537
H	 -0.842650	 0.854407	 -2.103477
C	 -2.149452	 -0.435131	 -0.000098
H	 -0.693928	 0.840681	 0.948388
H	 0.003778	 -0.372785	 -0.077175
C	 -3.368779	 0.488503	 -0.000883
H	 -2.193746	 -1.087250	 -0.871175
H	 -2.195311	 -1.087803	 0.870418
C	 -4.693822	 -0.272754	 -0.001129
H	 -3.325798	 1.139422	 -0.871284
H	 -3.326423	 1.139959	 0.869145
H	 -4.781274	 -0.907928	 -0.878124
H	 -5.538651	 0.408946	 -0.001420
H	 -4.781694	 -0.907783	 0.875984
C	 1.762342	 3.761931	 -2.295267
H	 1.917280	 4.364146	 -1.411604
H	 1.595504	 4.393579	 -3.153790
H	 2.628021	 3.135124	 -2.454075

	symmetry c1
}
set optking {
	frozen_dihedral = ("
		9 5 8 12
	")
}

ee = optimize('scf')
oeprop('DIPOLE', 'QUADRUPOLE', 'MULLIKEN_CHARGES')
f=open( 'psi4out.xyz', 'w' )
f.write( "23  " )
f.write( str(ee) + "\n" )
f.write( MOL.save_string_xyz() )
f.close()
--------------------------------------------------------------------------

    Molecular point group: c1
  Charge       = 0
  Multiplicity = 1
  Basis Set: 6-31G*
  Basis Set:
  @DF-RHF Final Energy:  -422.97267087639591
    Total Energy =                       -422.9726708763962506
    Molecular point group: c1
  Basis Set: 6-31G*
  Basis Set:
  Basis Set: 6-31G*
  Basis Set:
  @DF-RHF Final Energy:  -422.97346808784039
    Total Energy =                       -422.9734680878408426
  Basis Set: 6-31G*
  Basis Set:
  Basis Set: 6-31G*
  Basis Set:
  @DF-RHF Final Energy:  -422.97428679512637
    Total Energy =                       -422.9742867951260905
  Basis Set: 6-31G*
  Basis Set:
  Basis Set: 6-31G*
  Basis Set:
  @DF-RHF Final Energy:  -422.97413364590500
    Total Energy =                       -422.9741336459045442
  Basis Set: 6-31G*
  Basis Set:
  Basis Set: 6-31G*
  Basis Set:
  @DF-RHF Final Energy:  -422.97437427360393
    Total Energy =                       -422.9743742736048944
  Basis Set: 6-31G*
  Basis Set:
  Basis Set: 6-31G*
  Basis Set:
  @DF-RHF Final Energy:  -422.97440051729058
    Total Energy =                       -422.9744005172902916
  Basis Set: 6-31G*
  Basis Set:
  Charge       = 0
  Multiplicity = 1
  Basis Set: 6-31G*
  Basis Set:

    Orbital Energies (a.u.)
    -----------------------

    Doubly Occupied:

       1A    -20.603527     2A    -20.545384     3A    -11.372206
       4A    -11.280778     5A    -11.235080     6A    -11.219336
       7A    -11.218810     8A    -11.217797     9A    -11.211096
      10A     -1.469258    11A     -1.362698    12A     -1.093513
      13A     -1.042080    14A     -0.987211    15A     -0.933280
      16A     -0.851159    17A     -0.792361    18A     -0.762861
      19A     -0.700915    20A     -0.682538    21A     -0.672026
      22A     -0.640537    23A     -0.617390    24A     -0.600182
      25A     -0.577211    26A     -0.557820    27A     -0.554933
      28A     -0.527588    29A     -0.520539    30A     -0.509444
      31A     -0.491432    32A     -0.466891    33A     -0.464437
      34A     -0.458134    35A     -0.452899    36A     -0.437494

  @DF-RHF Final Energy:  -422.97440105166970

   => Energetics <=

    Nuclear Repulsion Energy =            457.5072521729277923
    One-Electron Energy =               -1482.7016131924196998
    Two-Electron Energy =                 602.2199599678224331
    DFT Exchange-Correlation Energy =       0.0000000000000000
    Empirical Dispersion Energy =           0.0000000000000000
    PCM Polarization Energy =               0.0000000000000000
    EFP Energy =                            0.0000000000000000
    Total Energy =                       -422.9744010516694743
    Molecular point group: c1
  Basis Set: 6-31G*
  Basis Set:

  -Total Gradient:
     Atom            X                  Y                   Z
    ------   -----------------  -----------------  -----------------
       1       -0.000020926922     0.000081390008     0.000067439370
       2        0.000079715955    -0.000204304716    -0.000149232129
       3       -0.000022494237     0.000050161111    -0.000025322388
       4       -0.000044265259     0.000022406119     0.000050678020
       5       -0.000986066274     0.001650174063    -0.000501461413
       6       -0.000025092082     0.000003051472     0.000001043655
       7        0.000031819517     0.000038296710     0.000001431157
       8       -0.000825169461     0.001343261146    -0.001078154098
       9        0.000976075992    -0.001524293431     0.000725131215
      10       -0.000059323375    -0.000024479702    -0.000010064874
      11        0.000007166853     0.000052818674    -0.000191433174
      12        0.000808985707    -0.001381762599     0.000976095819
      13       -0.000037296237    -0.000011758634     0.000008991342
      14        0.000068657507    -0.000057282975     0.000111333853
      15        0.000015904228    -0.000015068627     0.000001818958
      16        0.000024369952    -0.000006623641    -0.000031190970
      17       -0.000007376436     0.000027616033    -0.000009944112
      18        0.000043974957     0.000015997550     0.000039102406
      19       -0.000027478267    -0.000061023787     0.000004004437
      20       -0.000001090775    -0.000003000659     0.000004750688
      21        0.000003650513     0.000003343763     0.000000623658
      22        0.000000058339     0.000001920396     0.000002788078
      23       -0.000003800192    -0.000000838274     0.000001570507

  **** Optimization is complete! (in 7 steps) ****
    Final optimized geometry and variables:
    Molecular point group: c1

    Geometry (in Angstrom), charge = 0, multiplicity = 1:

    O            2.280902314643     0.533304641845     0.407515437881
    C            1.392585972466     0.734836196879    -0.356230269768
    C            0.046262151873     0.052105668443    -0.341150209594
    O            1.472846571772     1.614026013565    -1.347208913152
    C           -0.095740318178    -0.965890798259     0.787352366199
    H           -0.705025153573     0.832615789772    -0.281776599628
    H           -0.089433636577    -0.417396308128    -1.312199273390
    C           -1.398583877459    -1.771970208414     0.745382725402
    H           -0.002119181673    -0.465953606164     1.746770711603
    H            0.740400580885    -1.655329667125     0.737478162631
    C           -2.685231269526    -0.944633063762     0.796314508669
    H           -1.404458927642    -2.408038317378    -0.138670299012
    H           -1.392021350224    -2.452786851322     1.594060847591
    C           -3.936787954089    -1.814299038307     0.913615069478
    H           -2.768537594607    -0.325108734151    -0.092640214859
    H           -2.639641799250    -0.262168078907     1.642961841897
    H           -4.025285621589    -2.489002356396     0.066710868546
    H           -4.835793412422    -1.206836293055     0.947483153114
    H           -3.911347106540    -2.419061768105     1.815549962832
    C            2.688445322620     2.328810046588    -1.475102075387
    H            2.885012035355     2.906942111100    -0.583675653440
    H            2.558624718552     2.982412929226    -2.323589834722
    H            3.511842224247     1.650664989310    -1.647321405510

  Mulliken Charges: (a.u.)
   Center  Symbol    Alpha    Beta     Spin     Total
       1     O     4.28589  4.28589  0.00000 -0.57179
       2     C     2.60478  2.60478  0.00000  0.79044
       3     C     3.21016  3.21016  0.00000 -0.42032
       4     O     4.30746  4.30746  0.00000 -0.61491
       5     C     3.15404  3.15404  0.00000 -0.30808
       6     H     0.39849  0.39849  0.00000  0.20301
       7     H     0.40120  0.40120  0.00000  0.19761
       8     C     3.15488  3.15488  0.00000 -0.30976
       9     H     0.41309  0.41309  0.00000  0.17381
      10     H     0.40875  0.40875  0.00000  0.18251
      11     C     3.15548  3.15548  0.00000 -0.31097
      12     H     0.42352  0.42352  0.00000  0.15297
      13     H     0.41889  0.41889  0.00000  0.16223
      14     C     3.23913  3.23913  0.00000 -0.47825
      15     H     0.42217  0.42217  0.00000  0.15567
      16     H     0.42211  0.42211  0.00000  0.15578
      17     H     0.42138  0.42138  0.00000  0.15724
      18     H     0.41873  0.41873  0.00000  0.16253
      19     H     0.42079  0.42079  0.00000  0.15842
      20     C     3.09242  3.09242  0.00000 -0.18484
      21     H     0.40906  0.40906  0.00000  0.18188
      22     H     0.40848  0.40848  0.00000  0.18303
      23     H     0.40911  0.40911  0.00000  0.18179

   Total alpha = 36.00000, Total beta = 36.00000, Total charge =  0.00000
