  ==> Input File <==

--------------------------------------------------------------------------
set {
	reference rhf
	basis 6-31G*
}

set_num_threads( 4 )
memory 2 gb

molecule MOL {
0 1

H	 -2.362110	 1.080613	 1.105192
C	 -2.490334	 0.184938	 0.509650
C	 -1.232239	 -0.674817	 0.537552
H	 -2.726295	 0.495439	 -0.500892
H	 -3.335399	 -0.370042	 0.903525
C	 -0.000005	 0.033229	 -0.000001
H	 -1.374301	 -1.585563	 -0.041030
H	 -1.013318	 -1.005596	 1.550989
C	 1.290528	 -0.768786	 0.000276
O	 -0.043402	 1.156260	 -0.400129
C	 2.545731	 0.095645	 -0.000061
H	 1.275672	 -1.427874	 -0.865626
H	 1.275566	 -1.427086	 0.866768
H	 2.577157	 0.734767	 -0.874036
H	 3.433520	 -0.528139	 0.000137
H	 2.577172	 0.735117	 0.873581

	symmetry c1
}
set optking {
	frozen_dihedral = ("
		3 6 9 12
	")
}

ee = optimize('scf')
oeprop('DIPOLE', 'QUADRUPOLE', 'MULLIKEN_CHARGES')
f=open( 'psi4out.xyz', 'w' )
f.write( "16  " )
f.write( str(ee) + "\n" )
f.write( MOL.save_string_xyz() )
f.close()
--------------------------------------------------------------------------

    Molecular point group: c1
  Charge       = 0
  Multiplicity = 1
  Basis Set: 6-31G*
  Basis Set:
  @DF-RHF Final Energy:  -270.03271436790448
    Total Energy =                       -270.0327143679044752
    Molecular point group: c1
  Basis Set: 6-31G*
  Basis Set:
  Basis Set: 6-31G*
  Basis Set:
  @DF-RHF Final Energy:  -270.03291504914955
    Total Energy =                       -270.0329150491494374
  Basis Set: 6-31G*
  Basis Set:
  Basis Set: 6-31G*
  Basis Set:
  @DF-RHF Final Energy:  -270.03299180548640
    Total Energy =                       -270.0329918054862901
  Basis Set: 6-31G*
  Basis Set:
  Basis Set: 6-31G*
  Basis Set:
  @DF-RHF Final Energy:  -270.03304381521087
    Total Energy =                       -270.0330438152104762
  Basis Set: 6-31G*
  Basis Set:
  Basis Set: 6-31G*
  Basis Set:
  @DF-RHF Final Energy:  -270.03304797001636
    Total Energy =                       -270.0330479700163551
  Basis Set: 6-31G*
  Basis Set:
  Charge       = 0
  Multiplicity = 1
  Basis Set: 6-31G*
  Basis Set:

    Orbital Energies (a.u.)
    -----------------------

    Doubly Occupied:

       1A    -20.550344     2A    -11.323976     3A    -11.234212
       4A    -11.233863     5A    -11.214695     6A    -11.213703
       7A     -1.396037     8A     -1.068394     9A     -1.036370
      10A     -0.915732    11A     -0.846613    12A     -0.724712
      13A     -0.667327    14A     -0.645392    15A     -0.619765
      16A     -0.606455    17A     -0.560382    18A     -0.529439
      19A     -0.524671    20A     -0.510634    21A     -0.502540
      22A     -0.494665    23A     -0.481893    24A     -0.398550

  @DF-RHF Final Energy:  -270.03304810306076

   => Energetics <=

    Nuclear Repulsion Energy =            239.9299062836456358
    One-Electron Energy =                -841.3251795169923071
    Two-Electron Energy =                 331.3622251302857080
    DFT Exchange-Correlation Energy =       0.0000000000000000
    Empirical Dispersion Energy =           0.0000000000000000
    PCM Polarization Energy =               0.0000000000000000
    EFP Energy =                            0.0000000000000000
    Total Energy =                       -270.0330481030609349
    Molecular point group: c1
  Basis Set: 6-31G*
  Basis Set:

  -Total Gradient:
     Atom            X                  Y                   Z
    ------   -----------------  -----------------  -----------------
       1        0.000002886451     0.000000243164     0.000001451680
       2       -0.000006485782    -0.000017493998    -0.000013512187
       3        0.000186912224     0.000239322260     0.000747184124
       4       -0.000001712076     0.000002963451     0.000002362976
       5       -0.000001618569     0.000002841416     0.000000397543
       6       -0.000182872882    -0.000159600449    -0.001180432274
       7        0.000003505343     0.000009036374     0.000000008169
       8        0.000000565785    -0.000009690781     0.000006083381
       9       -0.000468342484    -0.000812961885     0.000938082811
      10       -0.000011686923     0.000009964695     0.000008240206
      11        0.000011678447    -0.000006032904     0.000000258517
      12        0.000467631608     0.000752110777    -0.000514890622
      13        0.000006905180     0.000000127387     0.000002043252
      14       -0.000005825642    -0.000006902814     0.000002417062
      15        0.000003702937    -0.000000517592     0.000001674956
      16       -0.000005243613    -0.000003409104    -0.000001369593

  **** Optimization is complete! (in 6 steps) ****
    Final optimized geometry and variables:
    Molecular point group: c1

    Geometry (in Angstrom), charge = 0, multiplicity = 1:

    H           -2.445272420307     1.068812657014     0.854703326341
    C           -2.523698769854     0.133651919762     0.314736738390
    C           -1.243975412653    -0.682474090934     0.450226487326
    H           -2.725451599531     0.371038220845    -0.723252102833
    H           -3.369330929613    -0.420775590218     0.708131844966
    C           -0.006477531969     0.032240144268    -0.061546774349
    H           -1.330268703009    -1.634719468045    -0.069521276281
    H           -1.058923459210    -0.936664158898     1.492854660285
    C            1.265705855606    -0.795564416685    -0.142268694430
    O           -0.029177357212     1.180004307222    -0.386630243909
    C            2.537076914657     0.047428995804    -0.161976149239
    H            1.196611871827    -1.383167990649    -1.057119088297
    H            1.282577345479    -1.512277133689     0.674169805426
    H            2.524620094326     0.743058158068    -0.990680387610
    H            3.411177234469    -0.588170449021    -0.257152043807
    H            2.636421321738     0.624115075022     0.751099855031

  Mulliken Charges: (a.u.)
   Center  Symbol    Alpha    Beta     Spin     Total
       1     H     0.40831  0.40831  0.00000  0.18337
       2     C     3.23539  3.23539  0.00000 -0.47078
       3     C     3.20668  3.20668  0.00000 -0.41335
       4     H     0.41271  0.41271  0.00000  0.17458
       5     H     0.41992  0.41992  0.00000  0.16016
       6     C     2.73371  2.73371  0.00000  0.53258
       7     H     0.41049  0.41049  0.00000  0.17902
       8     H     0.40738  0.40738  0.00000  0.18524
       9     C     3.20536  3.20536  0.00000 -0.41072
      10     O     4.26543  4.26543  0.00000 -0.53086
      11     C     3.23703  3.23703  0.00000 -0.47406
      12     H     0.40546  0.40546  0.00000  0.18908
      13     H     0.41231  0.41231  0.00000  0.17539
      14     H     0.40499  0.40499  0.00000  0.19002
      15     H     0.41932  0.41932  0.00000  0.16136
      16     H     0.41552  0.41552  0.00000  0.16896

   Total alpha = 24.00000, Total beta = 24.00000, Total charge =  0.00000
