  ==> Input File <==

--------------------------------------------------------------------------
set {
	reference rhf
	basis 6-31G*
}

set_num_threads( 4 )
memory 2 gb

molecule MOL {
0 1

H	 -3.135461	 -1.215070	 0.001379
O	 -2.310168	 -0.871793	 -0.309793
C	 -2.026376	 0.340750	 0.341611
C	 -0.673256	 0.843270	 -0.132153
H	 -2.792215	 1.080697	 0.115987
H	 -2.013526	 0.200402	 1.421792
C	 0.486613	 -0.083066	 0.235839
H	 -0.715586	 0.970948	 -1.210718
H	 -0.508072	 1.829858	 0.297090
C	 1.840406	 0.433480	 -0.254303
H	 0.300215	 -1.068318	 -0.178947
H	 0.519509	 -0.203625	 1.318070
C	 2.350992	 -0.311423	 -1.487224
H	 1.758980	 1.494095	 -0.482737
H	 2.572844	 0.349572	 0.546282
H	 1.656085	 -0.216921	 -2.316720
H	 3.310849	 0.077409	 -1.813459
H	 2.476070	 -1.370899	 -1.281370

	symmetry c1
}
set optking {
	frozen_dihedral = ("
		14 10 7 11
	")
}

ee = optimize('scf')
oeprop('DIPOLE', 'QUADRUPOLE', 'MULLIKEN_CHARGES')
f=open( 'psi4out.xyz', 'w' )
f.write( "18  " )
f.write( str(ee) + "\n" )
f.write( MOL.save_string_xyz() )
f.close()
--------------------------------------------------------------------------

    Molecular point group: c1
  Charge       = 0
  Multiplicity = 1
  Basis Set: 6-31G*
  Basis Set:
  @DF-RHF Final Energy:  -271.17488267018314
    Total Energy =                       -271.1748826701829103
    Molecular point group: c1
  Basis Set: 6-31G*
  Basis Set:
  Basis Set: 6-31G*
  Basis Set:
  @DF-RHF Final Energy:  -271.17517596116954
    Total Energy =                       -271.1751759611696571
  Basis Set: 6-31G*
  Basis Set:
  Basis Set: 6-31G*
  Basis Set:
  @DF-RHF Final Energy:  -271.17526833803436
    Total Energy =                       -271.1752683380344706
  Basis Set: 6-31G*
  Basis Set:
  Charge       = 0
  Multiplicity = 1
  Basis Set: 6-31G*
  Basis Set:

    Orbital Energies (a.u.)
    -----------------------

    Doubly Occupied:

       1A    -20.553251     2A    -11.267874     3A    -11.212177
       4A    -11.210275     5A    -11.206007     6A    -11.203032
       7A     -1.359910     8A     -1.072917     9A     -1.006448
      10A     -0.911849    11A     -0.821746    12A     -0.779996
      13A     -0.704499    14A     -0.639749    15A     -0.617053
      16A     -0.593919    17A     -0.567991    18A     -0.557568
      19A     -0.509517    20A     -0.503299    21A     -0.497342
      22A     -0.463783    23A     -0.453590    24A     -0.446933
      25A     -0.427859

  @DF-RHF Final Energy:  -271.17526736810646

   => Energetics <=

    Nuclear Repulsion Energy =            251.0995237297724145
    One-Electron Energy =                -865.3724115943409743
    Two-Electron Energy =                 343.0976204964621274
    DFT Exchange-Correlation Energy =       0.0000000000000000
    Empirical Dispersion Energy =           0.0000000000000000
    PCM Polarization Energy =               0.0000000000000000
    EFP Energy =                            0.0000000000000000
    Total Energy =                       -271.1752673681064607
    Molecular point group: c1
  Basis Set: 6-31G*
  Basis Set:

  -Total Gradient:
     Atom            X                  Y                   Z
    ------   -----------------  -----------------  -----------------
       1        0.000002988490    -0.000003041537     0.000006431076
       2        0.000085862365    -0.000036136927     0.000069859145
       3       -0.000074626565     0.000040584904    -0.000200104006
       4        0.000072218867     0.000035383171     0.000149335952
       5       -0.000018595793     0.000020202584     0.000013868185
       6        0.000025013617    -0.000013115393    -0.000029069451
       7        0.001525013414    -0.001677957192     0.002299574336
       8       -0.000013623693     0.000020738426     0.000034059719
       9       -0.000041559587     0.000022601754     0.000038570593
      10        0.000723405871     0.001180891855     0.002848666922
      11       -0.001377952153     0.001146900368    -0.002398174485
      12        0.000036557995     0.000046358882    -0.000040113555
      13       -0.000014053664    -0.000051172140     0.000042637023
      14       -0.000895877358    -0.000691877420    -0.002808693834
      15       -0.000042665075    -0.000025126817    -0.000000276539
      16        0.000011438970     0.000008233235    -0.000002271232
      17        0.000004367291     0.000000773698     0.000010720095
      18       -0.000007912981    -0.000024241450    -0.000035019942

  **** Optimization is complete! (in 4 steps) ****
    Final optimized geometry and variables:
    Molecular point group: c1

    Geometry (in Angstrom), charge = 0, multiplicity = 1:

    H           -3.002266527530    -1.262725484225     0.206243447641
    O           -2.173226808744    -0.906184002991    -0.078979318307
    C           -1.919741076981     0.300576818739     0.595486429160
    C           -0.559073034893     0.822217027717     0.166526961374
    H           -2.686604572609     1.035921569280     0.358453195626
    H           -1.935223011481     0.146015259816     1.673762879151
    C            0.601839769545    -0.095574226813     0.561812087609
    H           -0.571602510165     0.958259310526    -0.912022842648
    H           -0.416886902865     1.806927233270     0.607640829461
    C            1.962408008810     0.400129848142     0.029734546205
    H            0.392156417226    -1.084220985259     0.168638013307
    H            0.628161013634    -0.181729240710     1.645263485549
    C            2.421585008723    -0.349901292971    -1.222931442155
    H            1.894879941239     1.457487570945    -0.215558371601
    H            2.724243508575     0.306401489214     0.797850587797
    H            1.684674574877    -0.273788972972    -2.017635770000
    H            3.358235903480     0.049527432791    -1.600686955970
    H            2.570276819749    -1.405268286748    -1.013861552288

  Mulliken Charges: (a.u.)
   Center  Symbol    Alpha    Beta     Spin     Total
       1     H     0.28050  0.28050  0.00000  0.43900
       2     O     4.36974  4.36974  0.00000 -0.73948
       3     C     2.99751  2.99751  0.00000  0.00497
       4     C     3.16187  3.16187  0.00000 -0.32374
       5     H     0.42922  0.42922  0.00000  0.14156
       6     H     0.43273  0.43273  0.00000  0.13455
       7     C     3.15862  3.15862  0.00000 -0.31724
       8     H     0.41523  0.41523  0.00000  0.16953
       9     H     0.42365  0.42365  0.00000  0.15270
      10     C     3.15501  3.15501  0.00000 -0.31003
      11     H     0.40475  0.40475  0.00000  0.19049
      12     H     0.42456  0.42456  0.00000  0.15089
      13     C     3.23959  3.23959  0.00000 -0.47918
      14     H     0.42277  0.42277  0.00000  0.15446
      15     H     0.42089  0.42089  0.00000  0.15821
      16     H     0.42018  0.42018  0.00000  0.15963
      17     H     0.42203  0.42203  0.00000  0.15595
      18     H     0.42114  0.42114  0.00000  0.15772

   Total alpha = 25.00000, Total beta = 25.00000, Total charge = -0.00000
