  ==> Input File <==

--------------------------------------------------------------------------
set {
	reference rhf
	basis 6-31G*
}

set_num_threads( 1 )
memory 2 gb

molecule MOL {
0 1

H	 -1.792477	 -2.676587	 -1.737460
C	 -2.434315	 -1.830542	 -1.462008
C	 -2.353121	 -1.413488	 -0.015604
O	 -3.125645	 -1.314560	 -2.279061
C	 -0.910034	 -1.166473	 0.445632
H	 -2.971627	 -0.534176	 0.122125
H	 -2.784510	 -2.220954	 0.574785
C	 -0.252658	 0.041456	 -0.226725
H	 -0.912852	 -1.022943	 1.522050
H	 -0.313994	 -2.058886	 0.260991
C	 1.180775	 0.282413	 0.250794
H	 -0.853800	 0.927433	 -0.033025
H	 -0.253008	 -0.091883	 -1.306892
C	 2.148627	 -0.814315	 -0.201312
H	 1.516199	 1.249228	 -0.115937
H	 1.192670	 0.346017	 1.338083
C	 3.580890	 -0.659131	 0.322722
H	 2.166869	 -0.852443	 -1.289387
H	 1.762857	 -1.776509	 0.128956
C	 4.324889	 0.564933	 -0.213704
H	 4.142010	 -1.551473	 0.056605
H	 3.564836	 -0.624694	 1.410140
H	 4.342616	 0.565491	 -1.300421
H	 3.866655	 1.493402	 0.110242
H	 5.353900	 0.572371	 0.132816

	symmetry c1
}
set optking {
	frozen_dihedral = ("
		6 3 5 8,
		6 3 2 4,
		3 5 8 12,
		8 11 14 18,
		20 17 14 18
	")
}

ee = energy('scf')
oeprop('DIPOLE', 'QUADRUPOLE', 'MULLIKEN_CHARGES')
f=open( 'psi4out.xyz', 'w' )
f.write( "25  " )
f.write( str(ee) + "\n" )
f.write( MOL.save_string_xyz() )
f.close()
--------------------------------------------------------------------------

    Molecular point group: c1

    Geometry (in Angstrom), charge = 0, multiplicity = 1:

       Center              X                  Y                   Z               Mass
    ------------   -----------------  -----------------  -----------------  -----------------
           H         -2.039070688908    -1.979668697386    -1.348893664537     1.007825032070
           C         -2.680908688908    -1.133623697386    -1.073441664537    12.000000000000
           C         -2.599714688908    -0.716569697386     0.372962335463    12.000000000000
           O         -3.372238688908    -0.617641697386    -1.890494664537    15.994914619560
           C         -1.156627688908    -0.469554697386     0.834198335463    12.000000000000
           H         -3.218220688908     0.162742302614     0.510691335463     1.007825032070
           H         -3.031103688908    -1.524035697386     0.963351335463     1.007825032070
           C         -0.499251688908     0.738374302614     0.161841335463    12.000000000000
           H         -1.159445688908    -0.326024697386     1.910616335463     1.007825032070
           H         -0.560587688908    -1.361967697386     0.649557335463     1.007825032070
           C          0.934181311092     0.979331302614     0.639360335463    12.000000000000
           H         -1.100393688908     1.624351302614     0.355541335463     1.007825032070
           H         -0.499601688908     0.605035302614    -0.918325664537     1.007825032070
           C          1.902033311092    -0.117396697386     0.187254335463    12.000000000000
           H          1.269605311092     1.946146302614     0.272629335463     1.007825032070
           H          0.946076311092     1.042935302614     1.726649335463     1.007825032070
           C          3.334296311092     0.037787302614     0.711288335463    12.000000000000
           H          1.920275311092    -0.155524697386    -0.900820664537     1.007825032070
           H          1.516263311092    -1.079590697386     0.517522335463     1.007825032070
           C          4.078295311092     1.261851302614     0.174862335463    12.000000000000
           H          3.895416311092    -0.854554697386     0.445171335463     1.007825032070
           H          3.318242311092     0.072224302614     1.798706335463     1.007825032070
           H          4.096022311092     1.262409302614    -0.911854664537     1.007825032070
           H          3.620061311092     2.190320302614     0.498808335463     1.007825032070
           H          5.107306311092     1.269289302614     0.521382335463     1.007825032070

  Charge       = 0
  Multiplicity = 1
  Basis Set: 6-31G*
  Basis Set:

    Orbital Energies (a.u.)
    -----------------------

    Doubly Occupied:

       1A    -20.561874     2A    -11.326036     3A    -11.234776
       4A    -11.234134     5A    -11.223915     6A    -11.219952
       7A    -11.219285     8A    -11.218350     9A    -11.211045
      10A     -1.401859    11A     -1.106001    12A     -1.068701
      13A     -1.013562    14A     -0.940135    15A     -0.881803
      16A     -0.821649    17A     -0.792348    18A     -0.775041
      19A     -0.665848    20A     -0.650864    21A     -0.635717
      22A     -0.626320    23A     -0.611654    24A     -0.591990
      25A     -0.568178    26A     -0.566408    27A     -0.531927
      28A     -0.519200    29A     -0.518845    30A     -0.498002
      31A     -0.488421    32A     -0.478197    33A     -0.465087
      34A     -0.450628    35A     -0.446205    36A     -0.409370

  @DF-RHF Final Energy:  -387.11957693881112

   => Energetics <=

    Nuclear Repulsion Energy =            445.1656900595536968
    One-Electron Energy =               -1406.6240597262903975
    Two-Electron Energy =                 574.3387927279258065
    DFT Exchange-Correlation Energy =       0.0000000000000000
    Empirical Dispersion Energy =           0.0000000000000000
    PCM Polarization Energy =               0.0000000000000000
    EFP Energy =                            0.0000000000000000
    Total Energy =                       -387.1195769388108374

  Mulliken Charges: (a.u.)
   Center  Symbol    Alpha    Beta     Spin     Total
       1     H     0.43269  0.43269  0.00000  0.13462
       2     C     2.83080  2.83080  0.00000  0.33840
       3     C     3.20716  3.20716  0.00000 -0.41432
       4     O     4.23787  4.23787  0.00000 -0.47573
       5     C     3.16920  3.16920  0.00000 -0.33840
       6     H     0.39989  0.39989  0.00000  0.20023
       7     H     0.40686  0.40686  0.00000  0.18629
       8     C     3.15644  3.15644  0.00000 -0.31288
       9     H     0.41302  0.41302  0.00000  0.17396
      10     H     0.41775  0.41775  0.00000  0.16450
      11     C     3.15626  3.15626  0.00000 -0.31253
      12     H     0.41589  0.41589  0.00000  0.16822
      13     H     0.41829  0.41829  0.00000  0.16342
      14     C     3.15632  3.15632  0.00000 -0.31265
      15     H     0.41612  0.41612  0.00000  0.16775
      16     H     0.42361  0.42361  0.00000  0.15278
      17     C     3.15163  3.15163  0.00000 -0.30326
      18     H     0.42289  0.42289  0.00000  0.15423
      19     H     0.42190  0.42190  0.00000  0.15620
      20     C     3.24155  3.24155  0.00000 -0.48310
      21     H     0.42064  0.42064  0.00000  0.15871
      22     H     0.42321  0.42321  0.00000  0.15358
      23     H     0.42153  0.42153  0.00000  0.15694
      24     H     0.41989  0.41989  0.00000  0.16023
      25     H     0.41859  0.41859  0.00000  0.16282

   Total alpha = 36.00000, Total beta = 36.00000, Total charge = -0.00000
