                              Psi4 1.0.54 Driver

  ==> Input File <==

--------------------------------------------------------------------------
set {
	reference rhf
	basis cc-pvtz
}

set_num_threads( 4 )
memory 2 gb

molecule MOL {
0 1

H	 -4.024094	 -0.454727	 0.000004
C	 -2.962215	 -0.297920	 0.000004
C	 -2.454736	 0.988978	 0.000025
C	 -2.105837	 -1.382632	 -0.000016
H	 -3.120052	 1.830438	 0.000041
C	 -1.090106	 1.189676	 0.000026
H	 -2.500390	 -2.380229	 -0.000033
C	 -0.739175	 -1.183302	 -0.000016
H	 -0.680214	 2.179144	 0.000042
C	 -0.227341	 0.104540	 0.000006
H	 -0.073209	 -2.021168	 -0.000032
C	 1.238974	 0.374429	 0.000004
O	 1.748545	 0.468240	 -1.213884
O	 1.887499	 0.493819	 0.985063
C	 3.135798	 0.723535	 -1.313457
H	 3.383408	 1.663565	 -0.843979
H	 3.353996	 0.763852	 -2.368139
H	 3.701855	 -0.066903	 -0.844219

	symmetry c1
}
set optking {
	frozen_dihedral = ("
		13 12 10 6
	")
}

ee,wfn = optimize('scf', return_wfn=True)
oeprop( wfn, 'DIPOLE', 'QUADRUPOLE', 'MULLIKEN_CHARGES')
f=open( 'psi4out.xyz', 'w' )
f.write( "18  " )
f.write( str(ee) + "\n" )
f.write( MOL.save_string_xyz() )
f.close()
--------------------------------------------------------------------------

    Molecular point group: c1
  Charge       = 0
  Multiplicity = 1
  Basis Set: CC-PVTZ
  Basis Set:
  @DF-RHF Final Energy:  -457.49859053898365
    Total Energy =                       -457.4985905389833079
    Molecular point group: c1
  Basis Set: CC-PVTZ
  Basis Set:
  Basis Set: CC-PVTZ
  Basis Set:
  @DF-RHF Final Energy:  -457.49863707269276
    Total Energy =                       -457.4986370726931000
  Basis Set: CC-PVTZ
  Basis Set:
  Basis Set: CC-PVTZ
  Basis Set:
  @DF-RHF Final Energy:  -457.49895002105637
    Total Energy =                       -457.4989500210558617
  Basis Set: CC-PVTZ
  Basis Set:
  Basis Set: CC-PVTZ
  Basis Set:
  @DF-RHF Final Energy:  -457.49902219970522
    Total Energy =                       -457.4990221997055642
  Basis Set: CC-PVTZ
  Basis Set:
  Charge       = 0
  Multiplicity = 1
  Basis Set: CC-PVTZ
  Basis Set:

    Orbital Energies (a.u.)
    -----------------------

    Doubly Occupied:

       1A    -20.604378     2A    -20.541656     3A    -11.375168
       4A    -11.282718     5A    -11.250925     6A    -11.241463
       7A    -11.241366     8A    -11.238400     9A    -11.237836
      10A    -11.236403    11A     -1.480544    12A     -1.373409
      13A     -1.171603    14A     -1.052325    15A     -1.029494
      16A     -0.982877    17A     -0.862542    18A     -0.842171
      19A     -0.784270    20A     -0.742576    21A     -0.688753
      22A     -0.685326    23A     -0.682751    24A     -0.636417
      25A     -0.632046    26A     -0.600098    27A     -0.594812
      28A     -0.551614    29A     -0.540122    30A     -0.522689
      31A     -0.512297    32A     -0.504806    33A     -0.465708
      34A     -0.449812    35A     -0.347563    36A     -0.346882

  @DF-RHF Final Energy:  -457.49902463527127

   => Energetics <=

    Nuclear Repulsion Energy =            492.5201005501994018
    One-Electron Energy =               -1599.3706129232978128
    Two-Electron Energy =                 649.3514877378272558
    DFT Exchange-Correlation Energy =       0.0000000000000000
    Empirical Dispersion Energy =           0.0000000000000000
    PCM Polarization Energy =               0.0000000000000000
    EFP Energy =                            0.0000000000000000
    Total Energy =                       -457.4990246352710983
    Molecular point group: c1
  Basis Set: CC-PVTZ
  Basis Set:

  -Total Gradient:
     Atom            X                  Y                   Z
    ------   -----------------  -----------------  -----------------
       1        0.000007424616     0.000001281127    -0.000015636550
       2        0.000034101671    -0.000205739047     0.000007250555
       3        0.000153967096     0.000161531020     0.000020210956
       4       -0.000221814361     0.000010121356     0.000034942268
       5        0.000002529519     0.000001799598     0.000011110877
       6       -0.000149440271     0.000190121373     0.000053931363
       7        0.000010366366    -0.000003576623     0.000008996279
       8        0.000161921579     0.000068992047    -0.000111298154
       9       -0.000008205742    -0.000082392263     0.000012521353
      10        0.000176582486    -0.000339279142    -0.000070334029
      11       -0.000065756253     0.000045172590     0.000019132469
      12        0.000013540374     0.000383049571    -0.000082471847
      13       -0.000069210530    -0.000211881690     0.000108227019
      14       -0.000087208218    -0.000055807253     0.000008278132
      15        0.000120767873     0.000073829957     0.000018375394
      16       -0.000003647963    -0.000046719945    -0.000026447717
      17       -0.000039919222    -0.000011217529     0.000014095183
      18       -0.000035999022     0.000020714851    -0.000010883545

  **** Optimization is complete! (in 5 steps) ****
    Final optimized geometry and variables:
    Molecular point group: c1

    Geometry (in Angstrom), charge = 0, multiplicity = 1:

    H           -3.993055836308    -0.641120904184     0.180349867878
    C           -2.933468194991    -0.471937871129     0.173722111897
    C           -2.438641753688     0.818603451829     0.175012599817
    C           -2.061584349051    -1.543601760103     0.165859674504
    H           -3.112447586934     1.653599182030     0.183678821389
    C           -1.074991510796     1.038037533595     0.166905554811
    H           -2.441426924156    -2.547103678936     0.167234391491
    C           -0.696833840989    -1.327141126124     0.158315844410
    H           -0.692320517085     2.040674322928     0.171447548015
    C           -0.204065017568    -0.035876883156     0.159118065766
    H           -0.021189285819    -2.160945200477     0.157051531255
    C            1.276336888445     0.201478689786     0.181075959899
    O            1.781174068762     0.300883955241    -1.032591878026
    O            1.920046715838     0.288460188525     1.168917108955
    C            3.174790658807     0.526977679522    -1.137392984438
    H            3.446169478418     1.454680090121    -0.656378214334
    H            3.386988071777     0.576556748453    -2.192631988378
    H            3.725722300025    -0.282064107876    -0.681763555109

  Mulliken Charges: (a.u.)
   Center  Symbol    Alpha    Beta     Spin     Total
       1     H     0.42160  0.42160  0.00000  0.15679
       2     C     3.08491  3.08491  0.00000 -0.16981
       3     C     3.06509  3.06509  0.00000 -0.13017
       4     C     3.06509  3.06509  0.00000 -0.13019
       5     H     0.42179  0.42179  0.00000  0.15642
       6     C     3.09174  3.09174  0.00000 -0.18347
       7     H     0.42177  0.42177  0.00000  0.15645
       8     C     3.09178  3.09178  0.00000 -0.18356
       9     H     0.42434  0.42434  0.00000  0.15133
      10     C     2.91414  2.91414  0.00000  0.17172
      11     H     0.42418  0.42418  0.00000  0.15165
      12     C     2.84666  2.84666  0.00000  0.30669
      13     O     4.14312  4.14312  0.00000 -0.28624
      14     O     4.19632  4.19632  0.00000 -0.39263
      15     C     3.03740  3.03740  0.00000 -0.07480
      16     H     0.45363  0.45363  0.00000  0.09275
      17     H     0.44292  0.44292  0.00000  0.11415
      18     H     0.45354  0.45354  0.00000  0.09293

   Total alpha = 36.00000, Total beta = 36.00000, Total charge =  0.00000

*** Psi4 exiting successfully. Buy a developer a beer!
