                              Psi4 1.0.54 Driver

  ==> Input File <==

--------------------------------------------------------------------------
set {
	reference rhf
	basis cc-pvtz
}

set_num_threads( 4 )
memory 2 gb

molecule MOL {
0 1

H	 2.342730	 0.877684	 -1.045694
C	 2.360424	 0.000000	 -0.411793
C	 1.173749	 0.000000	 0.526870
H	 3.286567	 0.000000	 0.151574
H	 2.342730	 -0.877684	 -1.045694
O	 0.000000	 0.000000	 -0.223739
H	 1.203779	 0.876757	 1.172538
H	 1.203779	 -0.876757	 1.172538
C	 -1.173749	 0.000000	 0.526870
C	 -0.915768	 -0.692323	 1.847256
H	 -1.965587	 -0.511676	 -0.018724
H	 -1.508250	 1.022669	 0.696428
H	 -0.597146	 -1.714221	 1.683926
H	 -1.817318	 -0.704109	 2.449081
H	 -0.139325	 -0.178254	 2.399834

	symmetry c1
}
set optking {
	frozen_dihedral = ("
		11 9 6 3
	")
}

ee,wfn = optimize('scf', return_wfn=True)
oeprop( wfn, 'DIPOLE', 'QUADRUPOLE', 'MULLIKEN_CHARGES')
f=open( 'psi4out.xyz', 'w' )
f.write( "15  " )
f.write( str(ee) + "\n" )
f.write( MOL.save_string_xyz() )
f.close()
--------------------------------------------------------------------------

    Molecular point group: c1
  Charge       = 0
  Multiplicity = 1
  Basis Set: CC-PVTZ
  Basis Set:
  @DF-RHF Final Energy:  -232.21478184138303
    Total Energy =                       -232.2147818413830009
    Molecular point group: c1
  Basis Set: CC-PVTZ
  Basis Set:
  Basis Set: CC-PVTZ
  Basis Set:
  @DF-RHF Final Energy:  -230.85177134948049
    Total Energy =                       -230.8517713494804866
  Basis Set: CC-PVTZ
  Basis Set:
  Basis Set: CC-PVTZ
  Basis Set:
  @DF-RHF Final Energy:  -231.03496351108964
    Total Energy =                       -231.0349635110894155
  Basis Set: CC-PVTZ
  Basis Set:
  Basis Set: CC-PVTZ
  Basis Set:
  @DF-RHF Final Energy:  -231.40283526261001
    Total Energy =                       -231.4028352626099547
  Basis Set: CC-PVTZ
  Basis Set:
  @DF-RHF Final Energy:  -231.76910806141174
    Total Energy =                       -231.7691080614117709
  @DF-RHF Final Energy:  -232.06270792444553
    Total Energy =                       -232.0627079244454194
  @DF-RHF Final Energy:  -232.16113568222090
    Total Energy =                       -232.1611356822209586
  @DF-RHF Final Energy:  -232.21804319697478
    Total Energy =                       -232.2180431969744632
  @DF-RHF Final Energy:  -232.22469542201591
    Total Energy =                       -232.2246954220159978
  @DF-RHF Final Energy:  -232.22530340624817
    Total Energy =                       -232.2253034062482584
  Basis Set: CC-PVTZ
  Basis Set:
  @DF-RHF Final Energy:  -232.22561560225716
    Total Energy =                       -232.2256156022569371
  Basis Set: CC-PVTZ
  Basis Set:
  Basis Set: CC-PVTZ
  Basis Set:
  @DF-RHF Final Energy:  -232.22561686639173
    Total Energy =                       -232.2256168663917038
  Basis Set: CC-PVTZ
  Basis Set:
  Basis Set: CC-PVTZ
  Basis Set:
  @DF-RHF Final Energy:  -232.22569412945589
    Total Energy =                       -232.2256941294558032
  Basis Set: CC-PVTZ
  Basis Set:
  Charge       = 0
  Multiplicity = 1
  Basis Set: CC-PVTZ
  Basis Set:

    Orbital Energies (a.u.)
    -----------------------

    Doubly Occupied:

       1A    -20.540752     2A    -11.266694     3A    -11.264850
       4A    -11.213743     5A    -11.205344     6A     -1.373113
       7A     -1.040779     8A     -0.990955     9A     -0.871453
      10A     -0.797801    11A     -0.676493    12A     -0.661764
      13A     -0.622899    14A     -0.596730    15A     -0.547711
      16A     -0.536183    17A     -0.523549    18A     -0.502503
      19A     -0.496982    20A     -0.451234    21A     -0.406255

  @DF-RHF Final Energy:  -232.22569465485918

   => Energetics <=

    Nuclear Repulsion Energy =            193.4405443923929511
    One-Electron Energy =                -698.1569038429828424
    Two-Electron Energy =                 272.4906647957307086
    DFT Exchange-Correlation Energy =       0.0000000000000000
    Empirical Dispersion Energy =           0.0000000000000000
    PCM Polarization Energy =               0.0000000000000000
    EFP Energy =                            0.0000000000000000
    Total Energy =                       -232.2256946548591827
    Molecular point group: c1
  Basis Set: CC-PVTZ
  Basis Set:

  -Total Gradient:
     Atom            X                  Y                   Z
    ------   -----------------  -----------------  -----------------
       1       -0.000055510236     0.000051414721     0.000003953405
       2        0.000058539202    -0.000078893305    -0.000023464913
       3        0.002582848888    -0.002391539414    -0.002322764187
       4       -0.000003443994    -0.000014720514    -0.000006961952
       5        0.000024199354     0.000015367224    -0.000020309203
       6       -0.003288978345     0.002976368481     0.003454499607
       7        0.000011482104    -0.000018477108     0.000058340013
       8        0.000040278761    -0.000057024874    -0.000038056405
       9       -0.003060117711     0.003108119159    -0.000956243684
      10       -0.000059619257    -0.000074077428     0.000009979300
      11        0.003694533074    -0.003554157677    -0.000167301146
      12       -0.000020170551     0.000013767091     0.000012263833
      13        0.000034301208    -0.000017685793    -0.000025141243
      14        0.000046982592     0.000034080956     0.000020718915
      15       -0.000005325091     0.000007458482     0.000000487661

  **** Optimization is complete! (in 14 steps) ****
    Final optimized geometry and variables:
    Molecular point group: c1

    Geometry (in Angstrom), charge = 0, multiplicity = 1:

    H            0.928081088765     2.567589220168     0.489940186299
    C            1.538421152747     1.673891448855     0.452300765965
    C            0.676696012716     0.435456521642     0.576932647137
    H            2.260357780917     1.713427522804     1.260417214141
    H            2.074211795374     1.668390781652    -0.488853177848
    O           -0.224165709709     0.426059595764    -0.487500442124
    H            0.148532975808     0.447617410953     1.529604178854
    H            1.302951565932    -0.451021169907     0.563659144849
    C           -1.195320297953    -0.581301823286    -0.564299846737
    C           -0.808434008798    -1.937709166099     0.010435418749
    H           -1.382896633890    -0.723922116307    -1.620698102927
    H           -2.112141981270    -0.235473328880    -0.092951940769
    H            0.088414152358    -2.324558912305    -0.459016000044
    H           -1.614553261989    -2.635233082336    -0.186395700460
    H           -0.651946344657    -1.910903910512     1.081142917469

  Mulliken Charges: (a.u.)
   Center  Symbol    Alpha    Beta     Spin     Total
       1     H     0.45156  0.45156  0.00000  0.09688
       2     C     3.13623  3.13623  0.00000 -0.27247
       3     C     2.96662  2.96662  0.00000  0.06675
       4     H     0.45956  0.45956  0.00000  0.08088
       5     H     0.45175  0.45175  0.00000  0.09651
       6     O     4.18287  4.18287  0.00000 -0.36574
       7     H     0.47367  0.47367  0.00000  0.05265
       8     H     0.46975  0.46975  0.00000  0.06049
       9     C     2.97325  2.97325  0.00000  0.05349
      10     C     3.16405  3.16405  0.00000 -0.32811
      11     H     0.45751  0.45751  0.00000  0.08499
      12     H     0.46608  0.46608  0.00000  0.06783
      13     H     0.45035  0.45035  0.00000  0.09930
      14     H     0.44581  0.44581  0.00000  0.10838
      15     H     0.45091  0.45091  0.00000  0.09818

   Total alpha = 21.00000, Total beta = 21.00000, Total charge =  0.00000

*** Psi4 exiting successfully. Buy a developer a beer!
