  ==> Input File <==

--------------------------------------------------------------------------
set {
	reference rhf
	basis 6-31G*
}

set_num_threads( 4 )
memory 2 gb

molecule MOL {
0 1

H	 -2.347465	 -0.513130	 2.338041
C	 -2.233485	 -1.498906	 1.891504
O	 -1.040535	 -1.601955	 1.183275
H	 -2.210150	 -2.239364	 2.679106
H	 -3.095723	 -1.690736	 1.254186
C	 -0.927758	 -0.706402	 0.122844
C	 0.443676	 -0.836689	 -0.497154
H	 -1.684626	 -0.918573	 -0.633350
H	 -1.071509	 0.316975	 0.463490
O	 1.392611	 -0.295398	 0.366430
H	 0.651222	 -1.887095	 -0.691007
H	 0.456977	 -0.309488	 -1.451919
C	 2.706965	 -0.449871	 -0.062409
H	 2.756559	 -0.644779	 -1.131878
H	 3.305899	 0.433456	 0.155466
H	 3.125548	 -1.294566	 0.467107

	symmetry c1
}
set optking {
	frozen_dihedral = ("
		7 10 13 14
	")
}

ee = optimize('scf')
oeprop('DIPOLE', 'QUADRUPOLE', 'MULLIKEN_CHARGES')
f=open( 'psi4out.xyz', 'w' )
f.write( "16  " )
f.write( str(ee) + "\n" )
f.write( MOL.save_string_xyz() )
f.close()
--------------------------------------------------------------------------

    Molecular point group: c1
  Charge       = 0
  Multiplicity = 1
  Basis Set: 6-31G*
  Basis Set:
  @DF-RHF Final Energy:  -306.97394544092293
    Total Energy =                       -306.9739454409230461
    Molecular point group: c1
  Basis Set: 6-31G*
  Basis Set:
  Basis Set: 6-31G*
  Basis Set:
  @DF-RHF Final Energy:  -306.97457948367827
    Total Energy =                       -306.9745794836782125
  Basis Set: 6-31G*
  Basis Set:
  Basis Set: 6-31G*
  Basis Set:
  @DF-RHF Final Energy:  -306.97472998654632
    Total Energy =                       -306.9747299865463788
  Basis Set: 6-31G*
  Basis Set:
  Charge       = 0
  Multiplicity = 1
  Basis Set: 6-31G*
  Basis Set:

    Orbital Energies (a.u.)
    -----------------------

    Doubly Occupied:

       1A    -20.553222     2A    -20.550386     3A    -11.269215
       4A    -11.268133     5A    -11.263268     6A    -11.263103
       7A     -1.386303     8A     -1.368131     9A     -1.030472
      10A     -0.936023    11A     -0.891989    12A     -0.823701
      13A     -0.682768    14A     -0.679163    15A     -0.656352
      16A     -0.633439    17A     -0.628795    18A     -0.596123
      19A     -0.552821    20A     -0.537829    21A     -0.508015
      22A     -0.477261    23A     -0.461940    24A     -0.417511
      25A     -0.407567

  @DF-RHF Final Energy:  -306.97473097830556

   => Energetics <=

    Nuclear Repulsion Energy =            258.5939702452291726
    One-Electron Energy =                -931.4503387703705357
    Two-Electron Energy =                 365.8816375468358615
    DFT Exchange-Correlation Energy =       0.0000000000000000
    Empirical Dispersion Energy =           0.0000000000000000
    PCM Polarization Energy =               0.0000000000000000
    EFP Energy =                            0.0000000000000000
    Total Energy =                       -306.9747309783054448
    Molecular point group: c1
  Basis Set: 6-31G*
  Basis Set:

  -Total Gradient:
     Atom            X                  Y                   Z
    ------   -----------------  -----------------  -----------------
       1        0.000000547658     0.000000204503    -0.000001214337
       2       -0.000000179977    -0.000005464464     0.000007809985
       3       -0.000011973140     0.000004381590     0.000017369195
       4       -0.000002845297     0.000000055226     0.000002128746
       5        0.000002741222     0.000000722761    -0.000001785631
       6        0.000024255941    -0.000018553842     0.000022155450
       7       -0.000121610371     0.001934348392    -0.001139597564
       8       -0.000006012507    -0.000001243485    -0.000009275123
       9        0.000008966991    -0.000011840935    -0.000004948012
      10        0.000248923792    -0.003438795853     0.001597453454
      11        0.000020790996     0.000032918599     0.000042289326
      12        0.000005227276    -0.000013304462    -0.000012992981
      13        0.000119909720     0.004112715488    -0.000968283851
      14       -0.000215519770    -0.002611688112     0.000433328451
      15       -0.000075017307     0.000022140129     0.000004051718
      16        0.000001794770    -0.000006595536     0.000011511175

  **** Optimization is complete! (in 4 steps) ****
    Final optimized geometry and variables:
    Molecular point group: c1

    Geometry (in Angstrom), charge = 0, multiplicity = 1:

    H           -2.394205447454     0.396022621528     1.840767372900
    C           -2.291849411195    -0.589166369562     1.390135984613
    O           -1.104316686736    -0.700578082558     0.674103330350
    H           -2.270631470407    -1.332583296836     2.175008397885
    H           -3.159429718343    -0.770762145603     0.757156632042
    C           -0.989980264196     0.197532775773    -0.384071372887
    C            0.376718805526     0.058860145626    -1.012443273889
    H           -1.752843481776    -0.005922713178    -1.136760375548
    H           -1.123349431148     1.220810529350    -0.039172892877
    O            1.332269349481     0.591781008766    -0.149552698859
    H            0.571321154675    -0.992782914569    -1.211042874261
    H            0.388477241980     0.590158607212    -1.964161484949
    C            2.658556248681     0.449128473931    -0.560756725383
    H            2.733863739501     0.262110734638    -1.628673270225
    H            3.195951308655     1.357788098475    -0.320754211486
    H            3.128755561002    -0.383570366146    -0.044582572273

  Mulliken Charges: (a.u.)
   Center  Symbol    Alpha    Beta     Spin     Total
       1     H     0.42808  0.42808  0.00000  0.14384
       2     C     3.07943  3.07943  0.00000 -0.15887
       3     O     4.30087  4.30087  0.00000 -0.60174
       4     H     0.41136  0.41136  0.00000  0.17727
       5     H     0.43196  0.43196  0.00000  0.13607
       6     C     2.99344  2.99344  0.00000  0.01312
       7     C     2.99352  2.99352  0.00000  0.01296
       8     H     0.43247  0.43247  0.00000  0.13505
       9     H     0.42281  0.42281  0.00000  0.15438
      10     O     4.30466  4.30466  0.00000 -0.60932
      11     H     0.42274  0.42274  0.00000  0.15452
      12     H     0.43182  0.43182  0.00000  0.13635
      13     C     3.07658  3.07658  0.00000 -0.15316
      14     H     0.43140  0.43140  0.00000  0.13720
      15     H     0.41653  0.41653  0.00000  0.16693
      16     H     0.42232  0.42232  0.00000  0.15537

   Total alpha = 25.00000, Total beta = 25.00000, Total charge = -0.00000
