  ==> Input File <==

--------------------------------------------------------------------------
set {
	reference rhf
	basis cc-pvtz
}

set_num_threads( 4 )
memory 2 gb

molecule MOL {
0 1

H	 2.141179	 -1.149246	 2.391218
O	 2.534182	 -0.522216	 1.810611
C	 1.637132	 -0.028286	 0.938880
C	 2.086081	 0.910762	 0.021409
C	 0.315765	 -0.421121	 0.933414
H	 3.117476	 1.202160	 0.043055
C	 1.213157	 1.450970	 -0.894850
H	 -0.057584	 -1.143310	 1.629367
C	 -0.532034	 0.141680	 0.000000
H	 1.569058	 2.176041	 -1.600083
C	 -0.118716	 1.072257	 -0.920041
N	 -1.937041	 -0.281114	 0.000000
H	 -0.807642	 1.482963	 -1.625324
O	 -2.159542	 -1.446261	 0.000000
O	 -2.764978	 0.565773	 0.000000

	symmetry c1
}
set optking {
	frozen_dihedral = ("
		11 9 12 14
	")
}

ee = optimize('scf')
oeprop('DIPOLE', 'QUADRUPOLE', 'MULLIKEN_CHARGES')
f=open( 'psi4out.xyz', 'w' )
f.write( "15  " )
f.write( str(ee) + "\n" )
f.write( MOL.save_string_xyz() )
f.close()
--------------------------------------------------------------------------

    Molecular point group: c1
  Charge       = 0
  Multiplicity = 1
  Basis Set: CC-PVTZ
  Basis Set:
  @DF-RHF Final Energy:  -509.21417253326774
    Total Energy =                       -509.2141725332676288
    Molecular point group: c1
  Basis Set: CC-PVTZ
  Basis Set:
  Basis Set: CC-PVTZ
  Basis Set:
  @DF-RHF Final Energy:  -509.20814108501997
    Total Energy =                       -509.2081410850197472
  Basis Set: CC-PVTZ
  Basis Set:
  Basis Set: CC-PVTZ
  Basis Set:
  @DF-RHF Final Energy:  -509.21433535279817
    Total Energy =                       -509.2143353527983436
  Basis Set: CC-PVTZ
  Basis Set:
  Basis Set: CC-PVTZ
  Basis Set:
  @DF-RHF Final Energy:  -509.21465140070291
    Total Energy =                       -509.2146514007033602
  Basis Set: CC-PVTZ
  Basis Set:
  Basis Set: CC-PVTZ
  Basis Set:
  @DF-RHF Final Energy:  -509.21465359516873
    Total Energy =                       -509.2146535951685564
  Basis Set: CC-PVTZ
  Basis Set:
  Basis Set: CC-PVTZ
  Basis Set:
  @DF-RHF Final Energy:  -509.21428625685104
    Total Energy =                       -509.2142862568507553
  Basis Set: CC-PVTZ
  Basis Set:
  Basis Set: CC-PVTZ
  Basis Set:
  @DF-RHF Final Energy:  -509.21465476569477
    Total Energy =                       -509.2146547656946041
  Basis Set: CC-PVTZ
  Basis Set:
  Charge       = 0
  Multiplicity = 1
  Basis Set: CC-PVTZ
  Basis Set:

    Orbital Energies (a.u.)
    -----------------------

    Doubly Occupied:

       1A    -20.609833     2A    -20.598028     3A    -20.597642
       4A    -15.850271     5A    -11.329623     6A    -11.311886
       7A    -11.264521     8A    -11.263837     9A    -11.258772
      10A    -11.253449    11A     -1.645845    12A     -1.442649
      13A     -1.428877    14A     -1.204127    15A     -1.096611
      16A     -1.049497    17A     -0.966960    18A     -0.885085
      19A     -0.832860    20A     -0.793987    21A     -0.764452
      22A     -0.740726    23A     -0.725309    24A     -0.712342
      25A     -0.674544    26A     -0.636244    27A     -0.623053
      28A     -0.597508    29A     -0.564248    30A     -0.549057
      31A     -0.531280    32A     -0.494901    33A     -0.490875
      34A     -0.459560    35A     -0.377859    36A     -0.346636

  @DF-RHF Final Energy:  -509.21465482946985

   => Energetics <=

    Nuclear Repulsion Energy =            504.4168186400837612
    One-Electron Energy =               -1695.3170330193051996
    Two-Electron Energy =                 681.6855595497518152
    DFT Exchange-Correlation Energy =       0.0000000000000000
    Empirical Dispersion Energy =           0.0000000000000000
    PCM Polarization Energy =               0.0000000000000000
    EFP Energy =                            0.0000000000000000
    Total Energy =                       -509.2146548294695094
    Molecular point group: c1
  Basis Set: CC-PVTZ
  Basis Set:

  -Total Gradient:
     Atom            X                  Y                   Z
    ------   -----------------  -----------------  -----------------
       1       -0.000001095160     0.000002959563     0.000002734160
       2        0.000005124811    -0.000020745851    -0.000016282617
       3       -0.000005327179     0.000052341366     0.000036046827
       4        0.000000839567    -0.000009011550     0.000006900461
       5        0.000017477571    -0.000054542974    -0.000046779656
       6       -0.000001260591     0.000006203443     0.000002885954
       7        0.000006635960    -0.000040976963    -0.000042317261
       8        0.000003360283     0.000003904314    -0.000004353270
       9       -0.001615891711     0.004872570824     0.002236752792
      10       -0.000000872763     0.000006282848     0.000005391700
      11        0.001135123222    -0.003325955878    -0.002789654250
      12        0.000325219377    -0.001349861065     0.005718542862
      13        0.000004729558    -0.000005383946    -0.000002237115
      14        0.000116309746    -0.000116096616    -0.005112866038
      15        0.000009627308    -0.000021687520     0.000005235452

  **** Optimization is complete! (in 8 steps) ****
    Final optimized geometry and variables:
    Molecular point group: c1

    Geometry (in Angstrom), charge = 0, multiplicity = 1:

    H            2.172352563227    -1.255052936813     2.168062262770
    O            2.561313282769    -0.622690541444     1.590602659301
    C            1.662804864964    -0.126616130002     0.723467886558
    C            2.111892474564     0.805258490490    -0.201791537737
    C            0.339836020690    -0.518592778929     0.720714519994
    H            3.146024398325     1.086692311202    -0.190566806524
    C            1.237356428992     1.345658761618    -1.115994167614
    H           -0.027563428020    -1.262233102646     1.399791890666
    C           -0.510291848734     0.069766732661    -0.190537709703
    H            1.596823841535     2.055955572511    -1.834476277357
    C           -0.101216739736     0.987260663475    -1.121785019166
    N           -1.902976761713    -0.379615401707    -0.217264957879
    H           -0.796832159821     1.409682828811    -1.816117047656
    O           -2.094490404750    -1.549563035963    -0.197594459835
    O           -2.741015445584     0.453706406323    -0.295851094262

  Mulliken Charges: (a.u.)
   Center  Symbol    Alpha    Beta     Spin     Total
       1     H     0.38446  0.38446  0.00000  0.23107
       2     O     4.16749  4.16749  0.00000 -0.33499
       3     C     2.84380  2.84380  0.00000  0.31240
       4     C     3.10209  3.10209  0.00000 -0.20419
       5     C     3.14047  3.14047  0.00000 -0.28095
       6     H     0.41375  0.41375  0.00000  0.17249
       7     C     3.05301  3.05301  0.00000 -0.10603
       8     H     0.41766  0.41766  0.00000  0.16468
       9     C     2.93409  2.93409  0.00000  0.13182
      10     H     0.41621  0.41621  0.00000  0.16758
      11     C     3.10711  3.10711  0.00000 -0.21422
      12     N     3.27612  3.27612  0.00000  0.44776
      13     H     0.40758  0.40758  0.00000  0.18484
      14     O     4.16855  4.16855  0.00000 -0.33710
      15     O     4.16758  4.16758  0.00000 -0.33517

   Total alpha = 36.00000, Total beta = 36.00000, Total charge =  0.00000
