                              Psi4 1.0.54 Driver

  ==> Input File <==

--------------------------------------------------------------------------
set {
	reference rhf
	basis cc-pvtz
}

set_num_threads( 4 )
memory 2 gb

molecule MOL {
0 1

H	 -2.404763	 1.577983	 -0.810013
O	 -1.573053	 1.130236	 -0.848718
C	 -1.605397	 0.107680	 0.001145
C	 -0.310616	 -0.658853	 0.000791
O	 -2.556820	 -0.131968	 0.660943
C	 0.926581	 0.227233	 0.000178
H	 -0.327628	 -1.313681	 -0.864448
H	 -0.327041	 -1.313334	 0.866298
C	 2.220156	 -0.582071	 -0.000088
H	 0.899945	 0.878221	 -0.866390
H	 0.900542	 0.878581	 0.866486
C	 3.466689	 0.296012	 -0.000457
H	 2.239073	 -1.234095	 -0.869382
H	 2.239505	 -1.233985	 0.869270
H	 3.493549	 0.935857	 -0.875887
H	 4.368821	 -0.304526	 -0.001199
H	 3.494559	 0.935166	 0.875458

	symmetry c1
}
set optking {
	frozen_dihedral = ("
		2 3 4 7
	")
}

ee,wfn = optimize('scf', return_wfn=True)
oeprop( wfn, 'DIPOLE', 'QUADRUPOLE', 'MULLIKEN_CHARGES')
f=open( 'psi4out.xyz', 'w' )
f.write( "17  " )
f.write( str(ee) + "\n" )
f.write( MOL.save_string_xyz() )
f.close()
--------------------------------------------------------------------------

    Molecular point group: c1
  Charge       = 0
  Multiplicity = 1
  Basis Set: CC-PVTZ
  Basis Set:
  @DF-RHF Final Energy:  -345.04669493781779
    Total Energy =                       -345.0466949378180175
    Molecular point group: c1
  Basis Set: CC-PVTZ
  Basis Set:
  Basis Set: CC-PVTZ
  Basis Set:
  @DF-RHF Final Energy:  -345.04653772495351
    Total Energy =                       -345.0465377249536232
  Basis Set: CC-PVTZ
  Basis Set:
  Basis Set: CC-PVTZ
  Basis Set:
  @DF-RHF Final Energy:  -345.04676574089706
    Total Energy =                       -345.0467657408970581
  Basis Set: CC-PVTZ
  Basis Set:
  Basis Set: CC-PVTZ
  Basis Set:
  @DF-RHF Final Energy:  -345.04710009371149
    Total Energy =                       -345.0471000937117196
  Basis Set: CC-PVTZ
  Basis Set:
  Basis Set: CC-PVTZ
  Basis Set:
  @DF-RHF Final Energy:  -345.04711441091069
    Total Energy =                       -345.0471144109108650
  Basis Set: CC-PVTZ
  Basis Set:
  Charge       = 0
  Multiplicity = 1
  Basis Set: CC-PVTZ
  Basis Set:

    Orbital Energies (a.u.)
    -----------------------

    Doubly Occupied:

       1A    -20.605275     2A    -20.538446     3A    -11.373172
       4A    -11.238816     5A    -11.227924     6A    -11.223929
       7A    -11.213785     8A     -1.477906     9A     -1.367887
      10A     -1.095842    11A     -1.020719    12A     -0.911041
      13A     -0.826030    14A     -0.809235    15A     -0.704162
      16A     -0.683623    17A     -0.662086    18A     -0.636367
      19A     -0.592209    20A     -0.584669    21A     -0.579166
      22A     -0.537244    23A     -0.515145    24A     -0.499678
      25A     -0.486961    26A     -0.478570    27A     -0.474668
      28A     -0.437133

  @DF-RHF Final Energy:  -345.04711522554362

   => Energetics <=

    Nuclear Repulsion Energy =            305.3915159223550972
    One-Electron Energy =               -1075.2738855933819195
    Two-Electron Energy =                 424.8352544454834288
    DFT Exchange-Correlation Energy =       0.0000000000000000
    Empirical Dispersion Energy =           0.0000000000000000
    PCM Polarization Energy =               0.0000000000000000
    EFP Energy =                            0.0000000000000000
    Total Energy =                       -345.0471152255433935
    Molecular point group: c1
  Basis Set: CC-PVTZ
  Basis Set:

  -Total Gradient:
     Atom            X                  Y                   Z
    ------   -----------------  -----------------  -----------------
       1       -0.000019221141     0.000002316803    -0.000001661483
       2        0.000271853353     0.000468292564     0.000508231229
       3       -0.000323663482    -0.000710164718    -0.000638623582
       4        0.000412996443     0.000891716744    -0.000410973638
       5       -0.000068147347    -0.000032982300     0.000055928173
       6        0.000029432697     0.000016587670     0.000031571212
       7       -0.000287399213    -0.000653883076     0.000493111493
       8       -0.000002936294    -0.000001564974    -0.000001512155
       9        0.000005890761    -0.000006332475    -0.000041370539
      10        0.000003876699     0.000011612894    -0.000012950986
      11        0.000003623267     0.000012985330     0.000002125033
      12       -0.000018937164     0.000010445536     0.000022539336
      13       -0.000001146752    -0.000016566791    -0.000012169645
      14       -0.000002563472     0.000006473125     0.000004459495
      15       -0.000004629579     0.000000858176    -0.000012475010
      16       -0.000003854816    -0.000012565232     0.000005558708
      17        0.000004826035     0.000012770723     0.000008212359

  **** Optimization is complete! (in 6 steps) ****
    Final optimized geometry and variables:
    Molecular point group: c1

    Geometry (in Angstrom), charge = 0, multiplicity = 1:

    H           -2.643415136090     1.307424985730    -0.651565572089
    O           -1.769179683744     0.955893900019    -0.729180507928
    C           -1.654390222237    -0.065167038200     0.114222358120
    C           -0.306826144045    -0.734791475060     0.056441848665
    O           -2.546953767599    -0.402857572519     0.813374804580
    C            0.887070473723     0.214501936735    -0.032983589528
    H           -0.326754809077    -1.392813986623    -0.808091831690
    H           -0.240873215355    -1.365905960115     0.931248624176
    C            2.216646549115    -0.534249415505    -0.037718391646
    H            0.804848120092     0.819298475164    -0.927583782318
    H            0.863794405064     0.901723897639     0.808045074154
    C            3.420273108379     0.398019795511    -0.120598897196
    H            2.236428491724    -1.224538570846    -0.876717931931
    H            2.292214522963    -1.142118876904     0.859367587044
    H            3.390890638972     0.995277045681    -1.025611063783
    H            4.348355808555    -0.161369352602    -0.123035543252
    H            3.446515645299     1.078928402213     0.723437166690

  Mulliken Charges: (a.u.)
   Center  Symbol    Alpha    Beta     Spin     Total
       1     H     0.38107  0.38107  0.00000  0.23786
       2     O     4.15987  4.15987  0.00000 -0.31974
       3     C     2.81247  2.81247  0.00000  0.37505
       4     C     3.08913  3.08913  0.00000 -0.17827
       5     O     4.19399  4.19399  0.00000 -0.38797
       6     C     3.09445  3.09445  0.00000 -0.18890
       7     H     0.44439  0.44439  0.00000  0.11122
       8     H     0.43517  0.43517  0.00000  0.12966
       9     C     3.08767  3.08767  0.00000 -0.17533
      10     H     0.44224  0.44224  0.00000  0.11552
      11     H     0.44949  0.44949  0.00000  0.10102
      12     C     3.14907  3.14907  0.00000 -0.29814
      13     H     0.45360  0.45360  0.00000  0.09279
      14     H     0.45229  0.45229  0.00000  0.09542
      15     H     0.45402  0.45402  0.00000  0.09197
      16     H     0.44716  0.44716  0.00000  0.10569
      17     H     0.45392  0.45392  0.00000  0.09216

   Total alpha = 28.00000, Total beta = 28.00000, Total charge = -0.00000

*** Psi4 exiting successfully. Buy a developer a beer!
