  ==> Input File <==

--------------------------------------------------------------------------
set {
	reference rhf
	basis 6-31G*
}

set_num_threads( 4 )
memory 2 gb

molecule MOL {
0 1

H	 -4.017305	 -0.577637	 0.476945
C	 -2.952713	 -0.425393	 0.492737
C	 -2.425305	 0.707794	 1.093467
C	 -2.112581	 -1.362642	 -0.087500
H	 -3.077978	 1.433888	 1.543101
C	 -1.056350	 0.902855	 1.113376
H	 -2.523231	 -2.240451	 -0.552713
C	 -0.741921	 -1.169475	 -0.068766
H	 -0.630629	 1.773772	 1.573742
C	 -0.210214	 -0.034794	 0.532523
H	 -0.088068	 -1.892159	 -0.516566
C	 1.256831	 0.222312	 0.580806
O	 1.970282	 -0.730723	 0.000018
O	 1.747986	 1.182303	 1.086813
C	 3.377318	 -0.566646	 -0.000065
H	 3.695437	 -0.028981	 -0.881264
H	 3.789299	 -1.563704	 0.000236
H	 3.695516	 -0.028316	 0.880770

	symmetry c1
}
set optking {
	frozen_dihedral = ("
		12 13 15 16
	")
}

ee = optimize('scf')
oeprop('DIPOLE', 'QUADRUPOLE', 'MULLIKEN_CHARGES')
f=open( 'psi4out.xyz', 'w' )
f.write( "18  " )
f.write( str(ee) + "\n" )
f.write( MOL.save_string_xyz() )
f.close()
--------------------------------------------------------------------------

    Molecular point group: c1
  Charge       = 0
  Multiplicity = 1
  Basis Set: 6-31G*
  Basis Set:
  @DF-RHF Final Energy:  -457.34927900050383
    Total Energy =                       -457.3492790005037705
    Molecular point group: c1
  Basis Set: 6-31G*
  Basis Set:
  Basis Set: 6-31G*
  Basis Set:
  @DF-RHF Final Energy:  -457.34937647138105
    Total Energy =                       -457.3493764713812197
  Basis Set: 6-31G*
  Basis Set:
  Basis Set: 6-31G*
  Basis Set:
  @DF-RHF Final Energy:  -457.34924982593867
    Total Energy =                       -457.3492498259381591
  Basis Set: 6-31G*
  Basis Set:
  Basis Set: 6-31G*
  Basis Set:
  @DF-RHF Final Energy:  -457.34953512195432
    Total Energy =                       -457.3495351219540908
  Basis Set: 6-31G*
  Basis Set:
  Basis Set: 6-31G*
  Basis Set:
  @DF-RHF Final Energy:  -457.34954365102550
    Total Energy =                       -457.3495436510253285
  Basis Set: 6-31G*
  Basis Set:
  Charge       = 0
  Multiplicity = 1
  Basis Set: 6-31G*
  Basis Set:

    Orbital Energies (a.u.)
    -----------------------

    Doubly Occupied:

       1A    -20.607247     2A    -20.543993     3A    -11.378627
       4A    -11.282347     5A    -11.245276     6A    -11.245059
       7A    -11.243843     8A    -11.241419     9A    -11.237219
      10A    -11.236453    11A     -1.471413    12A     -1.364204
      13A     -1.164993    14A     -1.047935    15A     -1.024546
      16A     -0.978866    17A     -0.859944    18A     -0.834039
      19A     -0.777321    20A     -0.739867    21A     -0.683590
      22A     -0.676204    23A     -0.671714    24A     -0.631128
      25A     -0.623712    26A     -0.597535    27A     -0.584769
      28A     -0.564524    29A     -0.526575    30A     -0.516416
      31A     -0.503609    32A     -0.498522    33A     -0.457591
      34A     -0.444246    35A     -0.344679    36A     -0.340720

  @DF-RHF Final Energy:  -457.34954407883731

   => Energetics <=

    Nuclear Repulsion Energy =            492.7705375675544701
    One-Electron Energy =               -1599.8598724930293429
    Two-Electron Energy =                 649.7397908466374474
    DFT Exchange-Correlation Energy =       0.0000000000000000
    Empirical Dispersion Energy =           0.0000000000000000
    PCM Polarization Energy =               0.0000000000000000
    EFP Energy =                            0.0000000000000000
    Total Energy =                       -457.3495440788373116
    Molecular point group: c1
  Basis Set: 6-31G*
  Basis Set:

  -Total Gradient:
     Atom            X                  Y                   Z
    ------   -----------------  -----------------  -----------------
       1        0.000000012681     0.000001403657     0.000001211508
       2       -0.000002094470     0.000007934250     0.000004593488
       3       -0.000003198002     0.000001698605    -0.000002557660
       4        0.000015338431    -0.000000564860     0.000000519913
       5        0.000001231766     0.000000334548     0.000001738322
       6        0.000012678581    -0.000003642933     0.000002572284
       7        0.000004148408     0.000001030357    -0.000001242932
       8        0.000006228900     0.000003444460    -0.000000989981
       9        0.000000617366     0.000006949089     0.000001821399
      10        0.000023365878    -0.000012350931    -0.000010933082
      11        0.000008970510    -0.000004567313    -0.000000914328
      12        0.000096296774    -0.000707640076     0.001282426974
      13       -0.000099300741     0.000586125168    -0.002048841382
      14       -0.000037851397     0.000003457090     0.000019128142
      15       -0.000178740150     0.001588923022     0.001594314542
      16        0.000191008283    -0.001465689235    -0.000851981651
      17       -0.000031750770    -0.000004143255     0.000007498220
      18       -0.000006962052    -0.000002701645     0.000001636222

  **** Optimization is complete! (in 6 steps) ****
    Final optimized geometry and variables:
    Molecular point group: c1

    Geometry (in Angstrom), charge = 0, multiplicity = 1:

    H           -4.027727304848    -0.477408570521     0.010562409064
    C           -2.964221681731    -0.317891499589     0.025505091770
    C           -2.444195520079     0.820323418753     0.623186593864
    C           -2.118020074419    -1.250739930739    -0.552931230277
    H           -3.101507613783     1.543202334837     1.071336455074
    C           -1.076653926307     1.024775052329     0.641804976454
    H           -2.522920000795    -2.132380142028    -1.015910990435
    C           -0.748692607795    -1.048205800605    -0.535291234631
    H           -0.656864761673     1.899777389574     1.099741346657
    C           -0.224247479455     0.091428354225     0.063063574443
    H           -0.090480132823    -1.767446120406    -0.982057383812
    C            1.241394270178     0.359401426536     0.111040451029
    O            1.956467711237    -0.589347805211    -0.475483431750
    O            1.721956218840     1.323159575411     0.619867743831
    C            3.368253546138    -0.464964242263    -0.464985797468
    H            3.691538579834     0.080985914354    -1.341065194264
    H            3.757630479653    -1.471010172956    -0.506788887585
    H            3.704950813802     0.035411873728     0.427733648899

  Mulliken Charges: (a.u.)
   Center  Symbol    Alpha    Beta     Spin     Total
       1     H     0.39545  0.39545  0.00000  0.20911
       2     C     3.09000  3.09000  0.00000 -0.18000
       3     C     3.10707  3.10707  0.00000 -0.21414
       4     C     3.10713  3.10713  0.00000 -0.21426
       5     H     0.39543  0.39543  0.00000  0.20913
       6     C     3.08648  3.08648  0.00000 -0.17297
       7     H     0.39634  0.39634  0.00000  0.20732
       8     C     3.08704  3.08704  0.00000 -0.17407
       9     H     0.37595  0.37595  0.00000  0.24810
      10     C     3.07749  3.07749  0.00000 -0.15497
      11     H     0.38055  0.38055  0.00000  0.23889
      12     C     2.57946  2.57946  0.00000  0.84108
      13     O     4.31574  4.31574  0.00000 -0.63147
      14     O     4.29160  4.29160  0.00000 -0.58319
      15     C     3.09505  3.09505  0.00000 -0.19009
      16     H     0.41167  0.41167  0.00000  0.17666
      17     H     0.40931  0.40931  0.00000  0.18138
      18     H     0.39825  0.39825  0.00000  0.20350

   Total alpha = 36.00000, Total beta = 36.00000, Total charge =  0.00000
