  ==> Input File <==

--------------------------------------------------------------------------
set {
	reference rhf
	basis cc-pvtz
}

set_num_threads( 4 )
memory 2 gb

molecule MOL {
0 1

H	 1.941250	 -4.955453	 2.863043
C	 1.922797	 -4.055739	 2.279701
C	 0.845194	 -3.774883	 1.451616
C	 2.966054	 -3.161369	 2.339637
H	 0.021795	 -4.461158	 1.391837
C	 0.817449	 -2.623328	 0.702502
H	 3.808422	 -3.361390	 2.974536
C	 2.954172	 -1.993513	 1.589716
H	 -0.010292	 -2.396938	 0.059647
C	 1.875670	 -1.723017	 0.767678
H	 3.781430	 -1.317974	 1.658649
O	 1.760432	 -0.625184	 0.000000
C	 2.773565	 0.334879	 0.000000
H	 2.728295	 0.960928	 -0.884150
H	 3.706387	 -0.206610	 0.000000
H	 2.728295	 0.960928	 0.884150

	symmetry c1
}
set optking {
	frozen_dihedral = ("
		10 12 13 14
	")
}

ee = optimize('scf')
oeprop('DIPOLE', 'QUADRUPOLE', 'MULLIKEN_CHARGES')
f=open( 'psi4out.xyz', 'w' )
f.write( "16  " )
f.write( str(ee) + "\n" )
f.write( MOL.save_string_xyz() )
f.close()
--------------------------------------------------------------------------

    Molecular point group: c1
  Charge       = 0
  Multiplicity = 1
  Basis Set: CC-PVTZ
  Basis Set:
  @DF-RHF Final Energy:  -344.70003615634278
    Total Energy =                       -344.7000361563427759
    Molecular point group: c1
  Basis Set: CC-PVTZ
  Basis Set:
  Basis Set: CC-PVTZ
  Basis Set:
  @DF-RHF Final Energy:  -344.70199295163798
    Total Energy =                       -344.7019929516382604
  Basis Set: CC-PVTZ
  Basis Set:
  Basis Set: CC-PVTZ
  Basis Set:
  @DF-RHF Final Energy:  -344.70280181849819
    Total Energy =                       -344.7028018184981875
  Basis Set: CC-PVTZ
  Basis Set:
  Basis Set: CC-PVTZ
  Basis Set:
  @DF-RHF Final Energy:  -344.70285061340837
    Total Energy =                       -344.7028506134081454
  Basis Set: CC-PVTZ
  Basis Set:
  Basis Set: CC-PVTZ
  Basis Set:
  @DF-RHF Final Energy:  -344.70285826963749
    Total Energy =                       -344.7028582696375452
  Basis Set: CC-PVTZ
  Basis Set:
  Charge       = 0
  Multiplicity = 1
  Basis Set: CC-PVTZ
  Basis Set:

    Orbital Energies (a.u.)
    -----------------------

    Doubly Occupied:

       1A    -20.579252     2A    -11.293432     3A    -11.278284
       4A    -11.231282     5A    -11.230002     6A    -11.221918
       7A    -11.218054     8A    -11.217115     9A     -1.418572
      10A     -1.150968    11A     -1.025414    12A     -1.016718
      13A     -0.943922    14A     -0.834780    15A     -0.808390
      16A     -0.725653    17A     -0.667615    18A     -0.666667
      19A     -0.659713    20A     -0.618938    21A     -0.590558
      22A     -0.580467    23A     -0.527832    24A     -0.522868
      25A     -0.512145    26A     -0.480304    27A     -0.465256
      28A     -0.339703    29A     -0.310434

  @DF-RHF Final Energy:  -344.70285895100193

   => Energetics <=

    Nuclear Repulsion Energy =            348.8105077569468335
    One-Electron Energy =               -1158.7542312917400977
    Two-Electron Energy =                 465.2408645837916197
    DFT Exchange-Correlation Energy =       0.0000000000000000
    Empirical Dispersion Energy =           0.0000000000000000
    PCM Polarization Energy =               0.0000000000000000
    EFP Energy =                            0.0000000000000000
    Total Energy =                       -344.7028589510015877
    Molecular point group: c1
  Basis Set: CC-PVTZ
  Basis Set:

  -Total Gradient:
     Atom            X                  Y                   Z
    ------   -----------------  -----------------  -----------------
       1       -0.000017931359    -0.000003411492    -0.000003911972
       2        0.000126611391     0.000026932528     0.000024646544
       3       -0.000091884950     0.000093212814    -0.000068129847
       4       -0.000072975165    -0.000104949653     0.000042699819
       5        0.000004650398    -0.000015724545     0.000001507533
       6       -0.000085130769    -0.000141843269     0.000095433005
       7        0.000001228277     0.000014354036    -0.000008525385
       8       -0.000096248054     0.000116198376    -0.000071272560
       9        0.000009965711     0.000000431666    -0.000004916780
      10        0.000760562716    -0.001066565267    -0.001923085840
      11        0.000016001571     0.000020349226    -0.000007911227
      12       -0.000627718556     0.001192881472     0.002472971251
      13       -0.001027661106     0.001485769481     0.000909509220
      14        0.001065745151    -0.001632948901    -0.001463993648
      15        0.000020889048    -0.000002050603     0.000018695254
      16        0.000013895697     0.000017364132    -0.000013715367

  **** Optimization is complete! (in 6 steps) ****
    Final optimized geometry and variables:
    Molecular point group: c1

    Geometry (in Angstrom), charge = 0, multiplicity = 1:

    H           -0.031899559205    -2.897967428841     1.667277839740
    C           -0.065155995225    -1.973625368217     1.124444307042
    C           -1.131821610785    -1.688619156640     0.284490940612
    C            0.947191189838    -1.050454801708     1.251691888085
    H           -1.931122314160    -2.396751985847     0.173936324485
    C           -1.177603474397    -0.506305455554    -0.415295287684
    H            1.777968727316    -1.251093001434     1.901473378561
    C            0.914499854918     0.148925467517     0.555133030443
    H           -1.996484033529    -0.276892733339    -1.068329819009
    C           -0.149311587935     0.420281937989    -0.285615378731
    H            1.710075354898     0.853855050716     0.683778240260
    O           -0.285233761956     1.557128991928    -0.991693441990
    C            0.807843875520     2.410407043580    -1.165163583421
    H            0.582863894475     3.031061041644    -2.018732171700
    H            1.713512410409     1.855273053841    -1.378328158622
    H            0.967814968207     3.033785972034    -0.292660037878

  Mulliken Charges: (a.u.)
   Center  Symbol    Alpha    Beta     Spin     Total
       1     H     0.42440  0.42440  0.00000  0.15120
       2     C     3.10041  3.10041  0.00000 -0.20082
       3     C     3.05834  3.05834  0.00000 -0.11668
       4     C     3.06211  3.06211  0.00000 -0.12422
       5     H     0.42296  0.42296  0.00000  0.15408
       6     C     3.11080  3.11080  0.00000 -0.22161
       7     H     0.42340  0.42340  0.00000  0.15321
       8     C     3.14086  3.14086  0.00000 -0.28172
       9     H     0.42060  0.42060  0.00000  0.15881
      10     C     2.85240  2.85240  0.00000  0.29519
      11     H     0.42284  0.42284  0.00000  0.15433
      12     O     4.15326  4.15326  0.00000 -0.30653
      13     C     3.04351  3.04351  0.00000 -0.08701
      14     H     0.44037  0.44037  0.00000  0.11926
      15     H     0.46405  0.46405  0.00000  0.07190
      16     H     0.45969  0.45969  0.00000  0.08061

   Total alpha = 29.00000, Total beta = 29.00000, Total charge = -0.00000
