                              Psi4 1.0.54 Driver

  ==> Input File <==

--------------------------------------------------------------------------
set {
	reference rhf
	basis cc-pvtz
}

set_num_threads( 4 )
memory 2 gb

molecule MOL {
0 1

H	 2.252046	 -1.517674	 -2.006470
O	 2.618130	 -0.801187	 -1.519283
C	 1.680662	 -0.172945	 -0.787814
C	 2.087074	 0.907463	 -0.017964
C	 0.359042	 -0.564937	 -0.783227
H	 3.119472	 1.195527	 -0.036128
C	 1.171668	 1.588844	 0.750868
H	 0.017960	 -1.394356	 -1.367201
C	 -0.532034	 0.141680	 0.000000
H	 1.494871	 2.422575	 1.342629
C	 -0.161373	 1.214013	 0.772006
N	 -1.937041	 -0.281114	 0.000000
H	 -0.883000	 1.733385	 1.363808
O	 -2.159542	 -1.446261	 0.000000
O	 -2.764978	 0.565773	 0.000000

	symmetry c1
}
set optking {
	frozen_dihedral = ("
		11 9 12 14
	")
}

ee,wfn = optimize('scf', return_wfn=True)
oeprop( wfn, 'DIPOLE', 'QUADRUPOLE', 'MULLIKEN_CHARGES')
f=open( 'psi4out.xyz', 'w' )
f.write( "15  " )
f.write( str(ee) + "\n" )
f.write( MOL.save_string_xyz() )
f.close()
--------------------------------------------------------------------------

    Molecular point group: c1
  Charge       = 0
  Multiplicity = 1
  Basis Set: CC-PVTZ
  Basis Set:
  @DF-RHF Final Energy:  -509.21595692666682
    Total Energy =                       -509.2159569266666495
    Molecular point group: c1
  Basis Set: CC-PVTZ
  Basis Set:
  Basis Set: CC-PVTZ
  Basis Set:
  @DF-RHF Final Energy:  -509.20916257547486
    Total Energy =                       -509.2091625754746929
  Basis Set: CC-PVTZ
  Basis Set:
  Basis Set: CC-PVTZ
  Basis Set:
  @DF-RHF Final Energy:  -509.21534997529540
    Total Energy =                       -509.2153499752953394
  Basis Set: CC-PVTZ
  Basis Set:
  Basis Set: CC-PVTZ
  Basis Set:
  @DF-RHF Final Energy:  -509.21627593921676
    Total Energy =                       -509.2162759392169846
  Basis Set: CC-PVTZ
  Basis Set:
  Basis Set: CC-PVTZ
  Basis Set:
  @DF-RHF Final Energy:  -509.21628378921366
    Total Energy =                       -509.2162837892140033
  Basis Set: CC-PVTZ
  Basis Set:
  Basis Set: CC-PVTZ
  Basis Set:
  @DF-RHF Final Energy:  -509.21631733146660
    Total Energy =                       -509.2163173314668256
  Basis Set: CC-PVTZ
  Basis Set:
  Charge       = 0
  Multiplicity = 1
  Basis Set: CC-PVTZ
  Basis Set:

    Orbital Energies (a.u.)
    -----------------------

    Doubly Occupied:

       1A    -20.609435     2A    -20.597038     3A    -20.596637
       4A    -15.850225     5A    -11.329078     6A    -11.310808
       7A    -11.264147     8A    -11.263621     9A    -11.258856
      10A    -11.254540    11A     -1.645120    12A     -1.442179
      13A     -1.428104    14A     -1.203745    15A     -1.096413
      16A     -1.049122    17A     -0.966978    18A     -0.884059
      19A     -0.832508    20A     -0.794272    21A     -0.762526
      22A     -0.741010    23A     -0.725978    24A     -0.711797
      25A     -0.675373    26A     -0.636222    27A     -0.622659
      28A     -0.597878    29A     -0.563279    30A     -0.548410
      31A     -0.528184    32A     -0.494842    33A     -0.491920
      34A     -0.459351    35A     -0.378497    36A     -0.346593

  @DF-RHF Final Energy:  -509.21631784322238

   => Energetics <=

    Nuclear Repulsion Energy =            504.5847685316820730
    One-Electron Energy =               -1695.6793657095918206
    Two-Electron Energy =                 681.8782793346869084
    DFT Exchange-Correlation Energy =       0.0000000000000000
    Empirical Dispersion Energy =           0.0000000000000000
    PCM Polarization Energy =               0.0000000000000000
    EFP Energy =                            0.0000000000000000
    Total Energy =                       -509.2163178432227824
    Molecular point group: c1
  Basis Set: CC-PVTZ
  Basis Set:

  -Total Gradient:
     Atom            X                  Y                   Z
    ------   -----------------  -----------------  -----------------
       1       -0.000001444397     0.000006827094    -0.000010493769
       2        0.000002054265    -0.000005854163    -0.000009132755
       3        0.000008238333    -0.000021426593     0.000048056482
       4       -0.000000563735    -0.000003582168    -0.000026680218
       5       -0.000011860561    -0.000000150615    -0.000002432349
       6        0.000000076854    -0.000004433939     0.000007169071
       7       -0.000028995422     0.000033322038    -0.000031928406
       8        0.000000263201     0.000000421341     0.000000555845
       9       -0.001235405358     0.003366049147    -0.002521840885
      10       -0.000003537383    -0.000001463582     0.000000337359
      11        0.000900116533    -0.002389089748     0.002901927125
      12        0.000028380589    -0.001043344774    -0.004692231677
      13        0.000005063322    -0.000002596702    -0.000004828245
      14        0.000338970301    -0.000078089389     0.004331906092
      15       -0.000001356536     0.000143412048     0.000009616326

  **** Optimization is complete! (in 7 steps) ****
    Final optimized geometry and variables:
    Molecular point group: c1

    Geometry (in Angstrom), charge = 0, multiplicity = 1:

    H            2.260813893970    -1.554330010096    -1.860959996308
    O            2.621975275945    -0.827936651368    -1.384971674036
    C            1.688378009825    -0.213370886664    -0.638601253686
    C            2.093640572132     0.867410328754     0.132045824546
    C            0.371846293802    -0.623960730917    -0.611654554117
    H            3.123570390365     1.163059250381     0.105180532532
    C            1.182098725280     1.535479650248     0.916705043249
    H            0.036022071123    -1.473601270854    -1.171484859729
    C           -0.516579486583     0.088021250106     0.166262094642
    H            1.507623451414     2.362320746192     1.516905285137
    C           -0.150264707396     1.156301927848     0.942604230380
    N           -1.904884063209    -0.372622721757     0.217493298310
    H           -0.873961355190     1.673176279142     1.536305520382
    O           -2.088864247275    -1.544220485055     0.205740501011
    O           -2.749855722335     0.453527005612     0.300149057011

  Mulliken Charges: (a.u.)
   Center  Symbol    Alpha    Beta     Spin     Total
       1     H     0.38438  0.38438  0.00000  0.23124
       2     O     4.16778  4.16778  0.00000 -0.33556
       3     C     2.84453  2.84453  0.00000  0.31094
       4     C     3.10014  3.10014  0.00000 -0.20027
       5     C     3.13905  3.13905  0.00000 -0.27809
       6     H     0.41354  0.41354  0.00000  0.17293
       7     C     3.05466  3.05466  0.00000 -0.10932
       8     H     0.41494  0.41494  0.00000  0.17011
       9     C     2.94471  2.94471  0.00000  0.11058
      10     H     0.41612  0.41612  0.00000  0.16777
      11     C     3.10468  3.10468  0.00000 -0.20936
      12     N     3.26918  3.26918  0.00000  0.46165
      13     H     0.40534  0.40534  0.00000  0.18932
      14     O     4.17129  4.17129  0.00000 -0.34258
      15     O     4.16967  4.16967  0.00000 -0.33934

   Total alpha = 36.00000, Total beta = 36.00000, Total charge = -0.00000

*** Psi4 exiting successfully. Buy a developer a beer!
