                              Psi4 1.0.54 Driver

  ==> Input File <==

--------------------------------------------------------------------------
set {
	reference rhf
	basis cc-pvtz
}

set_num_threads( 4 )
memory 2 gb

molecule MOL {
0 1

H	 -0.939693	 0.000281	 1.681345
O	 -0.046262	 -0.000157	 1.387678
C	 -0.000837	 0.000006	 -0.025491
C	 1.261057	 -0.720269	 -0.496635
C	 -1.251338	 -0.681762	 -0.577382
C	 0.034617	 1.467921	 -0.428176
H	 1.342074	 -0.704830	 -1.577372
H	 1.252280	 -1.758912	 -0.180071
H	 2.140985	 -0.247974	 -0.078152
H	 -1.262315	 -0.664857	 -1.661071
H	 -1.294678	 -1.719899	 -0.261998
H	 -2.141454	 -0.182379	 -0.215753
H	 0.070825	 1.572209	 -1.506184
H	 0.905890	 1.951558	 -0.004868
H	 -0.846774	 1.978454	 -0.061133

	symmetry c1
}
set optking {
	frozen_dihedral = ("
		4 3 2 1
	")
}

ee,wfn = optimize('scf', return_wfn=True)
oeprop( wfn, 'DIPOLE', 'QUADRUPOLE', 'MULLIKEN_CHARGES')
f=open( 'psi4out.xyz', 'w' )
f.write( "15  " )
f.write( str(ee) + "\n" )
f.write( MOL.save_string_xyz() )
f.close()
--------------------------------------------------------------------------

    Molecular point group: c1
  Charge       = 0
  Multiplicity = 1
  Basis Set: CC-PVTZ
  Basis Set:
  @DF-RHF Final Energy:  -232.24424482611866
    Total Energy =                       -232.2442448261186883
    Molecular point group: c1
  Basis Set: CC-PVTZ
  Basis Set:
  Basis Set: CC-PVTZ
  Basis Set:
  @DF-RHF Final Energy:  -232.20591367147298
    Total Energy =                       -232.2059136714729561
  Basis Set: CC-PVTZ
  Basis Set:
  Basis Set: CC-PVTZ
  Basis Set:
  @DF-RHF Final Energy:  -232.24435756072251
    Total Energy =                       -232.2443575607224489
  Basis Set: CC-PVTZ
  Basis Set:
  Basis Set: CC-PVTZ
  Basis Set:
  @DF-RHF Final Energy:  -232.24573031275548
    Total Energy =                       -232.2457303127554837
  Basis Set: CC-PVTZ
  Basis Set:
  Basis Set: CC-PVTZ
  Basis Set:
  @DF-RHF Final Energy:  -232.24576606264844
    Total Energy =                       -232.2457660626483289
  Basis Set: CC-PVTZ
  Basis Set:
  Basis Set: CC-PVTZ
  Basis Set:
  @DF-RHF Final Energy:  -232.24576719953072
    Total Energy =                       -232.2457671995306328
  Basis Set: CC-PVTZ
  Basis Set:
  Basis Set: CC-PVTZ
  Basis Set:
  @DF-RHF Final Energy:  -232.24577005025742
    Total Energy =                       -232.2457700502576472
  Basis Set: CC-PVTZ
  Basis Set:
  Charge       = 0
  Multiplicity = 1
  Basis Set: CC-PVTZ
  Basis Set:

    Orbital Energies (a.u.)
    -----------------------

    Doubly Occupied:

       1A    -20.541228     2A    -11.280962     3A    -11.214090
       4A    -11.205197     5A    -11.203541     6A     -1.363873
       7A     -1.065503     8A     -0.944673     9A     -0.938145
      10A     -0.778555    11A     -0.672219    12A     -0.624463
      13A     -0.622932    14A     -0.576213    15A     -0.557590
      16A     -0.533667    17A     -0.517069    18A     -0.511327
      19A     -0.504083    20A     -0.458091    21A     -0.427961

  @DF-RHF Final Energy:  -232.24577005401949

   => Energetics <=

    Nuclear Repulsion Energy =            200.6284750989891563
    One-Electron Energy =                -712.6657284170892126
    Two-Electron Energy =                 279.7914832640802842
    DFT Exchange-Correlation Energy =       0.0000000000000000
    Empirical Dispersion Energy =           0.0000000000000000
    PCM Polarization Energy =               0.0000000000000000
    EFP Energy =                            0.0000000000000000
    Total Energy =                       -232.2457700540197720
    Molecular point group: c1
  Basis Set: CC-PVTZ
  Basis Set:

  -Total Gradient:
     Atom            X                  Y                   Z
    ------   -----------------  -----------------  -----------------
       1       -0.000006238841    -0.001857066051     0.000389416918
       2       -0.000166905750     0.001967555532    -0.000461290032
       3        0.000735880688     0.000878088278     0.000051274753
       4       -0.000573117008    -0.000981961741     0.000026650462
       5       -0.000003742571     0.000006463697    -0.000012521821
       6        0.000005965283    -0.000005211954    -0.000032404126
       7       -0.000012244332    -0.000005718906     0.000015659500
       8        0.000004544480    -0.000000892627     0.000006804746
       9       -0.000007513593     0.000009007357    -0.000006249301
      10       -0.000003562312     0.000003527425     0.000016250419
      11        0.000002776252     0.000002858603    -0.000003620555
      12        0.000016462421    -0.000008691898    -0.000000122011
      13       -0.000008293197     0.000012712162     0.000005110697
      14       -0.000000553595    -0.000011915418    -0.000000864513
      15        0.000016542076    -0.000008754459     0.000005904863

  **** Optimization is complete! (in 8 steps) ****
    Final optimized geometry and variables:
    Molecular point group: c1

    Geometry (in Angstrom), charge = 0, multiplicity = 1:

    H           -1.311942486052     0.301071296606     1.384045836346
    O           -0.375900701423     0.277991016439     1.309794187386
    C            0.008265318918    -0.000294656268    -0.024307645446
    C            1.336791074335    -0.740030408643     0.068690145297
    C           -1.045680978414    -0.879615011475    -0.693113442251
    C            0.169881377713     1.317689022300    -0.778195995084
    H            1.729412458058    -0.959891391760    -0.917341601758
    H            1.211883589967    -1.670268632730     0.608310713707
    H            2.062595453854    -0.137223879853     0.600265813700
    H           -0.757530552771    -1.131592266474    -1.706370381202
    H           -1.179422205607    -1.800487983811    -0.137821861517
    H           -2.002185124403    -0.367051578538    -0.741213834472
    H            0.500889419703     1.151615829138    -1.797313242618
    H            0.896268971622     1.945556753653    -0.277866860294
    H           -0.771512845950     1.855204210264    -0.811904241163

  Mulliken Charges: (a.u.)
   Center  Symbol    Alpha    Beta     Spin     Total
       1     H     0.39377  0.39377  0.00000  0.21246
       2     O     4.21338  4.21338  0.00000 -0.42676
       3     C     2.87900  2.87900  0.00000  0.24199
       4     C     3.14115  3.14115  0.00000 -0.28230
       5     C     3.15758  3.15758  0.00000 -0.31516
       6     C     3.14409  3.14409  0.00000 -0.28817
       7     H     0.45921  0.45921  0.00000  0.08159
       8     H     0.45099  0.45099  0.00000  0.09802
       9     H     0.44725  0.44725  0.00000  0.10549
      10     H     0.45233  0.45233  0.00000  0.09534
      11     H     0.44562  0.44562  0.00000  0.10876
      12     H     0.45472  0.45472  0.00000  0.09056
      13     H     0.45798  0.45798  0.00000  0.08405
      14     H     0.44803  0.44803  0.00000  0.10394
      15     H     0.45490  0.45490  0.00000  0.09020

   Total alpha = 21.00000, Total beta = 21.00000, Total charge = -0.00000

*** Psi4 exiting successfully. Buy a developer a beer!
