  ==> Input File <==

--------------------------------------------------------------------------
set {
	reference rhf
	basis cc-pvtz
}

set_num_threads( 4 )
memory 2 gb

molecule MOL {
0 1

H	 1.178933	 -0.823350	 1.140077
O	 1.338705	 -0.575488	 0.247055
C	 0.706474	 0.636793	 -0.025501
C	 -0.793473	 0.591216	 0.050087
H	 1.004558	 0.919504	 -1.028258
H	 1.068100	 1.420473	 0.637652
C	 -1.534243	 -0.493009	 -0.013340
H	 -1.266611	 1.552628	 0.164437
H	 -1.101195	 -1.466332	 -0.144046
H	 -2.604242	 -0.437780	 0.050785

	symmetry c1
}
set optking {
	frozen_dihedral = ("
		5 3 4 7
	")
}

ee = optimize('scf')
oeprop('DIPOLE', 'QUADRUPOLE', 'MULLIKEN_CHARGES')
f=open( 'psi4out.xyz', 'w' )
f.write( "10  " )
f.write( str(ee) + "\n" )
f.write( MOL.save_string_xyz() )
f.close()
--------------------------------------------------------------------------

    Molecular point group: c1
  Charge       = 0
  Multiplicity = 1
  Basis Set: CC-PVTZ
  Basis Set:
  @DF-RHF Final Energy:  -191.99810049737846
    Total Energy =                       -191.9981004973784593
    Molecular point group: c1
  Basis Set: CC-PVTZ
  Basis Set:
  Basis Set: CC-PVTZ
  Basis Set:
  @DF-RHF Final Energy:  -191.99828475271548
    Total Energy =                       -191.9982847527155059
  Basis Set: CC-PVTZ
  Basis Set:
  Basis Set: CC-PVTZ
  Basis Set:
  @DF-RHF Final Energy:  -191.99832464417685
    Total Energy =                       -191.9983246441769040
  Basis Set: CC-PVTZ
  Basis Set:
  Charge       = 0
  Multiplicity = 1
  Basis Set: CC-PVTZ
  Basis Set:

    Orbital Energies (a.u.)
    -----------------------

    Doubly Occupied:

       1A    -20.553300     2A    -11.277540     3A    -11.230349
       4A    -11.217588     5A     -1.373337     6A     -1.062188
       7A     -0.931010     8A     -0.773221     9A     -0.688956
      10A     -0.665473    11A     -0.618016    12A     -0.575697
      13A     -0.545188    14A     -0.491192    15A     -0.453166
      16A     -0.369693

  @DF-RHF Final Energy:  -191.99832552829150

   => Energetics <=

    Nuclear Repulsion Energy =            119.4957360414233705
    One-Electron Energy =                -497.3362973408079597
    Two-Electron Energy =                 185.8422357710930441
    DFT Exchange-Correlation Energy =       0.0000000000000000
    Empirical Dispersion Energy =           0.0000000000000000
    PCM Polarization Energy =               0.0000000000000000
    EFP Energy =                            0.0000000000000000
    Total Energy =                       -191.9983255282915593
    Molecular point group: c1
  Basis Set: CC-PVTZ
  Basis Set:

  -Total Gradient:
     Atom            X                  Y                   Z
    ------   -----------------  -----------------  -----------------
       1        0.000002041546     0.000048490325    -0.000029169178
       2       -0.000013520092    -0.000001975205    -0.000050899114
       3       -0.000055433290     0.002743519226    -0.000244901927
       4        0.000156736688    -0.000773473204     0.003015593690
       5        0.000038576624    -0.002199614876    -0.000578274109
       6       -0.000013758855    -0.000005090322    -0.000009443836
       7       -0.000113910860     0.000166772149    -0.002080328368
       8       -0.000010742266     0.000003047480     0.000003088357
       9        0.000008368285     0.000009501321    -0.000007797444
      10        0.000001642224     0.000008823107    -0.000017868071

  **** Optimization is complete! (in 4 steps) ****
    Final optimized geometry and variables:
    Molecular point group: c1

    Geometry (in Angstrom), charge = 0, multiplicity = 1:

    H            1.117891229270    -0.882800727608     1.013011636477
    O            1.330151694310    -0.590190964634     0.144653587135
    C            0.702841796876     0.632120172704    -0.104607008022
    C           -0.799258447380     0.581064653655    -0.026880808227
    H            0.997467119872     0.911834976670    -1.109065224480
    H            1.073151593880     1.402748483128     0.567039108298
    C           -1.527449879463    -0.512232476171    -0.085932661297
    H           -1.285647530690     1.539763234741     0.044063821987
    H           -1.079069330305    -1.483341565045    -0.176165674374
    H           -2.599165160515    -0.467565051241    -0.045852689800

  Mulliken Charges: (a.u.)
   Center  Symbol    Alpha    Beta     Spin     Total
       1     H     0.39163  0.39163  0.00000  0.21674
       2     O     4.20003  4.20003  0.00000 -0.40006
       3     C     2.95162  2.95162  0.00000  0.09675
       4     C     3.09088  3.09088  0.00000 -0.18175
       5     H     0.45231  0.45231  0.00000  0.09537
       6     H     0.46629  0.46629  0.00000  0.06743
       7     C     3.17458  3.17458  0.00000 -0.34916
       8     H     0.42312  0.42312  0.00000  0.15377
       9     H     0.42167  0.42167  0.00000  0.15666
      10     H     0.42787  0.42787  0.00000  0.14426

   Total alpha = 16.00000, Total beta = 16.00000, Total charge =  0.00000
