  ==> Input File <==

--------------------------------------------------------------------------
set {
	reference rhf
	basis cc-pvtz
}

set_num_threads( 4 )
memory 2 gb

molecule MOL {
0 1

H	 2.190573	 -0.629143	 -0.208718
O	 1.355408	 -0.529451	 0.208662
C	 0.700177	 0.619554	 -0.266242
C	 -0.713111	 0.588314	 0.266177
H	 0.678680	 0.627133	 -1.351786
H	 1.199747	 1.521489	 0.077736
O	 -1.421673	 -0.521378	 -0.196983
H	 -1.244794	 1.469161	 -0.069059
H	 -0.685100	 0.604721	 1.352683
H	 -0.814049	 -1.225760	 -0.340729

	symmetry c1
}
set optking {
	frozen_dihedral = ("
		10 7 4 3
	")
}

ee = optimize('scf')
oeprop('DIPOLE', 'QUADRUPOLE', 'MULLIKEN_CHARGES')
f=open( 'psi4out.xyz', 'w' )
f.write( "10  " )
f.write( str(ee) + "\n" )
f.write( MOL.save_string_xyz() )
f.close()
--------------------------------------------------------------------------

    Molecular point group: c1
  Charge       = 0
  Multiplicity = 1
  Basis Set: CC-PVTZ
  Basis Set:
  @DF-RHF Final Energy:  -229.02731747918418
    Total Energy =                       -229.0273174791842621
    Molecular point group: c1
  Basis Set: CC-PVTZ
  Basis Set:
  Basis Set: CC-PVTZ
  Basis Set:
  @DF-RHF Final Energy:  -229.02746253418064
    Total Energy =                       -229.0274625341807280
  Basis Set: CC-PVTZ
  Basis Set:
  Basis Set: CC-PVTZ
  Basis Set:
  @DF-RHF Final Energy:  -229.02754800622913
    Total Energy =                       -229.0275480062291251
  Basis Set: CC-PVTZ
  Basis Set:
  Charge       = 0
  Multiplicity = 1
  Basis Set: CC-PVTZ
  Basis Set:

    Orbital Energies (a.u.)
    -----------------------

    Doubly Occupied:

       1A    -20.564935     2A    -20.540284     3A    -11.278202
       4A    -11.266791     5A     -1.388973     6A     -1.354737
       7A     -1.005080     8A     -0.848064     9A     -0.731125
      10A     -0.674950    11A     -0.662194    12A     -0.605531
      13A     -0.577516    14A     -0.544503    15A     -0.485732
      16A     -0.460201    17A     -0.435562

  @DF-RHF Final Energy:  -229.02754883916953

   => Energetics <=

    Nuclear Repulsion Energy =            134.7896353459352667
    One-Electron Energy =                -580.7856075556280757
    Two-Electron Energy =                 216.9684233705232828
    DFT Exchange-Correlation Energy =       0.0000000000000000
    Empirical Dispersion Energy =           0.0000000000000000
    PCM Polarization Energy =               0.0000000000000000
    EFP Energy =                            0.0000000000000000
    Total Energy =                       -229.0275488391695262
    Molecular point group: c1
  Basis Set: CC-PVTZ
  Basis Set:

  -Total Gradient:
     Atom            X                  Y                   Z
    ------   -----------------  -----------------  -----------------
       1       -0.000003988499    -0.000004548846    -0.000008392334
       2       -0.000001481268    -0.000084971357     0.000024487230
       3        0.000647178274    -0.001072995141     0.001819802759
       4       -0.000816773151     0.001866351501    -0.003246005924
       5       -0.000012945466     0.000003416180    -0.000000748442
       6       -0.000051159730     0.000030726743     0.000000050170
       7       -0.000308179294    -0.001691505332     0.004761165232
       8        0.000026610832     0.000014862472    -0.000001505986
       9        0.000026998072     0.000020708206    -0.000000902766
      10        0.000493740231     0.000917955575    -0.003347949939

  **** Optimization is complete! (in 4 steps) ****
    Final optimized geometry and variables:
    Molecular point group: c1

    Geometry (in Angstrom), charge = 0, multiplicity = 1:

    H            2.189152361826    -0.622139823667    -0.212305647492
    O            1.336947576114    -0.547974619188     0.175201312658
    C            0.703576745916     0.631681188129    -0.249712286215
    C           -0.717055798375     0.601469366864     0.266156598703
    H            0.699630135287     0.689671852903    -1.334909046584
    H            1.209731574735     1.510515482080     0.139408789476
    O           -1.412167467698    -0.531855361768    -0.161182352800
    H           -1.247778699433     1.475646980607    -0.089714607498
    H           -0.695958604579     0.639385395394     1.352183671526
    H           -0.800489734220    -1.238306875734    -0.272953837301

  Mulliken Charges: (a.u.)
   Center  Symbol    Alpha    Beta     Spin     Total
       1     H     0.39073  0.39073  0.00000  0.21853
       2     O     4.20569  4.20569  0.00000 -0.41139
       3     C     2.98067  2.98067  0.00000  0.03867
       4     C     2.95221  2.95221  0.00000  0.09559
       5     H     0.46853  0.46853  0.00000  0.06293
       6     H     0.46848  0.46848  0.00000  0.06305
       7     O     4.21099  4.21099  0.00000 -0.42199
       8     H     0.46435  0.46435  0.00000  0.07131
       9     H     0.47359  0.47359  0.00000  0.05281
      10     H     0.38475  0.38475  0.00000  0.23049

   Total alpha = 17.00000, Total beta = 17.00000, Total charge = -0.00000
