  ==> Input File <==

--------------------------------------------------------------------------
set {
	reference rhf
	basis 6-31G*
}

set_num_threads( 4 )
memory 2 gb

molecule MOL {
0 1

H	 1.136379	 0.211822	 1.465562
C	 1.135357	 0.094285	 0.374742
C	 0.065331	 0.871482	 -0.349150
O	 1.941633	 -0.601957	 -0.151457
C	 -0.445389	 0.140437	 -1.599037
H	 0.461204	 1.849845	 -0.596137
H	 -0.759899	 1.009660	 0.348032
C	 0.607798	 0.019370	 -2.701109
H	 -1.309428	 0.674637	 -1.981239
H	 -0.800243	 -0.849203	 -1.319157
H	 0.950599	 0.998832	 -3.019965
H	 0.201988	 -0.490780	 -3.568509
H	 1.477530	 -0.538894	 -2.367496

	symmetry c1
}
set optking {
	frozen_dihedral = ("
		6 3 2 4
	")
}

ee = optimize('scf')
oeprop('DIPOLE', 'QUADRUPOLE', 'MULLIKEN_CHARGES')
f=open( 'psi4out.xyz', 'w' )
f.write( "13  " )
f.write( str(ee) + "\n" )
f.write( MOL.save_string_xyz() )
f.close()
--------------------------------------------------------------------------

    Molecular point group: c1
  Charge       = 0
  Multiplicity = 1
  Basis Set: 6-31G*
  Basis Set:
  @DF-RHF Final Energy:  -230.98119942169257
    Total Energy =                       -230.9811994216924518
    Molecular point group: c1
  Basis Set: 6-31G*
  Basis Set:
  Basis Set: 6-31G*
  Basis Set:
  @DF-RHF Final Energy:  -230.98309785907682
    Total Energy =                       -230.9830978590769064
  Basis Set: 6-31G*
  Basis Set:
  Basis Set: 6-31G*
  Basis Set:
  @DF-RHF Final Energy:  -230.98159125664824
    Total Energy =                       -230.9815912566482439
  Basis Set: 6-31G*
  Basis Set:
  Basis Set: 6-31G*
  Basis Set:
  @DF-RHF Final Energy:  -230.98345870332810
    Total Energy =                       -230.9834587033278694
  Basis Set: 6-31G*
  Basis Set:
  Basis Set: 6-31G*
  Basis Set:
  @DF-RHF Final Energy:  -230.98349890697006
    Total Energy =                       -230.9834989069700555
  Basis Set: 6-31G*
  Basis Set:
  Basis Set: 6-31G*
  Basis Set:
  @DF-RHF Final Energy:  -230.98351131381705
    Total Energy =                       -230.9835113138170470
  Basis Set: 6-31G*
  Basis Set:
  Basis Set: 6-31G*
  Basis Set:
  @DF-RHF Final Energy:  -230.98351382223078
    Total Energy =                       -230.9835138222308615
  Basis Set: 6-31G*
  Basis Set:
  Charge       = 0
  Multiplicity = 1
  Basis Set: 6-31G*
  Basis Set:

    Orbital Energies (a.u.)
    -----------------------

    Doubly Occupied:

       1A    -20.564887     2A    -11.329914     3A    -11.237976
       4A    -11.228146     5A    -11.206696     6A     -1.405209
       7A     -1.076339     8A     -0.971237     9A     -0.846127
      10A     -0.771587    11A     -0.684180    12A     -0.645972
      13A     -0.607093    14A     -0.584295    15A     -0.569495
      16A     -0.520625    17A     -0.496185    18A     -0.484379
      19A     -0.480324    20A     -0.408758

  @DF-RHF Final Energy:  -230.98351387053222

   => Energetics <=

    Nuclear Repulsion Energy =            176.0740333137156028
    One-Electron Energy =                -661.8762434557106644
    Two-Electron Energy =                 254.8186962714628407
    DFT Exchange-Correlation Energy =       0.0000000000000000
    Empirical Dispersion Energy =           0.0000000000000000
    PCM Polarization Energy =               0.0000000000000000
    EFP Energy =                            0.0000000000000000
    Total Energy =                       -230.9835138705321924
    Molecular point group: c1
  Basis Set: 6-31G*
  Basis Set:

  -Total Gradient:
     Atom            X                  Y                   Z
    ------   -----------------  -----------------  -----------------
       1       -0.000003524558     0.000004748444     0.000002396957
       2       -0.002653006012    -0.003345712710     0.000086319239
       3       -0.000211140505     0.002427163082     0.002525848008
       4        0.001945455364     0.002136346084    -0.000387478996
       5       -0.000001603923     0.000008746383     0.000004195013
       6        0.000912642749    -0.001222946027    -0.002245351483
       7        0.000003621683    -0.000002983744     0.000005087646
       8        0.000005423710     0.000000398803     0.000001817601
       9       -0.000002632340    -0.000000527060     0.000004879424
      10        0.000002231675    -0.000000159717     0.000001426497
      11       -0.000000974763    -0.000003478172     0.000003283119
      12        0.000000646347    -0.000001131213    -0.000002500577
      13        0.000002860573    -0.000000464149     0.000000077552

  **** Optimization is complete! (in 8 steps) ****
    Final optimized geometry and variables:
    Molecular point group: c1

    Geometry (in Angstrom), charge = 0, multiplicity = 1:

    H            0.440374338733     0.244458336145     2.397373414425
    C            0.435627280419     0.005248245040     1.327866730078
    C           -0.567996769803     0.775464335956     0.500531760667
    O            1.215701408173    -0.781132496444     0.896231553280
    C           -1.079000427375     0.039434051557    -0.746308060343
    H           -0.074789360675     1.699264868454     0.197498398720
    H           -1.392828910868     1.060755226992     1.147135815112
    C           -0.082824181956     0.005701829810    -1.905751679068
    H           -1.989612581819     0.532516943490    -1.074756920245
    H           -1.358518121030    -0.974135106219    -0.474196435032
    H            0.179913662038     1.013074954757    -2.218628638869
    H           -0.514881124860    -0.501397347265    -2.762967567488
    H            0.826025954832    -0.510634463952    -1.628109815112

  Mulliken Charges: (a.u.)
   Center  Symbol    Alpha    Beta     Spin     Total
       1     H     0.42732  0.42732  0.00000  0.14536
       2     C     2.83967  2.83967  0.00000  0.32065
       3     C     3.20998  3.20998  0.00000 -0.41996
       4     O     4.23642  4.23642  0.00000 -0.47284
       5     C     3.15159  3.15159  0.00000 -0.30317
       6     H     0.40249  0.40249  0.00000  0.19501
       7     H     0.41109  0.41109  0.00000  0.17782
       8     C     3.24484  3.24484  0.00000 -0.48969
       9     H     0.41794  0.41794  0.00000  0.16412
      10     H     0.41435  0.41435  0.00000  0.17131
      11     H     0.42552  0.42552  0.00000  0.14897
      12     H     0.41992  0.41992  0.00000  0.16016
      13     H     0.39887  0.39887  0.00000  0.20227

   Total alpha = 20.00000, Total beta = 20.00000, Total charge =  0.00000
