                              Psi4 1.0.54 Driver

  ==> Input File <==

--------------------------------------------------------------------------
set {
	reference rhf
	basis cc-pvtz
}

set_num_threads( 4 )
memory 2 gb

molecule MOL {
0 1

H	 -3.162190	 0.493205	 -0.000107
C	 -2.363908	 -0.234727	 0.000005
O	 -1.158738	 0.454634	 -0.000087
H	 -2.464314	 -0.863616	 -0.882153
H	 -2.464327	 -0.863359	 0.882345
C	 -0.028611	 -0.359694	 0.000037
C	 0.781157	 -0.089597	 1.252122
H	 0.574080	 -0.162938	 -0.886917
H	 -0.323592	 -1.408602	 -0.037668
C	 2.040348	 -0.945836	 1.327224
H	 1.042979	 0.962497	 1.273893
H	 0.152460	 -0.273315	 2.116378
H	 2.696015	 -0.759644	 0.483115
H	 2.599109	 -0.732682	 2.230204
H	 1.799538	 -2.003693	 1.331533

	symmetry c1
}
set optking {
	frozen_dihedral = ("
		8 6 3 2
	")
}

ee,wfn = optimize('scf', return_wfn=True)
oeprop( wfn, 'DIPOLE', 'QUADRUPOLE', 'MULLIKEN_CHARGES')
f=open( 'psi4out.xyz', 'w' )
f.write( "15  " )
f.write( str(ee) + "\n" )
f.write( MOL.save_string_xyz() )
f.close()
--------------------------------------------------------------------------

    Molecular point group: c1
  Charge       = 0
  Multiplicity = 1
  Basis Set: CC-PVTZ
  Basis Set:
  @DF-RHF Final Energy:  -232.22389959274693
    Total Energy =                       -232.2238995927468750
    Molecular point group: c1
  Basis Set: CC-PVTZ
  Basis Set:
  Basis Set: CC-PVTZ
  Basis Set:
  @DF-RHF Final Energy:  -232.22430534368604
    Total Energy =                       -232.2243053436862397
  Basis Set: CC-PVTZ
  Basis Set:
  Basis Set: CC-PVTZ
  Basis Set:
  @DF-RHF Final Energy:  -232.22439895993287
    Total Energy =                       -232.2243989599328415
  Basis Set: CC-PVTZ
  Basis Set:
  Basis Set: CC-PVTZ
  Basis Set:
  @DF-RHF Final Energy:  -232.22440031017243
    Total Energy =                       -232.2244003101726548
  Basis Set: CC-PVTZ
  Basis Set:
  Charge       = 0
  Multiplicity = 1
  Basis Set: CC-PVTZ
  Basis Set:

    Orbital Energies (a.u.)
    -----------------------

    Doubly Occupied:

       1A    -20.544080     2A    -11.264021     3A    -11.262523
       4A    -11.212828     5A    -11.211002     6A     -1.376708
       7A     -1.057405     8A     -0.957262     9A     -0.879357
      10A     -0.808592    11A     -0.671304    12A     -0.654659
      13A     -0.637042    14A     -0.601100    15A     -0.568856
      16A     -0.538465    17A     -0.507032    18A     -0.494524
      19A     -0.482210    20A     -0.463150    21A     -0.407056

  @DF-RHF Final Energy:  -232.22440040912926

   => Energetics <=

    Nuclear Repulsion Energy =            190.3412958420686891
    One-Electron Energy =                -691.9330344787171043
    Two-Electron Energy =                 269.3673382275190988
    DFT Exchange-Correlation Energy =       0.0000000000000000
    Empirical Dispersion Energy =           0.0000000000000000
    PCM Polarization Energy =               0.0000000000000000
    EFP Energy =                            0.0000000000000000
    Total Energy =                       -232.2244004091293164
    Molecular point group: c1
  Basis Set: CC-PVTZ
  Basis Set:

  -Total Gradient:
     Atom            X                  Y                   Z
    ------   -----------------  -----------------  -----------------
       1        0.000007228569    -0.000002161189     0.000001052716
       2       -0.000021804245    -0.000017850555     0.000176282137
       3        0.000076698544     0.000041478872    -0.000225056867
       4       -0.000001901774     0.000000837698     0.000003130634
       5       -0.000000716428     0.000002819426    -0.000004936123
       6       -0.000171667421    -0.000162101618    -0.000055414749
       7       -0.000002357995    -0.000013121135    -0.000008292121
       8        0.000107738493     0.000152211350     0.000105263975
       9        0.000000757781    -0.000009312273     0.000001279770
      10        0.000002428942     0.000010678701     0.000003454967
      11        0.000000747681    -0.000002954371     0.000000345509
      12       -0.000002298801     0.000001723781     0.000000552938
      13        0.000000185739    -0.000003554065     0.000000694780
      14        0.000005987442    -0.000003191440     0.000001807198
      15       -0.000001026523     0.000004496819    -0.000000164766

  **** Optimization is complete! (in 5 steps) ****
    Final optimized geometry and variables:
    Molecular point group: c1

    Geometry (in Angstrom), charge = 0, multiplicity = 1:

    H           -2.990757290898     0.768845464511    -0.554908031559
    C           -2.213681181695     0.017901601791    -0.546274063505
    O           -0.990472837070     0.676678555725    -0.529862348249
    H           -2.323806082829    -0.604794246940    -1.431127237589
    H           -2.346860384003    -0.607618059862     0.333563497505
    C            0.147941794781    -0.136033746112    -0.480175261266
    C            0.958575941576     0.147503206354     0.772815531927
    H            0.749550538895     0.063060672710    -1.362409279858
    H           -0.130197334588    -1.186485682612    -0.512395509525
    C            2.241792530759    -0.673544701719     0.836171750848
    H            1.191139407388     1.206484421450     0.797538778583
    H            0.342626818474    -0.055837626400     1.643247327248
    H            2.884084192464    -0.466368131607    -0.013361574648
    H            2.803052426210    -0.448538883973     1.734876486614
    H            2.030856261968    -1.738062489853     0.838095853869

  Mulliken Charges: (a.u.)
   Center  Symbol    Alpha    Beta     Spin     Total
       1     H     0.44945  0.44945  0.00000  0.10110
       2     C     3.03132  3.03132  0.00000 -0.06264
       3     O     4.17988  4.17988  0.00000 -0.35976
       4     H     0.46949  0.46949  0.00000  0.06103
       5     H     0.47300  0.47300  0.00000  0.05400
       6     C     2.96846  2.96846  0.00000  0.06308
       7     C     3.07834  3.07834  0.00000 -0.15668
       8     H     0.45658  0.45658  0.00000  0.08684
       9     H     0.47429  0.47429  0.00000  0.05142
      10     C     3.15499  3.15499  0.00000 -0.30999
      11     H     0.45065  0.45065  0.00000  0.09870
      12     H     0.45596  0.45596  0.00000  0.08808
      13     H     0.45497  0.45497  0.00000  0.09006
      14     H     0.44662  0.44662  0.00000  0.10675
      15     H     0.45600  0.45600  0.00000  0.08800

   Total alpha = 21.00000, Total beta = 21.00000, Total charge = -0.00000

*** Psi4 exiting successfully. Buy a developer a beer!
