  ==> Input File <==

--------------------------------------------------------------------------
set {
	reference rhf
	basis 6-31G*
}

set_num_threads( 4 )
memory 2 gb

molecule MOL {
0 1

H	 2.591676	 2.013956	 0.335017
O	 3.341076	 1.666752	 -0.126416
C	 3.569581	 0.339145	 0.272707
C	 2.539767	 -0.640285	 -0.279495
H	 4.553106	 0.084646	 -0.100901
H	 3.608576	 0.269204	 1.359154
C	 1.795729	 -1.433901	 0.797283
H	 1.825778	 -0.086040	 -0.883149
H	 3.052316	 -1.330165	 -0.947871
C	 0.808568	 -2.446291	 0.209576
H	 1.264170	 -0.743591	 1.446345
H	 2.517113	 -1.960124	 1.422612
C	 0.098435	 -3.327944	 1.243374
H	 0.064915	 -1.917907	 -0.384257
H	 1.345573	 -3.091661	 -0.482396
C	 -0.859810	 -2.582603	 2.176494
H	 -0.461603	 -4.094439	 0.711718
H	 0.842863	 -3.855813	 1.837527
C	 -1.622228	 -3.517144	 3.118187
H	 -1.572903	 -2.015228	 1.580093
H	 -0.312825	 -1.854913	 2.771118
C	 -2.574720	 -2.775120	 4.055109
H	 -2.184581	 -4.239676	 2.530653
H	 -0.911204	 -4.091921	 3.708071
H	 -3.319100	 -2.216080	 3.495112
H	 -3.101264	 -3.464407	 4.708002
H	 -2.037345	 -2.070198	 4.683343

	symmetry c1
}
set optking {
	frozen_dihedral = ("
		8 4 3 2
	")
}

ee = optimize('scf')
oeprop('DIPOLE', 'QUADRUPOLE', 'MULLIKEN_CHARGES')
f=open( 'psi4out.xyz', 'w' )
f.write( "27  " )
f.write( str(ee) + "\n" )
f.write( MOL.save_string_xyz() )
f.close()
--------------------------------------------------------------------------

    Molecular point group: c1
  Charge       = 0
  Multiplicity = 1
  Basis Set: 6-31G*
  Basis Set:
  @DF-RHF Final Energy:  -388.27523189567194
    Total Energy =                       -388.2752318956718227
    Molecular point group: c1
  Basis Set: 6-31G*
  Basis Set:
  Basis Set: 6-31G*
  Basis Set:
  @DF-RHF Final Energy:  -388.27566452918006
    Total Energy =                       -388.2756645291805171
  Basis Set: 6-31G*
  Basis Set:
  Basis Set: 6-31G*
  Basis Set:
  @DF-RHF Final Energy:  -388.27575771079358
    Total Energy =                       -388.2757577107929592
  Basis Set: 6-31G*
  Basis Set:
  Basis Set: 6-31G*
  Basis Set:
  @DF-RHF Final Energy:  -388.27575658586352
    Total Energy =                       -388.2757565858635189
  Basis Set: 6-31G*
  Basis Set:
  Basis Set: 6-31G*
  Basis Set:
  @DF-RHF Final Energy:  -388.27576049270510
    Total Energy =                       -388.2757604927052171
  Basis Set: 6-31G*
  Basis Set:
  Charge       = 0
  Multiplicity = 1
  Basis Set: 6-31G*
  Basis Set:

    Orbital Energies (a.u.)
    -----------------------

    Doubly Occupied:

       1A    -20.551153     2A    -11.266836     3A    -11.219824
       4A    -11.217215     5A    -11.216418     6A    -11.215852
       7A    -11.215814     8A    -11.214671     9A    -11.209900
      10A     -1.357666    11A     -1.095476    12A     -1.061597
      13A     -1.010413    14A     -0.945446    15A     -0.885448
      16A     -0.823624    17A     -0.805136    18A     -0.779113
      19A     -0.686193    20A     -0.652941    21A     -0.642967
      22A     -0.607584    23A     -0.602286    24A     -0.585335
      25A     -0.574420    26A     -0.553051    27A     -0.543830
      28A     -0.527558    29A     -0.508271    30A     -0.501138
      31A     -0.483865    32A     -0.475224    33A     -0.464521
      34A     -0.460401    35A     -0.450354    36A     -0.441650
      37A     -0.422219

  @DF-RHF Final Energy:  -388.27576041523719

   => Energetics <=

    Nuclear Repulsion Energy =            454.7340074970701380
    One-Electron Energy =               -1427.4687136618506429
    Two-Electron Energy =                 584.4589457495434317
    DFT Exchange-Correlation Energy =       0.0000000000000000
    Empirical Dispersion Energy =           0.0000000000000000
    PCM Polarization Energy =               0.0000000000000000
    EFP Energy =                            0.0000000000000000
    Total Energy =                       -388.2757604152370732
    Molecular point group: c1
  Basis Set: 6-31G*
  Basis Set:

  -Total Gradient:
     Atom            X                  Y                   Z
    ------   -----------------  -----------------  -----------------
       1       -0.000006907711    -0.000058107962     0.000014262518
       2        0.000154621114    -0.000030315844     0.000155227977
       3       -0.000076724366    -0.000090544623    -0.000170257689
       4       -0.000128911703     0.000079782384     0.000310941306
       5       -0.000031575475     0.000084425145    -0.000075091888
       6        0.000014623569     0.000093414005     0.000002935032
       7       -0.000029136109     0.000032336534    -0.000097181942
       8        0.000045165410    -0.000055846080    -0.000097086378
       9        0.000033506200    -0.000020629703     0.000002569178
      10        0.000038982657    -0.000042539070     0.000037012043
      11       -0.000046771356    -0.000000215027    -0.000027686388
      12        0.000042054654     0.000026859134    -0.000025262914
      13       -0.000042226925    -0.000046348658    -0.000044517670
      14        0.000005261258    -0.000033102526     0.000000201764
      15        0.000037404247     0.000030044207     0.000006351115
      16       -0.000006388059     0.000011644131    -0.000016750023
      17       -0.000030193868     0.000017144777     0.000011101141
      18       -0.000016234001    -0.000039990115    -0.000022590321
      19        0.000017762311     0.000011792993     0.000030604220
      20       -0.000003991911    -0.000023882837     0.000009243240
      21        0.000021211810     0.000050451898    -0.000009586143
      22        0.000004835225     0.000001284151     0.000008652504
      23        0.000004528153     0.000012472622    -0.000005095165
      24        0.000000243503    -0.000009423639     0.000001678821
      25        0.000002305350    -0.000000384634    -0.000000763074
      26       -0.000000701493    -0.000000194072     0.000000910035
      27       -0.000002742487    -0.000000127196     0.000000178707

  **** Optimization is complete! (in 6 steps) ****
    Final optimized geometry and variables:
    Molecular point group: c1

    Geometry (in Angstrom), charge = 0, multiplicity = 1:

    H            1.683631518255     3.543517383004    -1.047438963359
    O            2.518251336222     3.250226991130    -1.385535160168
    C            2.751135561097     1.929245495156    -0.966257683978
    C            1.744448984648     0.914129074384    -1.543052316187
    H            3.755470232668     1.700573139167    -1.295184026532
    H            2.754421050886     1.879927006847     0.121352894401
    C            0.979961608694     0.126233201023    -0.475651328135
    H            1.043608920776     1.454657032602    -2.173764892296
    H            2.258616537304     0.217694707502    -2.200201176315
    C           -0.017178014260    -0.870012304993    -1.072004097603
    H            0.463579388290     0.825505441467     0.178326326223
    H            1.689644477769    -0.409931321898     0.153097936112
    C           -0.735760496280    -1.754776803341    -0.046613908235
    H           -0.756217269600    -0.329602577919    -1.661378291460
    H            0.512907056110    -1.514011579667    -1.770657094130
    C           -1.674969216898    -1.006745727760     0.903496049988
    H           -1.311879675943    -2.504281151432    -0.585223103786
    H            0.003607800340    -2.302968461243     0.535149035216
    C           -2.441538251326    -1.940936526128     1.842167434584
    H           -2.386004731100    -0.423388445400     0.319881214863
    H           -1.112124643253    -0.293436223222     1.500684898408
    C           -3.375052644206    -1.196203806881     2.795883387238
    H           -3.019115178781    -2.649344973201     1.252219441426
    H           -1.733033012729    -2.531540955349     2.419220606826
    H           -4.117003256846    -0.621176972167     2.248914223974
    H           -3.904934787074    -1.885259373261     3.446288557212
    H           -2.822207906793    -0.505548984467     3.426527739395

  Mulliken Charges: (a.u.)
   Center  Symbol    Alpha    Beta     Spin     Total
       1     H     0.28407  0.28407  0.00000  0.43187
       2     O     4.37004  4.37004  0.00000 -0.74007
       3     C     2.99481  2.99481  0.00000  0.01038
       4     C     3.17513  3.17513  0.00000 -0.35026
       5     H     0.41401  0.41401  0.00000  0.17198
       6     H     0.42839  0.42839  0.00000  0.14322
       7     C     3.15950  3.15950  0.00000 -0.31900
       8     H     0.41465  0.41465  0.00000  0.17071
       9     H     0.41717  0.41717  0.00000  0.16567
      10     C     3.15333  3.15333  0.00000 -0.30667
      11     H     0.42402  0.42402  0.00000  0.15196
      12     H     0.42263  0.42263  0.00000  0.15475
      13     C     3.15329  3.15329  0.00000 -0.30658
      14     H     0.42333  0.42333  0.00000  0.15333
      15     H     0.42094  0.42094  0.00000  0.15811
      16     C     3.15269  3.15269  0.00000 -0.30538
      17     H     0.42128  0.42128  0.00000  0.15744
      18     H     0.42376  0.42376  0.00000  0.15249
      19     C     3.15119  3.15119  0.00000 -0.30238
      20     H     0.42477  0.42477  0.00000  0.15046
      21     H     0.42284  0.42284  0.00000  0.15433
      22     C     3.23920  3.23920  0.00000 -0.47841
      23     H     0.42286  0.42286  0.00000  0.15427
      24     H     0.42294  0.42294  0.00000  0.15412
      25     H     0.42189  0.42189  0.00000  0.15622
      26     H     0.41909  0.41909  0.00000  0.16182
      27     H     0.42219  0.42219  0.00000  0.15563

   Total alpha = 37.00000, Total beta = 37.00000, Total charge =  0.00000
