                              Psi4 1.0.54 Driver

  ==> Input File <==

--------------------------------------------------------------------------
set {
	reference rhf
	basis cc-pvtz
}

set_num_threads( 4 )
memory 2 gb

molecule MOL {
0 1

H	 2.001267	 1.431426	 -0.811859
O	 1.126383	 1.075195	 -0.849450
C	 1.050374	 0.054877	 0.000135
C	 -0.318151	 -0.570512	 0.000144
O	 1.971824	 -0.286613	 0.657617
C	 -1.454884	 0.441630	 -0.000560
H	 -0.371613	 -1.223646	 -0.864985
H	 -0.371920	 -1.222758	 0.865929
C	 -2.822577	 -0.232186	 0.000063
H	 -1.359760	 1.084704	 -0.867077
H	 -1.359641	 1.085996	 0.864983
H	 -2.954352	 -0.858985	 -0.875745
H	 -3.615886	 0.505352	 0.000019
H	 -2.953878	 -0.858359	 0.876394

	symmetry c1
}
set optking {
	frozen_dihedral = ("
		2 3 4 7
	")
}

ee,wfn = optimize('scf', return_wfn=True)
oeprop( wfn, 'DIPOLE', 'QUADRUPOLE', 'MULLIKEN_CHARGES')
f=open( 'psi4out.xyz', 'w' )
f.write( "14  " )
f.write( str(ee) + "\n" )
f.write( MOL.save_string_xyz() )
f.close()
--------------------------------------------------------------------------

    Molecular point group: c1
  Charge       = 0
  Multiplicity = 1
  Basis Set: CC-PVTZ
  Basis Set:
  @DF-RHF Final Energy:  -305.99881412808668
    Total Energy =                       -305.9988141280866785
    Molecular point group: c1
  Basis Set: CC-PVTZ
  Basis Set:
  Basis Set: CC-PVTZ
  Basis Set:
  @DF-RHF Final Energy:  -305.99872654207007
    Total Energy =                       -305.9987265420700737
  Basis Set: CC-PVTZ
  Basis Set:
  Basis Set: CC-PVTZ
  Basis Set:
  @DF-RHF Final Energy:  -305.99894580582770
    Total Energy =                       -305.9989458058277023
  Basis Set: CC-PVTZ
  Basis Set:
  Basis Set: CC-PVTZ
  Basis Set:
  @DF-RHF Final Energy:  -305.99918368803458
    Total Energy =                       -305.9991836880344067
  Basis Set: CC-PVTZ
  Basis Set:
  Basis Set: CC-PVTZ
  Basis Set:
  @DF-RHF Final Energy:  -305.99922157790013
    Total Energy =                       -305.9992215778999025
  Basis Set: CC-PVTZ
  Basis Set:
  Charge       = 0
  Multiplicity = 1
  Basis Set: CC-PVTZ
  Basis Set:

    Orbital Energies (a.u.)
    -----------------------

    Doubly Occupied:

       1A    -20.605615     2A    -20.538847     3A    -11.373525
       4A    -11.239371     5A    -11.230786     6A    -11.218524
       7A     -1.478291     8A     -1.368306     9A     -1.087085
      10A     -0.980230    11A     -0.849349    12A     -0.818318
      13A     -0.704461    14A     -0.686621    15A     -0.658794
      16A     -0.625794    17A     -0.594710    18A     -0.566119
      19A     -0.552096    20A     -0.523973    21A     -0.500047
      22A     -0.489184    23A     -0.476930    24A     -0.440450

  @DF-RHF Final Energy:  -305.99922228226774

   => Energetics <=

    Nuclear Repulsion Energy =            240.8708737236997592
    One-Electron Energy =                -894.5253304539544388
    Two-Electron Energy =                 347.6552344479870271
    DFT Exchange-Correlation Energy =       0.0000000000000000
    Empirical Dispersion Energy =           0.0000000000000000
    PCM Polarization Energy =               0.0000000000000000
    EFP Energy =                            0.0000000000000000
    Total Energy =                       -305.9992222822676240
    Molecular point group: c1
  Basis Set: CC-PVTZ
  Basis Set:

  -Total Gradient:
     Atom            X                  Y                   Z
    ------   -----------------  -----------------  -----------------
       1        0.000019322810     0.000015242989    -0.000018340696
       2       -0.000137491470     0.000485790323     0.000526193415
       3        0.000241101297    -0.000836295595    -0.000541463325
       4       -0.000333755464     0.000899430008    -0.000405783213
       5        0.000023053848     0.000058245672    -0.000038823545
       6       -0.000028208975     0.000001929913     0.000030626062
       7        0.000207643135    -0.000654991934     0.000485587492
       8       -0.000002009146     0.000013621085    -0.000014090380
       9        0.000008411435     0.000011899077    -0.000006687404
      10       -0.000003994114     0.000001162992    -0.000000575502
      11       -0.000003978725     0.000009046187     0.000000472170
      12       -0.000006474734    -0.000012798101    -0.000013372272
      13        0.000004837234     0.000004605011    -0.000003222502
      14        0.000011542871     0.000003112372    -0.000000520300

  **** Optimization is complete! (in 6 steps) ****
    Final optimized geometry and variables:
    Molecular point group: c1

    Geometry (in Angstrom), charge = 0, multiplicity = 1:

    H            2.213596472631     1.149641505562    -0.696817901172
    O            1.307141727797     0.890034050682    -0.766411711691
    C            1.091133332597    -0.103603083278     0.089802228143
    C           -0.319389952592    -0.629289436025     0.045580201225
    O            1.947270586949    -0.524263017688     0.789307608332
    C           -1.408486870938     0.438304187932    -0.051200679237
    H           -0.373779275452    -1.295919363247    -0.810922991781
    H           -0.447436326955    -1.239442343100     0.928432974432
    C           -2.804691128472    -0.173870317101    -0.041529419738
    H           -1.267862276924     1.019582114968    -0.953003732331
    H           -1.309546189154     1.128244600397     0.780880107487
    H           -2.942759478446    -0.847272332166    -0.880837297976
    H           -3.564094400695     0.595867472268    -0.106751226247
    H           -2.981431189452    -0.737896509029     0.867791581811

  Mulliken Charges: (a.u.)
   Center  Symbol    Alpha    Beta     Spin     Total
       1     H     0.38087  0.38087  0.00000  0.23826
       2     O     4.16025  4.16025  0.00000 -0.32049
       3     C     2.81130  2.81130  0.00000  0.37740
       4     C     3.08873  3.08873  0.00000 -0.17745
       5     O     4.19373  4.19373  0.00000 -0.38746
       6     C     3.08907  3.08907  0.00000 -0.17814
       7     H     0.44508  0.44508  0.00000  0.10985
       8     H     0.43549  0.43549  0.00000  0.12902
       9     C     3.15043  3.15043  0.00000 -0.30086
      10     H     0.44268  0.44268  0.00000  0.11464
      11     H     0.44924  0.44924  0.00000  0.10151
      12     H     0.45436  0.45436  0.00000  0.09128
      13     H     0.44557  0.44557  0.00000  0.10885
      14     H     0.45321  0.45321  0.00000  0.09359

   Total alpha = 24.00000, Total beta = 24.00000, Total charge =  0.00000

*** Psi4 exiting successfully. Buy a developer a beer!
