                              Psi4 1.0.54 Driver

  ==> Input File <==

--------------------------------------------------------------------------
set {
	reference rhf
	basis cc-pvtz
}

set_num_threads( 4 )
memory 2 gb

molecule MOL {
0 1

H	 2.307501	 1.595216	 0.232181
O	 1.389306	 1.630414	 0.425377
C	 0.700177	 0.619554	 -0.266242
C	 -0.713111	 0.588314	 0.266177
H	 1.170599	 -0.345330	 -0.103063
H	 0.683364	 0.821813	 -1.334037
O	 -1.421673	 -0.521378	 -0.196983
H	 -1.244794	 1.469161	 -0.069059
H	 -0.685100	 0.604721	 1.352683
H	 -0.933408	 -1.297830	 0.014544

	symmetry c1
}
set optking {
	frozen_dihedral = ("
		5 3 4 7
	")
}

ee,wfn = optimize('scf', return_wfn=True)
oeprop( wfn, 'DIPOLE', 'QUADRUPOLE', 'MULLIKEN_CHARGES')
f=open( 'psi4out.xyz', 'w' )
f.write( "10  " )
f.write( str(ee) + "\n" )
f.write( MOL.save_string_xyz() )
f.close()
--------------------------------------------------------------------------

    Molecular point group: c1
  Charge       = 0
  Multiplicity = 1
  Basis Set: CC-PVTZ
  Basis Set:
  @DF-RHF Final Energy:  -229.02425118906555
    Total Energy =                       -229.0242511890654669
    Molecular point group: c1
  Basis Set: CC-PVTZ
  Basis Set:
  Basis Set: CC-PVTZ
  Basis Set:
  @DF-RHF Final Energy:  -229.02499224791211
    Total Energy =                       -229.0249922479120528
  Basis Set: CC-PVTZ
  Basis Set:
  Basis Set: CC-PVTZ
  Basis Set:
  @DF-RHF Final Energy:  -229.02522019210889
    Total Energy =                       -229.0252201921090034
  Basis Set: CC-PVTZ
  Basis Set:
  Basis Set: CC-PVTZ
  Basis Set:
  @DF-RHF Final Energy:  -229.02525539420131
    Total Energy =                       -229.0252553942012241
  Basis Set: CC-PVTZ
  Basis Set:
  Charge       = 0
  Multiplicity = 1
  Basis Set: CC-PVTZ
  Basis Set:

    Orbital Energies (a.u.)
    -----------------------

    Doubly Occupied:

       1A    -20.556264     2A    -20.552549     3A    -11.271462
       4A    -11.267345     5A     -1.379704     6A     -1.366133
       7A     -0.999651     8A     -0.848016     9A     -0.726784
      10A     -0.686657    11A     -0.646120    12A     -0.617237
      13A     -0.577667    14A     -0.528587    15A     -0.496000
      16A     -0.447175    17A     -0.442149

  @DF-RHF Final Energy:  -229.02525936863270

   => Energetics <=

    Nuclear Repulsion Energy =            131.5349620936144674
    One-Electron Energy =                -574.3014415772576058
    Two-Electron Energy =                 213.7412201150104920
    DFT Exchange-Correlation Energy =       0.0000000000000000
    Empirical Dispersion Energy =           0.0000000000000000
    PCM Polarization Energy =               0.0000000000000000
    EFP Energy =                            0.0000000000000000
    Total Energy =                       -229.0252593686326463
    Molecular point group: c1
  Basis Set: CC-PVTZ
  Basis Set:

  -Total Gradient:
     Atom            X                  Y                   Z
    ------   -----------------  -----------------  -----------------
       1        0.000011451697     0.000017313955     0.000016470769
       2       -0.000132825854    -0.000164561125    -0.000166054812
       3        0.001044960202     0.000559831895     0.002879041297
       4       -0.000747120950     0.001071581956    -0.002073166665
       5       -0.000638621474    -0.000637635956    -0.001853669718
       6        0.000010113728     0.000027489890    -0.000031308327
       7        0.000468358318    -0.000853305160     0.001216446027
       8       -0.000018962604    -0.000012041912    -0.000013798548
       9       -0.000011132675     0.000006524028     0.000013337388
      10        0.000013779611    -0.000015197571     0.000012702588

  **** Optimization is complete! (in 5 steps) ****
    Final optimized geometry and variables:
    Molecular point group: c1

    Geometry (in Angstrom), charge = 0, multiplicity = 1:

    H            2.243424680966     1.176412525863     0.019435339702
    O            1.388777079423     1.050222847004     0.387224962635
    C            0.701514302484     0.049255774979    -0.306685311367
    C           -0.725450146168     0.021641370843     0.206263618939
    H            1.158249926047    -0.927946251117    -0.156945443953
    H            0.697005365353     0.240230843584    -1.376085840195
    O           -1.433849523290    -1.075250835713    -0.297983081296
    H           -1.249316943312     0.911420062154    -0.112326793967
    H           -0.710609555305     0.019597877699     1.291844516878
    H           -1.138421091144    -1.866662884475     0.113448691320

  Mulliken Charges: (a.u.)
   Center  Symbol    Alpha    Beta     Spin     Total
       1     H     0.39252  0.39252  0.00000  0.21496
       2     O     4.19914  4.19914  0.00000 -0.39827
       3     C     2.96240  2.96240  0.00000  0.07519
       4     C     2.97521  2.97521  0.00000  0.04959
       5     H     0.48268  0.48268  0.00000  0.03464
       6     H     0.47094  0.47094  0.00000  0.05811
       7     O     4.20351  4.20351  0.00000 -0.40701
       8     H     0.45337  0.45337  0.00000  0.09326
       9     H     0.46678  0.46678  0.00000  0.06643
      10     H     0.39346  0.39346  0.00000  0.21309

   Total alpha = 17.00000, Total beta = 17.00000, Total charge =  0.00000

*** Psi4 exiting successfully. Buy a developer a beer!
