  ==> Input File <==

--------------------------------------------------------------------------
set {
	reference rhf
	basis 6-31G*
}

set_num_threads( 4 )
memory 2 gb

molecule MOL {
0 1

O	 0.749854	 1.307668	 -0.000040
C	 0.576249	 0.131685	 -0.000108
C	 -0.766779	 -0.556801	 -0.000461
O	 1.568443	 -0.749345	 -0.000005
C	 -1.945214	 0.412366	 0.000161
H	 -0.796911	 -1.211249	 -0.867467
H	 -0.796854	 -1.212390	 0.865687
C	 -3.287791	 -0.317055	 0.000105
H	 -1.876087	 1.060580	 -0.866812
H	 -1.875822	 1.059691	 0.867761
H	 -3.394745	 -0.949193	 -0.877058
H	 -4.111778	 0.388953	 0.000015
H	 -3.394954	 -0.949187	 0.877259
C	 2.874062	 -0.246880	 0.219305
H	 3.142115	 0.463092	 -0.549869
H	 3.529569	 -1.102949	 0.182921
H	 2.939056	 0.233892	 1.184780

	symmetry c1
}
set optking {
	frozen_dihedral = ("
		14 4 2 1
	")
}

ee = optimize('scf')
oeprop('DIPOLE', 'QUADRUPOLE', 'MULLIKEN_CHARGES')
f=open( 'psi4out.xyz', 'w' )
f.write( "17  " )
f.write( str(ee) + "\n" )
f.write( MOL.save_string_xyz() )
f.close()
--------------------------------------------------------------------------

    Molecular point group: c1
  Charge       = 0
  Multiplicity = 1
  Basis Set: 6-31G*
  Basis Set:
  @DF-RHF Final Energy:  -344.90620682330189
    Total Energy =                       -344.9062068233018294
    Molecular point group: c1
  Basis Set: 6-31G*
  Basis Set:
  Basis Set: 6-31G*
  Basis Set:
  @DF-RHF Final Energy:  -344.90478350646015
    Total Energy =                       -344.9047835064602623
  Basis Set: 6-31G*
  Basis Set:
  Basis Set: 6-31G*
  Basis Set:
  @DF-RHF Final Energy:  -344.90628278581170
    Total Energy =                       -344.9062827858119249
  Basis Set: 6-31G*
  Basis Set:
  Basis Set: 6-31G*
  Basis Set:
  @DF-RHF Final Energy:  -344.90629074405683
    Total Energy =                       -344.9062907440571735
  Basis Set: 6-31G*
  Basis Set:
  Basis Set: 6-31G*
  Basis Set:
  @DF-RHF Final Energy:  -344.90629293641371
    Total Energy =                       -344.9062929364136494
  Basis Set: 6-31G*
  Basis Set:
  Basis Set: 6-31G*
  Basis Set:
  @DF-RHF Final Energy:  -344.90624955048781
    Total Energy =                       -344.9062495504877006
  Basis Set: 6-31G*
  Basis Set:
  Basis Set: 6-31G*
  Basis Set:
  @DF-RHF Final Energy:  -344.90629366586921
    Total Energy =                       -344.9062936658693275
  Basis Set: 6-31G*
  Basis Set:
  Charge       = 0
  Multiplicity = 1
  Basis Set: 6-31G*
  Basis Set:

    Orbital Energies (a.u.)
    -----------------------

    Doubly Occupied:

       1A    -20.603559     2A    -20.546143     3A    -11.372769
       4A    -11.281405     5A    -11.236108     6A    -11.222007
       7A    -11.214611     8A     -1.469455     9A     -1.363343
      10A     -1.080628    11A     -1.001350    12A     -0.939990
      13A     -0.827425    14A     -0.767342    15A     -0.700334
      16A     -0.683341    17A     -0.672363    18A     -0.636969
      19A     -0.595730    20A     -0.574971    21A     -0.568706
      22A     -0.527615    23A     -0.522188    24A     -0.498654
      25A     -0.487111    26A     -0.478849    27A     -0.456221
      28A     -0.438121

  @DF-RHF Final Energy:  -344.90629420152459

   => Energetics <=

    Nuclear Repulsion Energy =            312.4462524869196614
    One-Electron Energy =               -1089.1704760667537357
    Two-Electron Energy =                 431.8179293783096000
    DFT Exchange-Correlation Energy =       0.0000000000000000
    Empirical Dispersion Energy =           0.0000000000000000
    PCM Polarization Energy =               0.0000000000000000
    EFP Energy =                            0.0000000000000000
    Total Energy =                       -344.9062942015244744
    Molecular point group: c1
  Basis Set: 6-31G*
  Basis Set:

  -Total Gradient:
     Atom            X                  Y                   Z
    ------   -----------------  -----------------  -----------------
       1       -0.000072747758     0.000032022577    -0.003567114379
       2        0.000047630390    -0.000333255587     0.006711162308
       3        0.000058862680     0.000006312990    -0.000090322127
       4        0.000237866311     0.000730395680    -0.005752835218
       5        0.000001825274    -0.000003235909     0.000022916864
       6       -0.000015526526    -0.000012136884    -0.000014697051
       7        0.000015775139     0.000003990566    -0.000008498535
       8       -0.000001998267     0.000000319072    -0.000008295230
       9       -0.000000792774     0.000002594428    -0.000003172570
      10        0.000002560666    -0.000003776301    -0.000005629410
      11       -0.000002286637    -0.000002086092     0.000000279336
      12       -0.000000854996    -0.000000176403     0.000000022450
      13        0.000002192567     0.000001902893     0.000000628108
      14       -0.000296971444    -0.000460795105     0.002891909678
      15       -0.000012426973     0.000037205943    -0.000060211606
      16        0.000001523256    -0.000002538796    -0.000046300010
      17        0.000035369093     0.000003256928    -0.000069842607

  **** Optimization is complete! (in 8 steps) ****
    Final optimized geometry and variables:
    Molecular point group: c1

    Geometry (in Angstrom), charge = 0, multiplicity = 1:

    O            0.749505627950     1.310227068369     0.038861777966
    C            0.577040959047     0.134892267005     0.000935716666
    C           -0.765261422522    -0.554300022878    -0.021887574285
    O            1.570334187857    -0.743779361319    -0.058650749393
    C           -1.944324949956     0.413727440569    -0.048461811460
    H           -0.778619611522    -1.215646755623    -0.883732245596
    H           -0.810874366929    -1.203215049884     0.849004245829
    C           -3.286191484883    -0.316773445549    -0.065572470878
    H           -1.861311709396     1.054998704280    -0.919554962871
    H           -1.889766498842     1.068072135789     0.814760491128
    H           -3.377988230430    -0.955864957565    -0.939384063928
    H           -4.110570634091     0.388482080916    -0.084935441888
    H           -3.407530299982    -0.942108022485     0.814606976732
    C            2.881001657613    -0.246572875573     0.142312465815
    H            3.147710589057     0.452916113186    -0.636645674582
    H            3.531315968651    -1.106824400205     0.110646679288
    H            2.956472205956     0.244556656104     1.102066026066

  Mulliken Charges: (a.u.)
   Center  Symbol    Alpha    Beta     Spin     Total
       1     O     4.28509  4.28509  0.00000 -0.57017
       2     C     2.60607  2.60607  0.00000  0.78787
       3     C     3.20629  3.20629  0.00000 -0.41258
       4     O     4.30720  4.30720  0.00000 -0.61439
       5     C     3.15198  3.15198  0.00000 -0.30396
       6     H     0.40033  0.40033  0.00000  0.19935
       7     H     0.40163  0.40163  0.00000  0.19674
       8     C     3.24276  3.24276  0.00000 -0.48552
       9     H     0.41129  0.41129  0.00000  0.17742
      10     H     0.41048  0.41048  0.00000  0.17904
      11     H     0.42126  0.42126  0.00000  0.15748
      12     H     0.41511  0.41511  0.00000  0.16978
      13     H     0.42143  0.42143  0.00000  0.15713
      14     C     3.09258  3.09258  0.00000 -0.18516
      15     H     0.40754  0.40754  0.00000  0.18492
      16     H     0.40826  0.40826  0.00000  0.18348
      17     H     0.41072  0.41072  0.00000  0.17857

   Total alpha = 28.00000, Total beta = 28.00000, Total charge = -0.00000
