  ==> Input File <==

--------------------------------------------------------------------------
set {
	reference rhf
	basis 6-31G*
}

set_num_threads( 1 )
memory 2 gb

molecule MOL {
0 1

O	 -3.334598	 0.265849	 -0.976305
C	 -2.668563	 0.129746	 -0.000350
C	 -3.080755	 0.602056	 1.370157
O	 -1.481751	 -0.454642	 0.000584
H	 -4.017482	 0.126359	 1.634956
H	 -2.331786	 0.378650	 2.115525
H	 -3.255213	 1.670693	 1.331977
C	 -0.334255	 0.388708	 0.000906
C	 0.891947	 -0.504646	 0.000751
H	 -0.365390	 1.025305	 -0.873475
H	 -0.365484	 1.024911	 0.875569
C	 2.191998	 0.301789	 0.000897
H	 0.855148	 -1.151283	 -0.871571
H	 0.855132	 -1.151660	 0.872805
C	 3.441114	 -0.581407	 0.000108
H	 2.215074	 0.954890	 -0.869742
H	 2.215465	 0.953923	 0.872248
C	 4.739576	 0.224112	 -0.001102
H	 3.419457	 -1.233487	 -0.870178
H	 3.420834	 -1.233096	 0.870717
H	 4.804918	 0.861552	 -0.878265
H	 5.606527	 -0.429058	 -0.001824
H	 4.806469	 0.861674	 0.875853

	symmetry c1
}
set optking {
	frozen_dihedral = ("
		13 9 8 10,
		2 4 8 10,
		16 12 9 13,
		19 15 12 16
	")
}

ee = energy('scf')
oeprop('DIPOLE', 'QUADRUPOLE', 'MULLIKEN_CHARGES')
f=open( 'psi4out.xyz', 'w' )
f.write( "23  " )
f.write( str(ee) + "\n" )
f.write( MOL.save_string_xyz() )
f.close()
--------------------------------------------------------------------------

    Molecular point group: c1

    Geometry (in Angstrom), charge = 0, multiplicity = 1:

       Center              X                  Y                   Z               Mass
    ------------   -----------------  -----------------  -----------------  -----------------
           O         -3.358726522037     0.216773049150    -1.022225372916    15.994914619560
           C         -2.692691522037     0.080670049150    -0.046270372916    12.000000000000
           C         -3.104883522037     0.552980049150     1.324236627084    12.000000000000
           O         -1.505879522037    -0.503717950850    -0.045336372916    15.994914619560
           H         -4.041610522037     0.077283049150     1.589035627084     1.007825032070
           H         -2.355914522037     0.329574049150     2.069604627084     1.007825032070
           H         -3.279341522037     1.621617049150     1.286056627084     1.007825032070
           C         -0.358383522037     0.339632049150    -0.045014372916    12.000000000000
           C          0.867818477963    -0.553721950850    -0.045169372916    12.000000000000
           H         -0.389518522037     0.976229049150    -0.919395372916     1.007825032070
           H         -0.389612522037     0.975835049150     0.829648627084     1.007825032070
           C          2.167869477963     0.252713049150    -0.045023372916    12.000000000000
           H          0.831019477963    -1.200358950850    -0.917491372916     1.007825032070
           H          0.831003477963    -1.200735950850     0.826884627084     1.007825032070
           C          3.416985477963    -0.630482950850    -0.045812372916    12.000000000000
           H          2.190945477963     0.905814049150    -0.915662372916     1.007825032070
           H          2.191336477963     0.904847049150     0.826327627084     1.007825032070
           C          4.715447477963     0.175036049150    -0.047022372916    12.000000000000
           H          3.395328477963    -1.282562950850    -0.916098372916     1.007825032070
           H          3.396705477963    -1.282171950850     0.824796627084     1.007825032070
           H          4.780789477963     0.812476049150    -0.924185372916     1.007825032070
           H          5.582398477963    -0.478133950850    -0.047744372916     1.007825032070
           H          4.782340477963     0.812598049150     0.829932627084     1.007825032070

  Charge       = 0
  Multiplicity = 1
  Basis Set: 6-31G*
  Basis Set:

    Orbital Energies (a.u.)
    -----------------------

    Doubly Occupied:

       1A    -20.584381     2A    -20.550038     3A    -11.375021
       4A    -11.297027     5A    -11.233082     6A    -11.229817
       7A    -11.228559     8A    -11.224940     9A    -11.215777
      10A     -1.461469    11A     -1.365304    12A     -1.097753
      13A     -1.038668    14A     -1.008363    15A     -0.939727
      16A     -0.846858    17A     -0.807762    18A     -0.777726
      19A     -0.700569    20A     -0.686086    21A     -0.655606
      22A     -0.651390    23A     -0.619867    24A     -0.592464
      25A     -0.582121    26A     -0.578032    27A     -0.561582
      28A     -0.549218    29A     -0.519251    30A     -0.502709
      31A     -0.484129    32A     -0.479294    33A     -0.475159
      34A     -0.473267    35A     -0.455137    36A     -0.432827

  @DF-RHF Final Energy:  -422.95717486713221

   => Energetics <=

    Nuclear Repulsion Energy =            450.2572784510310271
    One-Electron Energy =               -1467.8670668697789097
    Two-Electron Energy =                 594.6526135516162412
    DFT Exchange-Correlation Energy =       0.0000000000000000
    Empirical Dispersion Energy =           0.0000000000000000
    PCM Polarization Energy =               0.0000000000000000
    EFP Energy =                            0.0000000000000000
    Total Energy =                       -422.9571748671316982

  Mulliken Charges: (a.u.)
   Center  Symbol    Alpha    Beta     Spin     Total
       1     O     4.25529  4.25529  0.00000 -0.51058
       2     C     2.62551  2.62551  0.00000  0.74899
       3     C     3.29568  3.29568  0.00000 -0.59137
       4     O     4.31583  4.31583  0.00000 -0.63167
       5     H     0.39399  0.39399  0.00000  0.21203
       6     H     0.40587  0.40587  0.00000  0.18825
       7     H     0.39910  0.39910  0.00000  0.20179
       8     C     2.99747  2.99747  0.00000  0.00506
       9     C     3.16305  3.16305  0.00000 -0.32611
      10     H     0.41062  0.41062  0.00000  0.17875
      11     H     0.42205  0.42205  0.00000  0.15591
      12     C     3.16147  3.16147  0.00000 -0.32295
      13     H     0.40728  0.40728  0.00000  0.18543
      14     H     0.41253  0.41253  0.00000  0.17494
      15     C     3.15185  3.15185  0.00000 -0.30370
      16     H     0.42024  0.42024  0.00000  0.15952
      17     H     0.42249  0.42249  0.00000  0.15503
      18     C     3.24003  3.24003  0.00000 -0.48005
      19     H     0.41973  0.41973  0.00000  0.16054
      20     H     0.42097  0.42097  0.00000  0.15807
      21     H     0.42052  0.42052  0.00000  0.15896
      22     H     0.41712  0.41712  0.00000  0.16577
      23     H     0.42131  0.42131  0.00000  0.15738

   Total alpha = 36.00000, Total beta = 36.00000, Total charge = -0.00000
