  ==> Input File <==

--------------------------------------------------------------------------
set {
	reference rhf
	basis 6-31G*
}

set_num_threads( 4 )
memory 2 gb

molecule MOL {
0 1

H	 -2.365627	 -1.312883	 -0.379134
C	 -1.358347	 -1.274295	 0.019669
C	 -0.681945	 0.000119	 -0.470601
H	 -0.826096	 -2.155117	 -0.321105
H	 -1.409554	 -1.292283	 1.100109
C	 -1.357790	 1.274691	 0.020220
N	 0.739525	 -0.000142	 0.006128
H	 -0.594190	 0.000341	 -1.545128
H	 -2.364980	 1.313977	 -0.378631
H	 -0.825080	 2.155361	 -0.320114
H	 -1.409060	 1.292170	 1.100671
O	 1.592147	 -0.183667	 -0.806235
O	 0.926961	 0.183891	 1.170774

	symmetry c1
}
set optking {
	frozen_dihedral = ("
		12 7 3 8
	")
}

ee = optimize('scf')
oeprop('DIPOLE', 'QUADRUPOLE', 'MULLIKEN_CHARGES')
f=open( 'psi4out.xyz', 'w' )
f.write( "13  " )
f.write( str(ee) + "\n" )
f.write( MOL.save_string_xyz() )
f.close()
--------------------------------------------------------------------------

    Molecular point group: c1
  Charge       = 0
  Multiplicity = 1
  Basis Set: 6-31G*
  Basis Set:
  @DF-RHF Final Energy:  -321.73908624009891
    Total Energy =                       -321.7390862400989135
    Molecular point group: c1
  Basis Set: 6-31G*
  Basis Set:
  Basis Set: 6-31G*
  Basis Set:
  @DF-RHF Final Energy:  -321.73329396509894
    Total Energy =                       -321.7332939650987669
  Basis Set: 6-31G*
  Basis Set:
  Basis Set: 6-31G*
  Basis Set:
  @DF-RHF Final Energy:  -321.73899519330308
    Total Energy =                       -321.7389951933031398
  Basis Set: 6-31G*
  Basis Set:
  Basis Set: 6-31G*
  Basis Set:
  @DF-RHF Final Energy:  -321.73917134246943
    Total Energy =                       -321.7391713424694331
  Basis Set: 6-31G*
  Basis Set:
  Basis Set: 6-31G*
  Basis Set:
  @DF-RHF Final Energy:  -321.73917326750114
    Total Energy =                       -321.7391732675013145
  Basis Set: 6-31G*
  Basis Set:
  Charge       = 0
  Multiplicity = 1
  Basis Set: 6-31G*
  Basis Set:

    Orbital Energies (a.u.)
    -----------------------

    Doubly Occupied:

       1A    -20.601141     2A    -20.597996     3A    -15.842821
       4A    -11.305837     5A    -11.247480     6A    -11.244665
       7A     -1.628571     8A     -1.414043     9A     -1.143969
      10A     -0.974630    11A     -0.957887    12A     -0.814037
      13A     -0.749816    14A     -0.728081    15A     -0.722070
      16A     -0.650329    17A     -0.594792    18A     -0.588676
      19A     -0.571527    20A     -0.530115    21A     -0.523082
      22A     -0.482479    23A     -0.468775    24A     -0.447169

  @DF-RHF Final Energy:  -321.73917365948739

   => Energetics <=

    Nuclear Repulsion Energy =            256.7902019101786664
    One-Electron Energy =                -947.3987701286722540
    Two-Electron Energy =                 368.8693945590063095
    DFT Exchange-Correlation Energy =       0.0000000000000000
    Empirical Dispersion Energy =           0.0000000000000000
    PCM Polarization Energy =               0.0000000000000000
    EFP Energy =                            0.0000000000000000
    Total Energy =                       -321.7391736594872782
    Molecular point group: c1
  Basis Set: 6-31G*
  Basis Set:

  -Total Gradient:
     Atom            X                  Y                   Z
    ------   -----------------  -----------------  -----------------
       1       -0.000004093600    -0.000008933979     0.000003879744
       2        0.000004877215     0.000019301926    -0.000003757115
       3       -0.000021720299    -0.000486216761     0.000029482032
       4       -0.000003140486    -0.000005201314     0.000003266038
       5       -0.000005555831    -0.000007851757     0.000003166214
       6        0.000000375968     0.000021796938     0.000000160397
       7        0.000057770996     0.000451169216    -0.000082801938
       8        0.000011957350     0.000314187094     0.000002972846
       9        0.000003016190    -0.000004771322    -0.000002766317
      10        0.000002734878     0.000000193704    -0.000000590715
      11        0.000004897337    -0.000010594880    -0.000004056457
      12       -0.000030128545    -0.000288730557     0.000039386478
      13       -0.000020991180     0.000005651692     0.000011658795

  **** Optimization is complete! (in 6 steps) ****
    Final optimized geometry and variables:
    Molecular point group: c1

    Geometry (in Angstrom), charge = 0, multiplicity = 1:

    H           -2.361852319678    -1.306580588216    -0.368730725670
    C           -1.351656602024    -1.264355898520     0.021794374418
    C           -0.681851775523     0.014540654995    -0.470160607188
    H           -0.817192883273    -2.141472786352    -0.324452967363
    H           -1.395181215764    -1.282964232700     1.103198212961
    C           -1.364487296443     1.284984557727     0.017346460455
    N            0.739811807530     0.000736096208     0.006023854838
    H           -0.594013644006     0.011147703796    -1.544727590130
    H           -2.368099793097     1.320469568124    -0.391272220613
    H           -0.832876614649     2.168691791441    -0.316640964126
    H           -1.425658123468     1.302714155931     1.096810992558
    O            1.588389673290    -0.193883842450    -0.808216359715
    O            0.930400164445     0.162317031976     1.173303402211

  Mulliken Charges: (a.u.)
   Center  Symbol    Alpha    Beta     Spin     Total
       1     H     0.40705  0.40705  0.00000  0.18589
       2     C     3.25044  3.25044  0.00000 -0.50088
       3     C     3.02374  3.02374  0.00000 -0.04749
       4     H     0.40123  0.40123  0.00000  0.19755
       5     H     0.39777  0.39777  0.00000  0.20446
       6     C     3.24900  3.24900  0.00000 -0.49800
       7     N     3.21582  3.21582  0.00000  0.56836
       8     H     0.38540  0.38540  0.00000  0.22921
       9     H     0.40929  0.40929  0.00000  0.18141
      10     H     0.40392  0.40392  0.00000  0.19216
      11     H     0.39628  0.39628  0.00000  0.20745
      12     O     4.22840  4.22840  0.00000 -0.45681
      13     O     4.23166  4.23166  0.00000 -0.46331

   Total alpha = 24.00000, Total beta = 24.00000, Total charge =  0.00000
