  ==> Input File <==

--------------------------------------------------------------------------
set {
	reference rhf
	basis 6-31G*
}

set_num_threads( 1 )
memory 2 gb

molecule MOL {
0 1

H	 -2.976667	 0.567051	 3.362953
O	 -2.267505	 0.006393	 3.082496
C	 -1.666525	 0.544379	 1.932720
C	 -0.536058	 -0.378206	 1.512447
H	 -2.393642	 0.634354	 1.126796
H	 -1.278246	 1.541834	 2.134372
C	 0.198102	 0.111031	 0.262842
H	 -0.948967	 -1.368493	 1.340502
H	 0.157769	 -0.469352	 2.343575
C	 1.331804	 -0.827780	 -0.158768
H	 -0.514735	 0.219445	 -0.550966
H	 0.607256	 1.103644	 0.446777
C	 2.723619	 -0.410569	 0.329459
H	 1.342964	 -0.912588	 -1.244120
H	 1.116806	 -1.824343	 0.220779
C	 3.243875	 0.895854	 -0.272975
H	 3.424222	 -1.207124	 0.091250
H	 2.714788	 -0.329854	 1.414619
H	 3.251977	 0.848779	 -1.358681
H	 2.637085	 1.747371	 0.016682
H	 4.259473	 1.094070	 0.055697

	symmetry c1
}
set optking {
	frozen_dihedral = ("
		2 3 4 8,
		8 4 7 10,
		16 13 10 14,
		1 2 3 5
	")
}

ee = energy('scf')
oeprop('DIPOLE', 'QUADRUPOLE', 'MULLIKEN_CHARGES')
f=open( 'psi4out.xyz', 'w' )
f.write( "21  " )
f.write( str(ee) + "\n" )
f.write( MOL.save_string_xyz() )
f.close()
--------------------------------------------------------------------------

    Molecular point group: c1

    Geometry (in Angstrom), charge = 0, multiplicity = 1:

       Center              X                  Y                   Z               Mass
    ------------   -----------------  -----------------  -----------------  -----------------
           H         -3.356263956065     0.557487970075     2.363518230845     1.007825032070
           O         -2.647101956065    -0.003170029925     2.083061230845    15.994914619560
           C         -2.046121956065     0.534815970075     0.933285230845    12.000000000000
           C         -0.915654956065    -0.387769029925     0.513012230845    12.000000000000
           H         -2.773238956065     0.624790970075     0.127361230845     1.007825032070
           H         -1.657842956065     1.532270970075     1.134937230845     1.007825032070
           C         -0.181494956065     0.101467970075    -0.736592769155    12.000000000000
           H         -1.328563956065    -1.378056029925     0.341067230845     1.007825032070
           H         -0.221827956065    -0.478915029925     1.344140230845     1.007825032070
           C          0.952207043935    -0.837343029925    -1.158202769155    12.000000000000
           H         -0.894331956065     0.209881970075    -1.550400769155     1.007825032070
           H          0.227659043935     1.094080970075    -0.552657769155     1.007825032070
           C          2.344022043935    -0.420132029925    -0.669975769155    12.000000000000
           H          0.963367043935    -0.922151029925    -2.243554769155     1.007825032070
           H          0.737209043935    -1.833906029925    -0.778655769155     1.007825032070
           C          2.864278043935     0.886290970075    -1.272409769155    12.000000000000
           H          3.044625043935    -1.216687029925    -0.908184769155     1.007825032070
           H          2.335191043935    -0.339417029925     0.415184230845     1.007825032070
           H          2.872380043935     0.839215970075    -2.358115769155     1.007825032070
           H          2.257488043935     1.737807970075    -0.982752769155     1.007825032070
           H          3.879876043935     1.084506970075    -0.943737769155     1.007825032070

  Charge       = 0
  Multiplicity = 1
  Basis Set: 6-31G*
  Basis Set:

    Orbital Energies (a.u.)
    -----------------------

    Doubly Occupied:

       1A    -20.551675     2A    -11.266646     3A    -11.214980
       4A    -11.214325     5A    -11.212378     6A    -11.210517
       7A    -11.208221     8A     -1.358494     9A     -1.086918
      10A     -1.031624    11A     -0.954563    12A     -0.875218
      13A     -0.813679    14A     -0.772593    15A     -0.691373
      16A     -0.659204    17A     -0.626741    18A     -0.611482
      19A     -0.574249    20A     -0.569973    21A     -0.546262
      22A     -0.525423    23A     -0.496340    24A     -0.493175
      25A     -0.482892    26A     -0.456509    27A     -0.449990
      28A     -0.445086    29A     -0.433820

  @DF-RHF Final Energy:  -310.20831306148011

   => Energetics <=

    Nuclear Repulsion Energy =            315.3596062184868742
    One-Electron Energy =               -1045.4672649901222030
    Two-Electron Energy =                 419.8993457101551030
    DFT Exchange-Correlation Energy =       0.0000000000000000
    Empirical Dispersion Energy =           0.0000000000000000
    PCM Polarization Energy =               0.0000000000000000
    EFP Energy =                            0.0000000000000000
    Total Energy =                       -310.2083130614802258

  Mulliken Charges: (a.u.)
   Center  Symbol    Alpha    Beta     Spin     Total
       1     H     0.28123  0.28123  0.00000  0.43753
       2     O     4.37179  4.37179  0.00000 -0.74359
       3     C     2.99007  2.99007  0.00000  0.01987
       4     C     3.16082  3.16082  0.00000 -0.32163
       5     H     0.43287  0.43287  0.00000  0.13427
       6     H     0.43305  0.43305  0.00000  0.13389
       7     C     3.16364  3.16364  0.00000 -0.32728
       8     H     0.41446  0.41446  0.00000  0.17108
       9     H     0.41463  0.41463  0.00000  0.17074
      10     C     3.15533  3.15533  0.00000 -0.31065
      11     H     0.42084  0.42084  0.00000  0.15833
      12     H     0.42117  0.42117  0.00000  0.15765
      13     C     3.15418  3.15418  0.00000 -0.30836
      14     H     0.42173  0.42173  0.00000  0.15654
      15     H     0.41877  0.41877  0.00000  0.16247
      16     C     3.24065  3.24065  0.00000 -0.48131
      17     H     0.42059  0.42059  0.00000  0.15882
      18     H     0.42232  0.42232  0.00000  0.15536
      19     H     0.42208  0.42208  0.00000  0.15583
      20     H     0.42093  0.42093  0.00000  0.15813
      21     H     0.41885  0.41885  0.00000  0.16230

   Total alpha = 29.00000, Total beta = 29.00000, Total charge =  0.00000
