  ==> Input File <==

--------------------------------------------------------------------------
set {
	reference rhf
	basis 6-31G*
}

set_num_threads( 1 )
memory 2 gb

molecule MOL {
0 1

H	 -2.854801	 -0.172186	 -1.542455
O	 -3.452007	 0.283848	 -0.965577
C	 -3.181085	 -0.079926	 0.364119
C	 -1.765924	 0.277073	 0.805136
H	 -3.327791	 -1.152017	 0.410903
H	 -3.905698	 0.375695	 1.036898
C	 -0.677594	 -0.417312	 -0.014550
H	 -1.637766	 1.358238	 0.744969
H	 -1.659588	 0.017670	 1.857098
C	 0.738335	 -0.034840	 0.421385
H	 -0.814977	 -0.178223	 -1.064632
H	 -0.802730	 -1.495410	 0.071702
C	 1.822265	 -0.738362	 -0.399735
H	 0.853533	 1.043532	 0.342250
H	 0.871597	 -0.279636	 1.474438
C	 3.258060	 -0.455774	 0.057203
H	 1.718003	 -0.459167	 -1.447053
H	 1.651028	 -1.811884	 -0.354513
C	 3.709143	 0.994797	 -0.123830
H	 3.930637	 -1.101717	 -0.501982
H	 3.365259	 -0.739518	 1.102287
H	 3.601178	 1.310569	 -1.158127
H	 4.753787	 1.110486	 0.148516
H	 3.135362	 1.678896	 0.492569

	symmetry c1
}
set optking {
	frozen_dihedral = ("
		20 16 13 17,
		17 13 10 7,
		13 10 7 11,
		11 7 4 3,
		7 4 3 2
	")
}

ee = energy('scf')
oeprop('DIPOLE', 'QUADRUPOLE', 'MULLIKEN_CHARGES')
f=open( 'psi4out.xyz', 'w' )
f.write( "24  " )
f.write( str(ee) + "\n" )
f.write( MOL.save_string_xyz() )
f.close()
--------------------------------------------------------------------------

    Molecular point group: c1

    Geometry (in Angstrom), charge = 0, multiplicity = 1:

       Center              X                  Y                   Z               Mass
    ------------   -----------------  -----------------  -----------------  -----------------
           H         -2.859712628241    -0.160038696342    -1.538131055529     1.007825032070
           O         -3.456918628241     0.295995303658    -0.961253055529    15.994914619560
           C         -3.185996628241    -0.067778696342     0.368442944471    12.000000000000
           C         -1.770835628241     0.289220303658     0.809459944471    12.000000000000
           H         -3.332702628241    -1.139869696342     0.415226944471     1.007825032070
           H         -3.910609628241     0.387842303658     1.041221944471     1.007825032070
           C         -0.682505628241    -0.405164696342    -0.010226055529    12.000000000000
           H         -1.642677628241     1.370385303658     0.749292944471     1.007825032070
           H         -1.664499628241     0.029817303658     1.861421944471     1.007825032070
           C          0.733423371759    -0.022692696342     0.425708944471    12.000000000000
           H         -0.819888628241    -0.166075696342    -1.060308055529     1.007825032070
           H         -0.807641628241    -1.483262696342     0.076025944471     1.007825032070
           C          1.817353371759    -0.726214696342    -0.395411055529    12.000000000000
           H          0.848621371759     1.055679303658     0.346573944471     1.007825032070
           H          0.866685371759    -0.267488696342     1.478761944471     1.007825032070
           C          3.253148371759    -0.443626696342     0.061526944471    12.000000000000
           H          1.713091371759    -0.447019696342    -1.442729055529     1.007825032070
           H          1.646116371759    -1.799736696342    -0.350189055529     1.007825032070
           C          3.704231371759     1.006944303658    -0.119506055529    12.000000000000
           H          3.925725371759    -1.089569696342    -0.497658055529     1.007825032070
           H          3.360347371759    -0.727370696342     1.106610944471     1.007825032070
           H          3.596266371759     1.322716303658    -1.153803055529     1.007825032070
           H          4.748875371759     1.122633303658     0.152839944471     1.007825032070
           H          3.130450371759     1.691043303658     0.496892944471     1.007825032070

  Charge       = 0
  Multiplicity = 1
  Basis Set: 6-31G*
  Basis Set:

    Orbital Energies (a.u.)
    -----------------------

    Doubly Occupied:

       1A    -20.549975     2A    -11.267306     3A    -11.222877
       4A    -11.218692     5A    -11.217762     6A    -11.217435
       7A    -11.216744     8A    -11.209940     9A     -1.358170
      10A     -1.094224    11A     -1.051724    12A     -0.988410
      13A     -0.920057    14A     -0.854460    15A     -0.799394
      16A     -0.781719    17A     -0.687722    18A     -0.655028
      19A     -0.628357    20A     -0.614364    21A     -0.605208
      22A     -0.589059    23A     -0.563252    24A     -0.537698
      25A     -0.525533    26A     -0.513556    27A     -0.494260
      28A     -0.481893    29A     -0.477670    30A     -0.463750
      31A     -0.458493    32A     -0.442621    33A     -0.423850

  @DF-RHF Final Energy:  -349.24489595692734

   => Energetics <=

    Nuclear Repulsion Energy =            385.1417689863316696
    One-Electron Energy =               -1236.5107708825578356
    Two-Electron Energy =                 502.1241059392979196
    DFT Exchange-Correlation Energy =       0.0000000000000000
    Empirical Dispersion Energy =           0.0000000000000000
    PCM Polarization Energy =               0.0000000000000000
    EFP Energy =                            0.0000000000000000
    Total Energy =                       -349.2448959569281897

  Mulliken Charges: (a.u.)
   Center  Symbol    Alpha    Beta     Spin     Total
       1     H     0.27783  0.27783  0.00000  0.44433
       2     O     4.37365  4.37365  0.00000 -0.74730
       3     C     2.99495  2.99495  0.00000  0.01010
       4     C     3.16388  3.16388  0.00000 -0.32776
       5     H     0.43187  0.43187  0.00000  0.13626
       6     H     0.41405  0.41405  0.00000  0.17191
       7     C     3.16213  3.16213  0.00000 -0.32426
       8     H     0.41577  0.41577  0.00000  0.16845
       9     H     0.42298  0.42298  0.00000  0.15404
      10     C     3.15248  3.15248  0.00000 -0.30497
      11     H     0.42829  0.42829  0.00000  0.14343
      12     H     0.42260  0.42260  0.00000  0.15480
      13     C     3.15290  3.15290  0.00000 -0.30580
      14     H     0.41896  0.41896  0.00000  0.16207
      15     H     0.42272  0.42272  0.00000  0.15456
      16     C     3.15264  3.15264  0.00000 -0.30529
      17     H     0.42409  0.42409  0.00000  0.15182
      18     H     0.42249  0.42249  0.00000  0.15503
      19     C     3.24140  3.24140  0.00000 -0.48280
      20     H     0.42058  0.42058  0.00000  0.15883
      21     H     0.42314  0.42314  0.00000  0.15371
      22     H     0.42193  0.42193  0.00000  0.15613
      23     H     0.41880  0.41880  0.00000  0.16239
      24     H     0.41985  0.41985  0.00000  0.16030

   Total alpha = 33.00000, Total beta = 33.00000, Total charge =  0.00000
