  ==> Input File <==

--------------------------------------------------------------------------
set {
	reference rhf
	basis 6-31G*
}

set_num_threads( 4 )
memory 2 gb

molecule MOL {
0 1

H	 1.256382	 1.796778	 -2.940040
O	 1.869911	 1.708877	 -2.223412
C	 1.291011	 1.128167	 -1.153445
C	 2.081835	 0.936955	 -0.024739
C	 -0.031307	 0.728692	 -1.148428
H	 3.106642	 1.256016	 -0.053530
C	 1.546918	 0.347837	 1.102146
H	 -0.663394	 0.863765	 -2.003851
C	 -0.536158	 0.140425	 0.000000
H	 2.164607	 0.204045	 1.969119
C	 0.220734	 -0.062266	 1.132068
N	 -1.935604	 -0.280333	 0.000000
H	 -0.208425	 -0.520681	 1.998718
O	 -2.161694	 -1.452901	 0.000000
O	 -2.770341	 0.571417	 0.000000

	symmetry c1
}
set optking {
	frozen_dihedral = ("
		11 9 12 14
	")
}

ee = optimize('scf')
oeprop('DIPOLE', 'QUADRUPOLE', 'MULLIKEN_CHARGES')
f=open( 'psi4out.xyz', 'w' )
f.write( "15  " )
f.write( str(ee) + "\n" )
f.write( MOL.save_string_xyz() )
f.close()
--------------------------------------------------------------------------

    Molecular point group: c1
  Charge       = 0
  Multiplicity = 1
  Basis Set: 6-31G*
  Basis Set:
  @DF-RHF Final Energy:  -509.01796019062135
    Total Energy =                       -509.0179601906213520
    Molecular point group: c1
  Basis Set: 6-31G*
  Basis Set:
  Basis Set: 6-31G*
  Basis Set:
  @DF-RHF Final Energy:  -509.01235431884618
    Total Energy =                       -509.0123543188465192
  Basis Set: 6-31G*
  Basis Set:
  Basis Set: 6-31G*
  Basis Set:
  @DF-RHF Final Energy:  -509.01824070007962
    Total Energy =                       -509.0182407000797866
  Basis Set: 6-31G*
  Basis Set:
  Basis Set: 6-31G*
  Basis Set:
  @DF-RHF Final Energy:  -509.01849914028293
    Total Energy =                       -509.0184991402834385
  Basis Set: 6-31G*
  Basis Set:
  Basis Set: 6-31G*
  Basis Set:
  @DF-RHF Final Energy:  -509.01850097156421
    Total Energy =                       -509.0185009715644355
  Basis Set: 6-31G*
  Basis Set:
  Charge       = 0
  Multiplicity = 1
  Basis Set: 6-31G*
  Basis Set:

    Orbital Energies (a.u.)
    -----------------------

    Doubly Occupied:

       1A    -20.617883     2A    -20.610131     3A    -20.609516
       4A    -15.859208     5A    -11.333502     6A    -11.316498
       7A    -11.268852     8A    -11.268569     9A    -11.263467
      10A    -11.255208    11A     -1.641519    12A     -1.438943
      13A     -1.425549    14A     -1.202572    15A     -1.095747
      16A     -1.048534    17A     -0.965753    18A     -0.884069
      19A     -0.830445    20A     -0.789417    21A     -0.762924
      22A     -0.734608    23A     -0.720306    24A     -0.710845
      25A     -0.668927    26A     -0.635592    27A     -0.618035
      28A     -0.592922    29A     -0.563492    30A     -0.548798
      31A     -0.531740    32A     -0.490766    33A     -0.486257
      34A     -0.455111    35A     -0.373952    36A     -0.343272

  @DF-RHF Final Energy:  -509.01850130839603

   => Energetics <=

    Nuclear Repulsion Energy =            502.7273296689891140
    One-Electron Energy =               -1691.5658010619363267
    Two-Electron Energy =                 679.8199700845511870
    DFT Exchange-Correlation Energy =       0.0000000000000000
    Empirical Dispersion Energy =           0.0000000000000000
    PCM Polarization Energy =               0.0000000000000000
    EFP Energy =                            0.0000000000000000
    Total Energy =                       -509.0185013083960257
    Molecular point group: c1
  Basis Set: 6-31G*
  Basis Set:

  -Total Gradient:
     Atom            X                  Y                   Z
    ------   -----------------  -----------------  -----------------
       1        0.000000457117    -0.000003213972    -0.000003719383
       2       -0.000003192647     0.000006640495    -0.000002255642
       3        0.000003295508    -0.000014173112     0.000037042255
       4        0.000008636307    -0.000019268726    -0.000020995624
       5       -0.000000481245    -0.000080524754     0.000020456734
       6        0.000001604693    -0.000000075755     0.000001332953
       7       -0.000021844153     0.000034321500     0.000008109959
       8       -0.000011204580     0.000001305494    -0.000016982102
       9        0.001689608442    -0.006241238540    -0.004191735752
      10       -0.000000029769    -0.000003251163    -0.000003385862
      11       -0.001173113249     0.004329228007     0.001458302616
      12       -0.000538671534     0.002203932618     0.008166120714
      13       -0.000007728780    -0.000010887650     0.000011966707
      14        0.000019673704    -0.000206159536    -0.005460540369
      15        0.000032990188     0.000003365093    -0.000003717200

  **** Optimization is complete! (in 6 steps) ****
    Final optimized geometry and variables:
    Molecular point group: c1

    Geometry (in Angstrom), charge = 0, multiplicity = 1:

    H            1.355036877120     1.429397008941    -2.663674182263
    O            1.970372218110     1.335547897059    -1.949442197116
    C            1.397059294661     0.752013237397    -0.880372742466
    C            2.188792687763     0.567729339692     0.248925953085
    C            0.072475229862     0.351853985922    -0.872237162762
    H            3.210539215249     0.895957470616     0.220941873083
    C            1.655755546481    -0.020414523148     1.376506891169
    H           -0.568443001475     0.510030675938    -1.720327616682
    C           -0.412905830929    -0.260720277870     0.266669840178
    H            2.271159155351    -0.149631719864     2.247529185622
    C            0.333938113358    -0.449316574981     1.403094690703
    N           -1.821994382317    -0.648248686024     0.279007982786
    H           -0.090057029672    -0.919918725065     2.269033337927
    O           -2.065541323556    -1.814419904313     0.313220282820
    O           -2.626598372732     0.229047582486     0.212376374741

  Mulliken Charges: (a.u.)
   Center  Symbol    Alpha    Beta     Spin     Total
       1     H     0.26736  0.26736  0.00000  0.46527
       2     O     4.37417  4.37417  0.00000 -0.74835
       3     C     2.79131  2.79131  0.00000  0.41738
       4     C     3.11538  3.11538  0.00000 -0.23075
       5     C     3.13418  3.13418  0.00000 -0.26837
       6     H     0.38214  0.38214  0.00000  0.23571
       7     C     3.09581  3.09581  0.00000 -0.19161
       8     H     0.38003  0.38003  0.00000  0.23994
       9     C     2.88922  2.88922  0.00000  0.22156
      10     H     0.38669  0.38669  0.00000  0.22662
      11     C     3.10158  3.10158  0.00000 -0.20315
      12     N     3.25807  3.25807  0.00000  0.48386
      13     H     0.37662  0.37662  0.00000  0.24676
      14     O     4.22237  4.22237  0.00000 -0.44474
      15     O     4.22507  4.22507  0.00000 -0.45014

   Total alpha = 36.00000, Total beta = 36.00000, Total charge = -0.00000
