  ==> Input File <==

--------------------------------------------------------------------------
set {
	reference rhf
	basis cc-pvtz
}

set_num_threads( 4 )
memory 2 gb

molecule MOL {
0 1

H	 -0.701549	 1.469896	 -0.686169
O	 0.057669	 1.301365	 -0.158528
C	 0.004145	 -0.005141	 0.363049
C	 1.199168	 -0.827145	 -0.096690
C	 -1.316386	 -0.602081	 -0.083515
H	 0.012026	 0.043363	 1.450619
H	 1.216685	 -0.896776	 -1.178167
H	 2.129940	 -0.372354	 0.228035
H	 1.160783	 -1.829622	 0.314294
H	 -1.357882	 -0.655920	 -1.165207
H	 -2.140147	 0.011735	 0.257253
H	 -1.440790	 -1.601175	 0.317669

	symmetry c1
}
set optking {
	frozen_dihedral = ("
		1 2 3 4
	")
}

ee = optimize('scf')
oeprop('DIPOLE', 'QUADRUPOLE', 'MULLIKEN_CHARGES')
f=open( 'psi4out.xyz', 'w' )
f.write( "12  " )
f.write( str(ee) + "\n" )
f.write( MOL.save_string_xyz() )
f.close()
--------------------------------------------------------------------------

    Molecular point group: c1
  Charge       = 0
  Multiplicity = 1
  Basis Set: CC-PVTZ
  Basis Set:
  @DF-RHF Final Energy:  -193.19216452798094
    Total Energy =                       -193.1921645279809354
    Molecular point group: c1
  Basis Set: CC-PVTZ
  Basis Set:
  Basis Set: CC-PVTZ
  Basis Set:
  @DF-RHF Final Energy:  -193.19349354850524
    Total Energy =                       -193.1934935485051028
  Basis Set: CC-PVTZ
  Basis Set:
  Basis Set: CC-PVTZ
  Basis Set:
  @DF-RHF Final Energy:  -193.19387281039948
    Total Energy =                       -193.1938728103995402
  Basis Set: CC-PVTZ
  Basis Set:
  Basis Set: CC-PVTZ
  Basis Set:
  @DF-RHF Final Energy:  -193.19387657468423
    Total Energy =                       -193.1938765746842535
  Basis Set: CC-PVTZ
  Basis Set:
  Charge       = 0
  Multiplicity = 1
  Basis Set: CC-PVTZ
  Basis Set:

    Orbital Energies (a.u.)
    -----------------------

    Doubly Occupied:

       1A    -20.542075     2A    -11.274066     3A    -11.218020
       4A    -11.204955     5A     -1.362728     6A     -1.044190
       7A     -0.943702     8A     -0.814436     9A     -0.670766
      10A     -0.650034    11A     -0.608349    12A     -0.556666
      13A     -0.545893    14A     -0.518461    15A     -0.515737
      16A     -0.468115    17A     -0.431105

  @DF-RHF Final Energy:  -193.19387676009663

   => Energetics <=

    Nuclear Repulsion Energy =            135.6507311275965151
    One-Electron Energy =                -530.9506216482184300
    Two-Electron Energy =                 202.1060137605253431
    DFT Exchange-Correlation Energy =       0.0000000000000000
    Empirical Dispersion Energy =           0.0000000000000000
    PCM Polarization Energy =               0.0000000000000000
    EFP Energy =                            0.0000000000000000
    Total Energy =                       -193.1938767600966003
    Molecular point group: c1
  Basis Set: CC-PVTZ
  Basis Set:

  -Total Gradient:
     Atom            X                  Y                   Z
    ------   -----------------  -----------------  -----------------
       1       -0.000006881879     0.000003045712     0.000014365310
       2        0.000001305119    -0.000010070373    -0.000002378004
       3        0.000008000311     0.000045130782    -0.000046639898
       4       -0.000002770097    -0.000014705115     0.000025801236
       5       -0.000019695173    -0.000000478071    -0.000004004433
       6       -0.000001913074    -0.000011655449    -0.000001159232
       7       -0.000007708773     0.000003931356     0.000004673114
       8        0.000004431317    -0.000001197278    -0.000001978246
       9        0.000011252063    -0.000007133029    -0.000002016144
      10        0.000006165038     0.000009100704     0.000013989720
      11        0.000007960669    -0.000003673696    -0.000009327238
      12       -0.000000145523    -0.000012295545     0.000008673816

  **** Optimization is complete! (in 5 steps) ****
    Final optimized geometry and variables:
    Molecular point group: c1

    Geometry (in Angstrom), charge = 0, multiplicity = 1:

    H           -0.582883274977     1.543799691947    -0.675777073631
    O            0.136946169854     1.318260810446    -0.117757769684
    C            0.005315001902    -0.002498615240     0.360251949470
    C            1.206740390751    -0.814464815787    -0.093423800617
    C           -1.312690298127    -0.622211807020    -0.075366549825
    H            0.015822919646     0.052837639865     1.444630394949
    H            1.216438239768    -0.910743501829    -1.173727823051
    H            2.122555732181    -0.322937117989     0.209030929003
    H            1.190162930728    -1.807830298543     0.341864117759
    H           -1.364881317230    -0.692462607574    -1.158051734141
    H           -2.150741705151    -0.027487346436     0.271899062061
    H           -1.421666040852    -1.620919154288     0.329332927518

  Mulliken Charges: (a.u.)
   Center  Symbol    Alpha    Beta     Spin     Total
       1     H     0.39183  0.39183  0.00000  0.21634
       2     O     4.21110  4.21110  0.00000 -0.42220
       3     C     2.92031  2.92031  0.00000  0.15937
       4     C     3.13677  3.13677  0.00000 -0.27355
       5     C     3.16002  3.16002  0.00000 -0.32004
       6     H     0.46068  0.46068  0.00000  0.07864
       7     H     0.45927  0.45927  0.00000  0.08146
       8     H     0.44660  0.44660  0.00000  0.10679
       9     H     0.46007  0.46007  0.00000  0.07986
      10     H     0.45480  0.45480  0.00000  0.09041
      11     H     0.44758  0.44758  0.00000  0.10484
      12     H     0.45096  0.45096  0.00000  0.09807

   Total alpha = 17.00000, Total beta = 17.00000, Total charge = -0.00000
