                              Psi4 1.0.54 Driver

  ==> Input File <==

--------------------------------------------------------------------------
set {
	reference rhf
	basis cc-pvtz
}

set_num_threads( 4 )
memory 2 gb

molecule MOL {
0 1

H	 -4.178660	 0.090770	 0.449252
O	 -3.515113	 -0.019339	 -0.206321
C	 -2.302264	 0.528872	 0.237390
C	 -1.175688	 -0.398187	 -0.171891
H	 -2.148018	 1.514076	 -0.197759
H	 -2.310727	 0.646384	 1.319032
C	 0.196029	 0.106276	 0.266738
H	 -1.201873	 -0.515469	 -1.250677
H	 -1.365975	 -1.378728	 0.252664
C	 1.330220	 -0.826136	 -0.155230
H	 0.359542	 1.097229	 -0.145561
H	 0.212134	 0.218135	 1.348778
C	 2.719700	 -0.407669	 0.328325
H	 1.339388	 -0.911200	 -1.239363
H	 1.119001	 -1.821953	 0.224128
C	 3.241564	 0.893452	 -0.276737
H	 3.418299	 -1.204729	 0.093035
H	 2.711776	 -0.323368	 1.411960
H	 3.254204	 0.841071	 -1.360784
H	 2.634460	 1.745075	 0.005842
H	 4.254264	 1.092401	 0.054971

	symmetry c1
}
set optking {
	frozen_dihedral = ("
		1 2 3 5
	")
}

ee,wfn = optimize('scf', return_wfn=True)
oeprop( wfn, 'DIPOLE', 'QUADRUPOLE', 'MULLIKEN_CHARGES')
f=open( 'psi4out.xyz', 'w' )
f.write( "21  " )
f.write( str(ee) + "\n" )
f.write( MOL.save_string_xyz() )
f.close()
--------------------------------------------------------------------------

    Molecular point group: c1
  Charge       = 0
  Multiplicity = 1
  Basis Set: CC-PVTZ
  Basis Set:
  @DF-RHF Final Energy:  -310.33159677039970
    Total Energy =                       -310.3315967703994716
    Molecular point group: c1
  Basis Set: CC-PVTZ
  Basis Set:
  Basis Set: CC-PVTZ
  Basis Set:
  @DF-RHF Final Energy:  -310.33170155694415
    Total Energy =                       -310.3317015569438126
  Basis Set: CC-PVTZ
  Basis Set:
  Basis Set: CC-PVTZ
  Basis Set:
  @DF-RHF Final Energy:  -310.33174352938624
    Total Energy =                       -310.3317435293866424
  Basis Set: CC-PVTZ
  Basis Set:
  Basis Set: CC-PVTZ
  Basis Set:
  @DF-RHF Final Energy:  -310.33174147534311
    Total Energy =                       -310.3317414753432786
  Basis Set: CC-PVTZ
  Basis Set:
  Charge       = 0
  Multiplicity = 1
  Basis Set: CC-PVTZ
  Basis Set:

    Orbital Energies (a.u.)
    -----------------------

    Doubly Occupied:

       1A    -20.544457     2A    -11.265314     3A    -11.213299
       4A    -11.213178     5A    -11.211495     6A    -11.208649
       7A    -11.206062     8A     -1.362064     9A     -1.087456
      10A     -1.034343    11A     -0.955529    12A     -0.876940
      13A     -0.808771    14A     -0.779184    15A     -0.701178
      16A     -0.656003    17A     -0.620842    18A     -0.610503
      19A     -0.588411    20A     -0.568635    21A     -0.542100
      22A     -0.523080    23A     -0.505959    24A     -0.494076
      25A     -0.475119    26A     -0.460577    27A     -0.457611
      28A     -0.455050    29A     -0.427349

  @DF-RHF Final Energy:  -310.33174434480975

   => Energetics <=

    Nuclear Repulsion Energy =            312.7489329472097097
    One-Electron Energy =               -1040.4548945491421819
    Two-Electron Energy =                 417.3742172571229503
    DFT Exchange-Correlation Energy =       0.0000000000000000
    Empirical Dispersion Energy =           0.0000000000000000
    PCM Polarization Energy =               0.0000000000000000
    EFP Energy =                            0.0000000000000000
    Total Energy =                       -310.3317443448095219
    Molecular point group: c1
  Basis Set: CC-PVTZ
  Basis Set:

  -Total Gradient:
     Atom            X                  Y                   Z
    ------   -----------------  -----------------  -----------------
       1        0.000297571506    -0.001260508058     0.000489270103
       2       -0.000270178662     0.001393014448    -0.000863624714
       3       -0.000616495238     0.000302418327     0.001304181015
       4       -0.000024340516     0.000045446851    -0.000015696162
       5        0.000591151361    -0.000475823293    -0.000933514083
       6        0.000011987310     0.000001112089     0.000007745641
       7       -0.000016104201    -0.000004432416     0.000012091412
       8       -0.000002814091    -0.000005708421    -0.000005296585
       9       -0.000007072628     0.000012902078     0.000005247232
      10        0.000007588111     0.000014052912     0.000003792488
      11       -0.000000539783    -0.000006751623     0.000003797701
      12        0.000001831034     0.000004135093    -0.000003058753
      13       -0.000000641580    -0.000016285183    -0.000005998655
      14       -0.000002706995    -0.000003194897    -0.000005599205
      15        0.000003604394    -0.000001539716     0.000003442220
      16        0.000004933494     0.000003355934    -0.000009773976
      17        0.000028164580    -0.000018475802    -0.000001338946
      18       -0.000003143897    -0.000001932313     0.000016660955
      19        0.000003708232     0.000002084396    -0.000006834366
      20       -0.000011452392     0.000016888611     0.000005309849
      21        0.000004949961    -0.000000759017    -0.000000803170

  **** Optimization is complete! (in 5 steps) ****
    Final optimized geometry and variables:
    Molecular point group: c1

    Geometry (in Angstrom), charge = 0, multiplicity = 1:

    H           -4.195757015241     0.141755820805     0.451852145569
    O           -3.525552687444     0.046142273074    -0.197052907884
    C           -2.297221570400     0.528467688317     0.287023046390
    C           -1.178786776315    -0.394929895475    -0.157861482827
    H           -2.121604413205     1.527510360570    -0.103281718904
    H           -2.311413109117     0.597617200838     1.371222028801
    C            0.201695132878     0.096821925882     0.267226846626
    H           -1.223363001532    -0.487821275567    -1.238625880147
    H           -1.364209886829    -1.385190594679     0.246390930401
    C            1.326169614111    -0.831743375610    -0.187856111677
    H            0.361770721212     1.094056206867    -0.130660105695
    H            0.235626660472     0.190631279465     1.350842070855
    C            2.724028807464    -0.427957413019     0.283911940940
    H            1.319680552710    -0.896131797294    -1.273388409548
    H            1.116244660627    -1.833836960309     0.175447680110
    C            3.242435202495     0.882636328935    -0.303344218802
    H            3.416141362210    -1.222871053799     0.023401484124
    H            2.731774829277    -0.364552876605     1.369006449527
    H            3.238938213343     0.851305073056    -1.388236681298
    H            2.643083023160     1.730932393763     0.004605182234
    H            4.260714262349     1.071073082388     0.017215919889

  Mulliken Charges: (a.u.)
   Center  Symbol    Alpha    Beta     Spin     Total
       1     H     0.39204  0.39204  0.00000  0.21591
       2     O     4.20203  4.20203  0.00000 -0.40406
       3     C     2.96698  2.96698  0.00000  0.06603
       4     C     3.08083  3.08083  0.00000 -0.16166
       5     H     0.46944  0.46944  0.00000  0.06111
       6     H     0.47479  0.47479  0.00000  0.05041
       7     C     3.10384  3.10384  0.00000 -0.20769
       8     H     0.45036  0.45036  0.00000  0.09929
       9     H     0.45391  0.45391  0.00000  0.09218
      10     C     3.09377  3.09377  0.00000 -0.18755
      11     H     0.45262  0.45262  0.00000  0.09476
      12     H     0.45628  0.45628  0.00000  0.08744
      13     C     3.08994  3.08994  0.00000 -0.17988
      14     H     0.45288  0.45288  0.00000  0.09423
      15     H     0.44911  0.44911  0.00000  0.10177
      16     C     3.15233  3.15233  0.00000 -0.30467
      17     H     0.44846  0.44846  0.00000  0.10308
      18     H     0.45520  0.45520  0.00000  0.08959
      19     H     0.45451  0.45451  0.00000  0.09099
      20     H     0.45412  0.45412  0.00000  0.09175
      21     H     0.44652  0.44652  0.00000  0.10695

   Total alpha = 29.00000, Total beta = 29.00000, Total charge =  0.00000

*** Psi4 exiting successfully. Buy a developer a beer!
