  ==> Input File <==

--------------------------------------------------------------------------
set {
	reference rhf
	basis 6-31G*
}

set_num_threads( 4 )
memory 2 gb

molecule MOL {
0 1

O	 0.607233	 0.519223	 -0.995203
C	 1.122059	 0.121804	 -0.000188
C	 0.689074	 0.456105	 1.406461
O	 2.172624	 -0.688929	 0.000216
C	 -0.517420	 1.387979	 1.464121
H	 0.486352	 -0.482317	 1.915402
H	 1.545768	 0.889209	 1.915627
C	 -0.934746	 1.710621	 2.899776
H	 -1.347578	 0.932743	 0.932987
H	 -0.286788	 2.306108	 0.932755
C	 -2.142134	 2.644819	 2.966788
H	 -1.163925	 0.787230	 3.427888
H	 -0.098545	 2.164128	 3.428142
H	 -3.005491	 2.204469	 2.476521
H	 -2.417450	 2.857279	 3.995058
H	 -1.932290	 3.591412	 2.477331
C	 3.452279	 -0.082609	 0.000533
H	 3.583069	 0.529321	 -0.880332
H	 4.163299	 -0.894027	 0.001117
H	 3.582335	 0.529955	 0.881077

	symmetry c1
}
set optking {
	frozen_dihedral = ("
		1 2 4 17
	")
}

ee = optimize('scf')
oeprop('DIPOLE', 'QUADRUPOLE', 'MULLIKEN_CHARGES')
f=open( 'psi4out.xyz', 'w' )
f.write( "20  " )
f.write( str(ee) + "\n" )
f.write( MOL.save_string_xyz() )
f.close()
--------------------------------------------------------------------------

    Molecular point group: c1
  Charge       = 0
  Multiplicity = 1
  Basis Set: 6-31G*
  Basis Set:
  @DF-RHF Final Energy:  -383.91990467837689
    Total Energy =                       -383.9199046783766107
    Molecular point group: c1
  Basis Set: 6-31G*
  Basis Set:
  Basis Set: 6-31G*
  Basis Set:
  @DF-RHF Final Energy:  -383.91828230338365
    Total Energy =                       -383.9182823033836485
  Basis Set: 6-31G*
  Basis Set:
  Basis Set: 6-31G*
  Basis Set:
  @DF-RHF Final Energy:  -383.92092602569090
    Total Energy =                       -383.9209260256907328
  Basis Set: 6-31G*
  Basis Set:
  Basis Set: 6-31G*
  Basis Set:
  @DF-RHF Final Energy:  -383.92146471880591
    Total Energy =                       -383.9214647188065328
  Basis Set: 6-31G*
  Basis Set:
  Basis Set: 6-31G*
  Basis Set:
  @DF-RHF Final Energy:  -383.92148105502832
    Total Energy =                       -383.9214810550281527
  Basis Set: 6-31G*
  Basis Set:
  Basis Set: 6-31G*
  Basis Set:
  @DF-RHF Final Energy:  -383.92148338705442
    Total Energy =                       -383.9214833870539678
  Basis Set: 6-31G*
  Basis Set:
  Charge       = 0
  Multiplicity = 1
  Basis Set: 6-31G*
  Basis Set:

    Orbital Energies (a.u.)
    -----------------------

    Doubly Occupied:

       1A    -20.585380     2A    -20.557730     3A    -11.375307
       4A    -11.291980     5A    -11.240098     6A    -11.223021
       7A    -11.222314     8A    -11.212667     9A     -1.458971
      10A     -1.367587    11A     -1.090346    12A     -1.019269
      13A     -0.971086    14A     -0.896138    15A     -0.807757
      16A     -0.765959    17A     -0.695793    18A     -0.679003
      19A     -0.673958    20A     -0.643661    21A     -0.616453
      22A     -0.590524    23A     -0.589039    24A     -0.549607
      25A     -0.537808    26A     -0.513271    27A     -0.495072
      28A     -0.489803    29A     -0.479553    30A     -0.472785
      31A     -0.451598    32A     -0.433892

  @DF-RHF Final Energy:  -383.92148353700082

   => Energetics <=

    Nuclear Repulsion Energy =            381.2537844099452400
    One-Electron Energy =               -1278.3556728829275926
    Two-Electron Energy =                 513.1804049359817554
    DFT Exchange-Correlation Energy =       0.0000000000000000
    Empirical Dispersion Energy =           0.0000000000000000
    PCM Polarization Energy =               0.0000000000000000
    EFP Energy =                            0.0000000000000000
    Total Energy =                       -383.9214835370006540
    Molecular point group: c1
  Basis Set: 6-31G*
  Basis Set:

  -Total Gradient:
     Atom            X                  Y                   Z
    ------   -----------------  -----------------  -----------------
       1       -0.001944672913    -0.002568616663     0.000202417605
       2        0.002825657031     0.003772479729     0.000947195198
       3        0.000010371903     0.000025565625    -0.000000695005
       4       -0.000998305956    -0.001313250266    -0.003779132510
       5        0.000003530612    -0.000006105363     0.000007832343
       6        0.000003151881     0.000007862005     0.000003792936
       7        0.000007491588     0.000007273938     0.000003634373
       8        0.000003724728    -0.000003002624    -0.000000873208
       9       -0.000005595463    -0.000004938253    -0.000003331896
      10        0.000000909965    -0.000000489651    -0.000001497872
      11        0.000004088223     0.000002515816    -0.000003704340
      12       -0.000002084982     0.000001008531    -0.000001238421
      13       -0.000000054593    -0.000001853864     0.000001478997
      14        0.000002024943    -0.000000314451     0.000000442847
      15        0.000001378612    -0.000000020048     0.000000720146
      16       -0.000001006263    -0.000000167109    -0.000000203511
      17        0.000084662584     0.000083601704     0.002620678672
      18        0.000006508743     0.000005587700    -0.000004702479
      19        0.000001550122    -0.000004999048     0.000002517187
      20       -0.000003330760    -0.000002137705     0.000004668946

  **** Optimization is complete! (in 7 steps) ****
    Final optimized geometry and variables:
    Molecular point group: c1

    Geometry (in Angstrom), charge = 0, multiplicity = 1:

    O            0.020106368516    -0.283123975658    -1.915363814001
    C            0.557926415188    -0.625004136498    -0.920648641178
    C            0.094632244318    -0.285161951683     0.475312466414
    O            1.629957450547    -1.452866733572    -0.942069080956
    C           -1.104878055119     0.656134118918     0.517079784431
    H           -0.127690170244    -1.229245024081     0.966927393799
    H            0.938852235269     0.132581518282     1.019124583021
    C           -1.555247050211     0.964805144032     1.945789532880
    H           -1.924085119987     0.213401361066    -0.040337455969
    H           -0.854681234631     1.579570904535     0.003020736027
    C           -2.757578839147     1.906604514487     1.994298817255
    H           -1.803737573395     0.036662681137     2.456366371801
    H           -0.729503351447     1.406071934956     2.500565323488
    H           -3.611331379733     1.477983538993     1.477717348459
    H           -3.056668024203     2.108614389159     3.017979981806
    H           -2.529501608549     2.857538014972     1.521645823714
    C            2.901289882070    -0.846136535531    -1.024874590154
    H            2.984904225672    -0.255133312874    -1.928693048313
    H            3.623538870027    -1.647103723585    -1.049562407664
    H            3.094799874431    -0.219374924584    -0.160410705121

  Mulliken Charges: (a.u.)
   Center  Symbol    Alpha    Beta     Spin     Total
       1     O     4.25172  4.25172  0.00000 -0.50343
       2     C     2.61380  2.61380  0.00000  0.77241
       3     C     3.21325  3.21325  0.00000 -0.42650
       4     O     4.31587  4.31587  0.00000 -0.63174
       5     C     3.15152  3.15152  0.00000 -0.30303
       6     H     0.39759  0.39759  0.00000  0.20481
       7     H     0.40807  0.40807  0.00000  0.18386
       8     C     3.15418  3.15418  0.00000 -0.30836
       9     H     0.40933  0.40933  0.00000  0.18133
      10     H     0.41387  0.41387  0.00000  0.17226
      11     C     3.23943  3.23943  0.00000 -0.47886
      12     H     0.42215  0.42215  0.00000  0.15569
      13     H     0.42380  0.42380  0.00000  0.15240
      14     H     0.41922  0.41922  0.00000  0.16155
      15     H     0.41840  0.41840  0.00000  0.16320
      16     H     0.42012  0.42012  0.00000  0.15977
      17     C     3.09293  3.09293  0.00000 -0.18585
      18     H     0.40930  0.40930  0.00000  0.18139
      19     H     0.40246  0.40246  0.00000  0.19508
      20     H     0.42300  0.42300  0.00000  0.15401

   Total alpha = 32.00000, Total beta = 32.00000, Total charge = -0.00000
