  ==> Input File <==

--------------------------------------------------------------------------
set {
	reference rhf
	basis 6-31G*
}

set_num_threads( 4 )
memory 2 gb

molecule MOL {
0 1

H	 -2.172150	 0.880146	 0.502514
C	 -2.018062	 -0.000025	 -0.114509
O	 -0.774054	 0.001095	 -0.743181
H	 -2.760490	 0.003458	 -0.901350
H	 -2.173624	 -0.884374	 0.496163
C	 -0.583593	 -0.760176	 -1.922470
C	 0.873931	 -0.494220	 -2.292472
C	 -0.790358	 -2.254459	 -1.654974
C	 -1.504755	 -0.276973	 -3.047233
H	 1.527181	 -0.810635	 -1.487130
H	 1.030128	 0.566141	 -2.455603
H	 1.151945	 -1.028725	 -3.195065
H	 -0.187440	 -2.571642	 -0.810631
H	 -0.495609	 -2.836027	 -2.522443
H	 -1.827048	 -2.492548	 -1.442506
H	 -1.403431	 0.794859	 -3.181252
H	 -1.244487	 -0.763748	 -3.981494
H	 -2.547348	 -0.498646	 -2.846008

	symmetry c1
}
set optking {
	frozen_dihedral = ("
		6 3 2 5
	")
}

ee = optimize('scf')
oeprop('DIPOLE', 'QUADRUPOLE', 'MULLIKEN_CHARGES')
f=open( 'psi4out.xyz', 'w' )
f.write( "18  " )
f.write( str(ee) + "\n" )
f.write( MOL.save_string_xyz() )
f.close()
--------------------------------------------------------------------------

    Molecular point group: c1
  Charge       = 0
  Multiplicity = 1
  Basis Set: 6-31G*
  Basis Set:
  @DF-RHF Final Energy:  -271.17189609680503
    Total Energy =                       -271.1718960968050851
    Molecular point group: c1
  Basis Set: 6-31G*
  Basis Set:
  Basis Set: 6-31G*
  Basis Set:
  @DF-RHF Final Energy:  -271.17420662863606
    Total Energy =                       -271.1742066286361705
  Basis Set: 6-31G*
  Basis Set:
  Basis Set: 6-31G*
  Basis Set:
  @DF-RHF Final Energy:  -271.17513300491441
    Total Energy =                       -271.1751330049145849
  Basis Set: 6-31G*
  Basis Set:
  Basis Set: 6-31G*
  Basis Set:
  @DF-RHF Final Energy:  -271.17511417052668
    Total Energy =                       -271.1751141705267401
  Basis Set: 6-31G*
  Basis Set:
  @DF-RHF Final Energy:  -271.17515693390953
    Total Energy =                       -271.1751569339097614
  Basis Set: 6-31G*
  Basis Set:
  @DF-RHF Final Energy:  -271.17518442108388
    Total Energy =                       -271.1751844210836566
  Basis Set: 6-31G*
  Basis Set:
  Basis Set: 6-31G*
  Basis Set:
  @DF-RHF Final Energy:  -271.17517509017534
    Total Energy =                       -271.1751750901753439
  Basis Set: 6-31G*
  Basis Set:
  Basis Set: 6-31G*
  Basis Set:
  @DF-RHF Final Energy:  -271.17518591224047
    Total Energy =                       -271.1751859122405790
  Basis Set: 6-31G*
  Basis Set:
  Charge       = 0
  Multiplicity = 1
  Basis Set: 6-31G*
  Basis Set:

    Orbital Energies (a.u.)
    -----------------------

    Doubly Occupied:

       1A    -20.546404     2A    -11.281351     3A    -11.260820
       4A    -11.209700     5A    -11.207706     6A    -11.203287
       7A     -1.369741     8A     -1.072868     9A     -0.946213
      10A     -0.939440    11A     -0.912538    12A     -0.752378
      13A     -0.655163    14A     -0.644544    15A     -0.637784
      16A     -0.591723    17A     -0.573263    18A     -0.552685
      19A     -0.535278    20A     -0.524064    21A     -0.514808
      22A     -0.488926    23A     -0.486282    24A     -0.438907
      25A     -0.403445

  @DF-RHF Final Energy:  -271.17518584677134

   => Energetics <=

    Nuclear Repulsion Energy =            272.3348997233862292
    One-Electron Energy =                -907.5215294379472653
    Two-Electron Energy =                 364.0114438677893531
    DFT Exchange-Correlation Energy =       0.0000000000000000
    Empirical Dispersion Energy =           0.0000000000000000
    PCM Polarization Energy =               0.0000000000000000
    EFP Energy =                            0.0000000000000000
    Total Energy =                       -271.1751858467716829
    Molecular point group: c1
  Basis Set: 6-31G*
  Basis Set:

  -Total Gradient:
     Atom            X                  Y                   Z
    ------   -----------------  -----------------  -----------------
       1        0.000042080882     0.000003273780    -0.000032586739
       2       -0.000848706775    -0.000574671471    -0.001580218148
       3        0.000788430820    -0.000809655653     0.001215455783
       4       -0.000047955605     0.000005462445     0.000017188448
       5        0.000457534652     0.000726548952     0.000966298456
       6       -0.000404258705     0.000676071047    -0.000526284955
       7       -0.000024543242    -0.000006155439    -0.000022623055
       8        0.000029166086    -0.000027044271    -0.000058297481
       9        0.000002072629     0.000015975509     0.000029529351
      10       -0.000024853578    -0.000001963177    -0.000003667581
      11        0.000008391813     0.000008564729    -0.000002996180
      12        0.000001964901     0.000005976018    -0.000011535785
      13       -0.000014132442    -0.000002389613     0.000011226892
      14        0.000012068467    -0.000022626438    -0.000003787317
      15        0.000027396961     0.000001847961    -0.000031008616
      16        0.000011623846    -0.000001075011     0.000002597386
      17        0.000001883337    -0.000003408936     0.000007587008
      18       -0.000018164050     0.000005269568     0.000023122531

  **** Optimization is complete! (in 9 steps) ****
    Final optimized geometry and variables:
    Molecular point group: c1

    Geometry (in Angstrom), charge = 0, multiplicity = 1:

    H           -1.291315547026     1.448640925019     2.138171247307
    C           -1.198945087323     0.562009401249     1.524360468792
    O            0.008278710766     0.674074792715     0.835074146450
    H           -2.060166449125     0.514627126928     0.866224154306
    H           -1.210340022834    -0.304314947058     2.179962822057
    C            0.231835803275    -0.123171473861    -0.314403667281
    C            1.700206816926     0.124284792094    -0.652044226423
    C            0.004940410445    -1.608170262495    -0.016112902744
    C           -0.654448676895     0.343312362922    -1.473843538405
    H            2.331425080646    -0.187649792850     0.172359249460
    H            1.869982226787     1.181022304698    -0.824830093635
    H            1.994440275684    -0.423714073498    -1.541395642170
    H            0.592926689430    -1.915229385680     0.842572301252
    H            0.302975793527    -2.213185137118    -0.866135104430
    H           -1.037830311574    -1.826238130107     0.189735094209
    H           -0.517921752187     1.405978068557    -1.642369815268
    H           -0.394073544342    -0.184537819072    -2.385725331080
    H           -1.706774661711     0.161985306444    -1.284114945679

  Mulliken Charges: (a.u.)
   Center  Symbol    Alpha    Beta     Spin     Total
       1     H     0.41354  0.41354  0.00000  0.17291
       2     C     3.07907  3.07907  0.00000 -0.15813
       3     O     4.31911  4.31911  0.00000 -0.63822
       4     H     0.43068  0.43068  0.00000  0.13864
       5     H     0.42751  0.42751  0.00000  0.14497
       6     C     2.84346  2.84346  0.00000  0.31308
       7     C     3.23306  3.23306  0.00000 -0.46612
       8     C     3.24910  3.24910  0.00000 -0.49820
       9     C     3.24369  3.24369  0.00000 -0.48737
      10     H     0.41472  0.41472  0.00000  0.17056
      11     H     0.41365  0.41365  0.00000  0.17270
      12     H     0.42509  0.42509  0.00000  0.14982
      13     H     0.41362  0.41362  0.00000  0.17276
      14     H     0.41869  0.41869  0.00000  0.16263
      15     H     0.41990  0.41990  0.00000  0.16019
      16     H     0.41327  0.41327  0.00000  0.17347
      17     H     0.42105  0.42105  0.00000  0.15790
      18     H     0.42079  0.42079  0.00000  0.15842

   Total alpha = 25.00000, Total beta = 25.00000, Total charge =  0.00000
