                              Psi4 1.0.54 Driver

  ==> Input File <==

--------------------------------------------------------------------------
set {
	reference rhf
	basis cc-pvtz
}

set_num_threads( 4 )
memory 2 gb

molecule MOL {
0 1

O	 -2.817697	 1.304178	 0.001046
C	 -2.664672	 0.129869	 0.003507
C	 -3.797908	 -0.860100	 -0.001145
O	 -1.481217	 -0.452708	 0.001092
H	 -4.408836	 -0.679689	 -0.875387
H	 -3.443486	 -1.878443	 -0.002770
H	 -4.412123	 -0.683688	 0.871605
C	 -0.332055	 0.384012	 -0.000250
C	 0.892252	 -0.506059	 -0.000295
H	 -0.360822	 1.020205	 -0.874146
H	 -0.359817	 1.021310	 0.872861
C	 1.189831	 -1.073868	 1.384408
H	 1.742847	 0.065627	 -0.357134
H	 0.739350	 -1.314798	 -0.707562
C	 2.420837	 -1.975620	 1.408763
H	 1.331316	 -0.257487	 2.088313
H	 0.328907	 -1.635368	 1.738669
C	 2.717865	 -2.544183	 2.792063
H	 3.282170	 -1.415122	 1.056622
H	 2.280547	 -2.791899	 0.705844
H	 2.896899	 -1.751633	 3.510852
H	 3.596113	 -3.178915	 2.774695
H	 1.887367	 -3.138815	 3.157493

	symmetry c1
}
set optking {
	frozen_dihedral = ("
		13 9 8 10
	")
}

ee,wfn = optimize('scf', return_wfn=True)
oeprop( wfn, 'DIPOLE', 'QUADRUPOLE', 'MULLIKEN_CHARGES')
f=open( 'psi4out.xyz', 'w' )
f.write( "23  " )
f.write( str(ee) + "\n" )
f.write( MOL.save_string_xyz() )
f.close()
--------------------------------------------------------------------------

    Molecular point group: c1
  Charge       = 0
  Multiplicity = 1
  Basis Set: CC-PVTZ
  Basis Set:
  @DF-RHF Final Energy:  -423.13358916535117
    Total Energy =                       -423.1335891653511680
    Molecular point group: c1
  Basis Set: CC-PVTZ
  Basis Set:
  Basis Set: CC-PVTZ
  Basis Set:
  @DF-RHF Final Energy:  -423.13371491483770
    Total Energy =                       -423.1337149148371282
  Basis Set: CC-PVTZ
  Basis Set:
  Basis Set: CC-PVTZ
  Basis Set:
  @DF-RHF Final Energy:  -423.13375347778640
    Total Energy =                       -423.1337534777862857
  Basis Set: CC-PVTZ
  Basis Set:
  Basis Set: CC-PVTZ
  Basis Set:
  @DF-RHF Final Energy:  -423.13391748230623
    Total Energy =                       -423.1339174823060603
  Basis Set: CC-PVTZ
  Basis Set:
  Basis Set: CC-PVTZ
  Basis Set:
  @DF-RHF Final Energy:  -423.13392010736783
    Total Energy =                       -423.1339201073673166
  Basis Set: CC-PVTZ
  Basis Set:
  Charge       = 0
  Multiplicity = 1
  Basis Set: CC-PVTZ
  Basis Set:

    Orbital Energies (a.u.)
    -----------------------

    Doubly Occupied:

       1A    -20.596682     2A    -20.530040     3A    -11.366947
       4A    -11.279802     5A    -11.231265     6A    -11.222974
       7A    -11.217863     8A    -11.217094     9A    -11.209781
      10A     -1.471705    11A     -1.364596    12A     -1.093207
      13A     -1.042646    14A     -1.003809    15A     -0.931942
      16A     -0.843660    17A     -0.801019    18A     -0.781012
      19A     -0.691408    20A     -0.685036    21A     -0.670171
      22A     -0.644532    23A     -0.609194    24A     -0.585707
      25A     -0.578933    26A     -0.574355    27A     -0.560135
      28A     -0.534630    29A     -0.530814    30A     -0.507422
      31A     -0.496487    32A     -0.475108    33A     -0.469969
      34A     -0.463577    35A     -0.448614    36A     -0.440969

  @DF-RHF Final Energy:  -423.13392080381499

   => Energetics <=

    Nuclear Repulsion Energy =            457.6555248623806733
    One-Electron Energy =               -1483.2326862952861575
    Two-Electron Energy =                 602.4432406290903828
    DFT Exchange-Correlation Energy =       0.0000000000000000
    Empirical Dispersion Energy =           0.0000000000000000
    PCM Polarization Energy =               0.0000000000000000
    EFP Energy =                            0.0000000000000000
    Total Energy =                       -423.1339208038151583
    Molecular point group: c1
  Basis Set: CC-PVTZ
  Basis Set:

  -Total Gradient:
     Atom            X                  Y                   Z
    ------   -----------------  -----------------  -----------------
       1       -0.000021182003     0.000058743259     0.000006919434
       2        0.000023781747    -0.000063906650     0.000001172135
       3       -0.000013744816     0.000006790805     0.000023241613
       4       -0.000013643208    -0.000016582520    -0.000031838808
       5       -0.000010269481    -0.000005839967    -0.000021280267
       6        0.000007952805    -0.000000223134    -0.000001065772
       7       -0.000014218664     0.000004788419     0.000003009107
       8       -0.001903724191    -0.002881543206    -0.002390184640
       9        0.001027151632     0.001663562994     0.003663398828
      10        0.001446476840     0.002138700841     0.001434545857
      11       -0.000001467064     0.000005840769     0.000004185752
      12        0.000001571448    -0.000015144920     0.000014398993
      13       -0.000534645560    -0.000899884978    -0.002696074560
      14       -0.000004135491    -0.000002042502    -0.000000351174
      15       -0.000008409101     0.000007649721     0.000003965473
      16       -0.000003204393     0.000003737558    -0.000010642199
      17        0.000007701167     0.000003763197    -0.000009369631
      18        0.000010499187    -0.000005494201     0.000001018856
      19        0.000002926458    -0.000000341060    -0.000000181852
      20        0.000000138357     0.000001372948     0.000000291651
      21        0.000000608272     0.000000452645    -0.000000839739
      22        0.000002345258    -0.000005011485     0.000005640148
      23       -0.000002509200     0.000000611463     0.000000040788

  **** Optimization is complete! (in 6 steps) ****
    Final optimized geometry and variables:
    Molecular point group: c1

    Geometry (in Angstrom), charge = 0, multiplicity = 1:

    O           -2.382671890424     1.912018757248    -0.646954010868
    C           -2.224080174202     0.738767450826    -0.621987561482
    C           -3.352990012931    -0.255821110859    -0.587025279000
    O           -1.037692865503     0.161854166856    -0.622822936506
    H           -3.978378855889    -0.096871222608    -1.455246798888
    H           -2.994449336632    -1.272684671946    -0.572190375246
    H           -3.954114897973    -0.062865180374     0.291433520742
    C            0.107423323680     1.003509989945    -0.654260012806
    C            1.345829003148     0.130215928026    -0.607400526351
    H            0.085105929301     1.612022130715    -1.547009160452
    H            0.068170619280     1.678603709555     0.190291815424
    C            1.652280584749    -0.444470593617     0.771650845898
    H            2.183591333868     0.718254876866    -0.970408992706
    H            1.218526237342    -0.676588646914    -1.322907734527
    C            2.877402194005    -1.353780918856     0.783407103471
    H            1.804623226308     0.372221049498     1.473245304854
    H            0.789160654656    -0.998730842949     1.127713792618
    C            3.188489597455    -1.919760180071     2.164786272191
    H            3.738966188449    -0.801106040819     0.418286398077
    H            2.722770002965    -2.171966756128     0.085488854681
    H            3.383163591351    -1.126031334442     2.878307641358
    H            4.061371997042    -2.561726528499     2.138517990250
    H            2.357800634720    -2.506110165845     2.543096141642

  Mulliken Charges: (a.u.)
   Center  Symbol    Alpha    Beta     Spin     Total
       1     O     4.20237  4.20237  0.00000 -0.40475
       2     C     2.81301  2.81301  0.00000  0.37399
       3     C     3.13973  3.13973  0.00000 -0.27947
       4     O     4.14853  4.14853  0.00000 -0.29705
       5     H     0.44162  0.44162  0.00000  0.11676
       6     H     0.44228  0.44228  0.00000  0.11543
       7     H     0.44198  0.44198  0.00000  0.11603
       8     C     2.98873  2.98873  0.00000  0.02253
       9     C     3.08785  3.08785  0.00000 -0.17569
      10     H     0.44497  0.44497  0.00000  0.11005
      11     H     0.45350  0.45350  0.00000  0.09301
      12     C     3.08914  3.08914  0.00000 -0.17828
      13     H     0.44988  0.44988  0.00000  0.10023
      14     H     0.45167  0.45167  0.00000  0.09667
      15     C     3.08545  3.08545  0.00000 -0.17089
      16     H     0.45443  0.45443  0.00000  0.09114
      17     H     0.44945  0.44945  0.00000  0.10109
      18     C     3.14966  3.14966  0.00000 -0.29931
      19     H     0.45473  0.45473  0.00000  0.09054
      20     H     0.45350  0.45350  0.00000  0.09301
      21     H     0.45475  0.45475  0.00000  0.09049
      22     H     0.44798  0.44798  0.00000  0.10404
      23     H     0.45479  0.45479  0.00000  0.09043

   Total alpha = 36.00000, Total beta = 36.00000, Total charge = -0.00000

*** Psi4 exiting successfully. Buy a developer a beer!
