  ==> Input File <==

--------------------------------------------------------------------------
set {
	reference rhf
	basis cc-pvtz
}

set_num_threads( 4 )
memory 2 gb

molecule MOL {
0 1

H	 2.347177	 -1.964958	 -0.503488
N	 1.366477	 -1.788686	 -0.511563
C	 1.064548	 -0.610046	 -1.298639
C	 0.856055	 -1.672056	 0.839625
H	 1.438689	 -0.751017	 -2.305365
H	 1.528379	 0.290192	 -0.891146
C	 -0.438757	 -0.404296	 -1.341271
H	 1.079117	 -2.582584	 1.382335
H	 1.306713	 -0.838916	 1.382215
C	 -0.646977	 -1.464915	 0.794192
H	 -0.895569	 -1.233124	 -1.889868
H	 -0.663540	 0.508917	 -1.879447
N	 -0.976577	 -0.298712	 -0.000000
H	 -1.022315	 -1.318595	 1.800090
H	 -1.118134	 -2.366809	 0.392710
C	 -2.391156	 -0.021003	 -0.000000
H	 -2.853954	 -0.458728	 -0.875714
H	 -2.853954	 -0.458728	 0.875714
H	 -2.614037	 1.049773	 -0.000000

	symmetry c1
}
set optking {
	frozen_dihedral = ("
		7 13 16 19
	")
}

ee = optimize('scf')
oeprop('DIPOLE', 'QUADRUPOLE', 'MULLIKEN_CHARGES')
f=open( 'psi4out.xyz', 'w' )
f.write( "19  " )
f.write( str(ee) + "\n" )
f.write( MOL.save_string_xyz() )
f.close()
--------------------------------------------------------------------------

    Molecular point group: c1
  Charge       = 0
  Multiplicity = 1
  Basis Set: CC-PVTZ
  Basis Set:
  @DF-RHF Final Energy:  -305.30484710575155
    Total Energy =                       -305.3048471057512643
    Molecular point group: c1
  Basis Set: CC-PVTZ
  Basis Set:
  Basis Set: CC-PVTZ
  Basis Set:
  @DF-RHF Final Energy:  -305.30556166836641
    Total Energy =                       -305.3055616683665221
  Basis Set: CC-PVTZ
  Basis Set:
  Basis Set: CC-PVTZ
  Basis Set:
  @DF-RHF Final Energy:  -305.30565014061318
    Total Energy =                       -305.3056501406132952
  Basis Set: CC-PVTZ
  Basis Set:
  Basis Set: CC-PVTZ
  Basis Set:
  @DF-RHF Final Energy:  -305.30565333793680
    Total Energy =                       -305.3056533379365192
  Basis Set: CC-PVTZ
  Basis Set:
  Charge       = 0
  Multiplicity = 1
  Basis Set: CC-PVTZ
  Basis Set:

    Orbital Energies (a.u.)
    -----------------------

    Doubly Occupied:

       1A    -15.536261     2A    -15.530851     3A    -11.236857
       4A    -11.236838     5A    -11.235733     6A    -11.235616
       7A    -11.232835     8A     -1.247868     9A     -1.186643
      10A     -1.023315    11A     -0.965252    12A     -0.860978
      13A     -0.858782    14A     -0.758116    15A     -0.692386
      16A     -0.633227    17A     -0.625107    18A     -0.609669
      19A     -0.604193    20A     -0.581189    21A     -0.542872
      22A     -0.534505    23A     -0.510987    24A     -0.489337
      25A     -0.465912    26A     -0.457347    27A     -0.365641
      28A     -0.348293

  @DF-RHF Final Energy:  -305.30565298022043

   => Energetics <=

    Nuclear Repulsion Energy =            340.0833840466362972
    One-Electron Energy =               -1087.5648525308497483
    Two-Electron Energy =                 442.1758155039930216
    DFT Exchange-Correlation Energy =       0.0000000000000000
    Empirical Dispersion Energy =           0.0000000000000000
    PCM Polarization Energy =               0.0000000000000000
    EFP Energy =                            0.0000000000000000
    Total Energy =                       -305.3056529802204295
    Molecular point group: c1
  Basis Set: CC-PVTZ
  Basis Set:

  -Total Gradient:
     Atom            X                  Y                   Z
    ------   -----------------  -----------------  -----------------
       1       -0.000006024719     0.000003078155     0.000003884539
       2       -0.000046655128     0.000010707988    -0.000002060967
       3        0.000037839176     0.000007102180    -0.000008026471
       4        0.000035379327    -0.000023359445     0.000029629553
       5        0.000009000757    -0.000008569103     0.000001950643
       6       -0.000000832108    -0.000000402722    -0.000002417860
       7       -0.000752707878    -0.003861444875     0.000138320075
       8        0.000014993308    -0.000006466145    -0.000004001748
       9       -0.000007745878     0.000001058458    -0.000001773285
      10        0.000007254180     0.000018020340    -0.000206383877
      11       -0.000032382073    -0.000014847272     0.000001261268
      12       -0.000005301587    -0.000007764925     0.000022492160
      13        0.001090259379     0.005421802040     0.001459727324
      14        0.000012635986     0.000008391542    -0.000022030838
      15       -0.000011798333    -0.000027425992     0.000005875257
      16       -0.000206111241    -0.001559768877    -0.006481071807
      17       -0.000089504335     0.000029776858     0.000020203877
      18       -0.000028149175     0.000006789286    -0.000009528785
      19       -0.000020149655     0.000003322510     0.005053950940

  **** Optimization is complete! (in 5 steps) ****
    Final optimized geometry and variables:
    Molecular point group: c1

    Geometry (in Angstrom), charge = 0, multiplicity = 1:

    H            2.535080753362    -1.053858771494    -0.278246360149
    N            1.552627877356    -0.887551720934    -0.292462336291
    C            1.242689749851     0.289979385764    -1.077454191775
    C            1.031374619127    -0.781165175744     1.055110078989
    H            1.616221691833     0.152839204614    -2.085113936537
    H            1.700439408699     1.193320346661    -0.669897321867
    C           -0.262017891916     0.483565722324    -1.117454659204
    H            1.256510716666    -1.692908544565     1.595241574886
    H            1.472234486867     0.052391325754     1.605314739641
    C           -0.472992233105    -0.582604854316     1.003606742153
    H           -0.714867975539    -0.353288112873    -1.655958170855
    H           -0.494854392651     1.389783967418    -1.665309145916
    N           -0.803336339999     0.596202621658     0.223318131792
    H           -0.849128750156    -0.450972479068     2.010609746413
    H           -0.935761835279    -1.483351024510     0.590221413524
    C           -2.225087031911     0.877922811138     0.206769810211
    H           -2.740422558269     0.419947372583    -0.636682620025
    H           -2.685287890108     0.501168290317     1.111740003484
    H           -2.402607850998     1.947465381903     0.198436333964

  Mulliken Charges: (a.u.)
   Center  Symbol    Alpha    Beta     Spin     Total
       1     H     0.44002  0.44002  0.00000  0.11995
       2     N     3.64288  3.64288  0.00000 -0.28575
       3     C     3.04122  3.04122  0.00000 -0.08243
       4     C     3.04192  3.04192  0.00000 -0.08385
       5     H     0.45260  0.45260  0.00000  0.09481
       6     H     0.46540  0.46540  0.00000  0.06919
       7     C     3.03600  3.03600  0.00000 -0.07199
       8     H     0.45258  0.45258  0.00000  0.09484
       9     H     0.46561  0.46561  0.00000  0.06878
      10     C     3.03295  3.03295  0.00000 -0.06590
      11     H     0.46752  0.46752  0.00000  0.06496
      12     H     0.45369  0.45369  0.00000  0.09262
      13     N     3.61717  3.61717  0.00000 -0.23434
      14     H     0.45408  0.45408  0.00000  0.09184
      15     H     0.46902  0.46902  0.00000  0.06195
      16     C     3.09517  3.09517  0.00000 -0.19034
      17     H     0.46579  0.46579  0.00000  0.06842
      18     H     0.45658  0.45658  0.00000  0.08684
      19     H     0.44980  0.44980  0.00000  0.10040

   Total alpha = 28.00000, Total beta = 28.00000, Total charge = -0.00000
