  ==> Input File <==

--------------------------------------------------------------------------
set {
	reference rhf
	basis cc-pvtz
}

set_num_threads( 4 )
memory 2 gb

molecule MOL {
0 1

H	 2.991820	 0.672001	 -1.044940
N	 2.174612	 0.099515	 -1.040527
C	 1.263552	 0.494993	 0.021953
H	 2.476843	 -0.844383	 -0.917851
C	 -0.016533	 -0.325589	 -0.026925
H	 1.022158	 1.542912	 -0.121541
H	 1.706870	 0.409211	 1.014976
C	 -1.280353	 0.525521	 0.047747
H	 -0.016686	 -0.912532	 -0.939714
H	 -0.014099	 -1.037598	 0.796369
C	 -2.560681	 -0.301323	 -0.007747
H	 -1.279957	 1.241025	 -0.770189
H	 -1.270445	 1.110526	 0.963468
H	 -2.617064	 -0.872870	 -0.928010
H	 -3.439525	 0.331102	 0.043462
H	 -2.609427	 -1.002736	 0.818585

	symmetry c1
}
set optking {
	frozen_dihedral = ("
		6 3 5 9
	")
}

ee = optimize('scf')
oeprop('DIPOLE', 'QUADRUPOLE', 'MULLIKEN_CHARGES')
f=open( 'psi4out.xyz', 'w' )
f.write( "16  " )
f.write( str(ee) + "\n" )
f.write( MOL.save_string_xyz() )
f.close()
--------------------------------------------------------------------------

    Molecular point group: c1
  Charge       = 0
  Multiplicity = 1
  Basis Set: CC-PVTZ
  Basis Set:
  @DF-RHF Final Energy:  -212.39485548752339
    Total Energy =                       -212.3948554875232730
    Molecular point group: c1
  Basis Set: CC-PVTZ
  Basis Set:
  Basis Set: CC-PVTZ
  Basis Set:
  @DF-RHF Final Energy:  -212.39512182737604
    Total Energy =                       -212.3951218273761015
  Basis Set: CC-PVTZ
  Basis Set:
  Basis Set: CC-PVTZ
  Basis Set:
  @DF-RHF Final Energy:  -212.39519495748667
    Total Energy =                       -212.3951949574866376
  Basis Set: CC-PVTZ
  Basis Set:
  Basis Set: CC-PVTZ
  Basis Set:
  @DF-RHF Final Energy:  -212.39519599968079
    Total Energy =                       -212.3951959996808796
  Basis Set: CC-PVTZ
  Basis Set:
  Charge       = 0
  Multiplicity = 1
  Basis Set: CC-PVTZ
  Basis Set:

    Orbital Energies (a.u.)
    -----------------------

    Doubly Occupied:

       1A    -15.527375     2A    -11.238057     3A    -11.212319
       4A    -11.207751     5A    -11.204889     6A     -1.177688
       7A     -1.059305     8A     -0.957796     9A     -0.845100
      10A     -0.793030    11A     -0.655822    12A     -0.647604
      13A     -0.596959    14A     -0.578226    15A     -0.572134
      16A     -0.516623    17A     -0.504497    18A     -0.467216
      19A     -0.465810    20A     -0.462150    21A     -0.382322

  @DF-RHF Final Energy:  -212.39519610718756

   => Energetics <=

    Nuclear Repulsion Energy =            186.5268948168498184
    One-Electron Energy =                -655.6988340229708001
    Two-Electron Energy =                 256.7767430989333661
    DFT Exchange-Correlation Energy =       0.0000000000000000
    Empirical Dispersion Energy =           0.0000000000000000
    PCM Polarization Energy =               0.0000000000000000
    EFP Energy =                            0.0000000000000000
    Total Energy =                       -212.3951961071876440
    Molecular point group: c1
  Basis Set: CC-PVTZ
  Basis Set:

  -Total Gradient:
     Atom            X                  Y                   Z
    ------   -----------------  -----------------  -----------------
       1        0.000022328298     0.000005497364    -0.000008071002
       2       -0.000015360257     0.000009934973     0.000010136852
       3        0.000675117220    -0.000840757848    -0.003273235218
       4        0.000006048177    -0.000009866381     0.000004496179
       5       -0.001701595560     0.002750266810    -0.000986151054
       6       -0.000322964464     0.000289064419     0.002879701595
       7        0.000008255245    -0.000009583951     0.000000482571
       8        0.000010410163    -0.000008984128     0.000013054824
       9        0.001319739483    -0.002187816358     0.001362110828
      10       -0.000001813299     0.000006176238     0.000002952349
      11       -0.000004809205     0.000003867683    -0.000008596532
      12        0.000005217924    -0.000003998046     0.000004426675
      13        0.000005838509    -0.000004660592     0.000000542462
      14       -0.000000541716    -0.000001470898     0.000002545168
      15       -0.000009014526    -0.000003402674    -0.000002792587
      16        0.000003144010     0.000005733388    -0.000001603110

  **** Optimization is complete! (in 5 steps) ****
    Final optimized geometry and variables:
    Molecular point group: c1

    Geometry (in Angstrom), charge = 0, multiplicity = 1:

    H            3.091009426353     0.560067440672    -0.773282429660
    N            2.256321923008     0.014341282344    -0.820290057038
    C            1.320242063617     0.406397363827     0.223121327659
    H            2.526763074009    -0.941256927830    -0.711705586342
    C            0.023413801772    -0.414412232056     0.158294085933
    H            1.092576307237     1.458395850434     0.094376095573
    H            1.748668002391     0.319085966283     1.221606815354
    C           -1.244006849824     0.429954342763     0.245878962282
    H            0.023597380852    -0.988009326169    -0.762478885988
    H            0.015286042392    -1.145440883471     0.962644641065
    C           -2.520886164947    -0.402589464695     0.224053282884
    H           -1.256744701939     1.135159168129    -0.580080313724
    H           -1.217577452023     1.024988250648     1.155363030411
    H           -2.589287519503    -0.987552000784    -0.687074114730
    H           -3.401566354860     0.226962453295     0.279934210688
    H           -2.553595381026    -1.092060043568     1.061243188365

  Mulliken Charges: (a.u.)
   Center  Symbol    Alpha    Beta     Spin     Total
       1     H     0.43052  0.43052  0.00000  0.13896
       2     N     3.68539  3.68539  0.00000 -0.37078
       3     C     3.03011  3.03011  0.00000 -0.06022
       4     H     0.43097  0.43097  0.00000  0.13806
       5     C     3.08541  3.08541  0.00000 -0.17083
       6     H     0.45925  0.45925  0.00000  0.08149
       7     H     0.46649  0.46649  0.00000  0.06703
       8     C     3.08645  3.08645  0.00000 -0.17290
       9     H     0.45242  0.45242  0.00000  0.09517
      10     H     0.45642  0.45642  0.00000  0.08717
      11     C     3.15036  3.15036  0.00000 -0.30073
      12     H     0.45170  0.45170  0.00000  0.09659
      13     H     0.45544  0.45544  0.00000  0.08912
      14     H     0.45417  0.45417  0.00000  0.09166
      15     H     0.44895  0.44895  0.00000  0.10210
      16     H     0.45595  0.45595  0.00000  0.08810

   Total alpha = 21.00000, Total beta = 21.00000, Total charge = -0.00000
