                              Psi4 1.0.54 Driver

  ==> Input File <==

--------------------------------------------------------------------------
set {
	reference rhf
	basis cc-pvtz
}

set_num_threads( 4 )
memory 2 gb

molecule MOL {
0 1

H	 -0.081634	 -0.547896	 -0.818849
N	 -0.625934	 -0.663929	 -0.000707
C	 -1.978635	 -0.158664	 0.001017
C	 -0.060256	 -1.290137	 1.054970
H	 -2.519057	 -0.493535	 -0.876362
H	 -1.938890	 0.917202	 -0.004137
H	 -2.514266	 -0.485137	 0.884506
C	 1.366433	 -1.740428	 0.829990
O	 -0.632679	 -1.484176	 2.086356
H	 2.000789	 -0.890184	 0.608011
H	 1.722785	 -2.231335	 1.720547
H	 1.419708	 -2.427061	 -0.006858

	symmetry c1
}
set optking {
	frozen_dihedral = ("
		4 2 3 5
	")
}

ee,wfn = optimize('scf', return_wfn=True)
oeprop( wfn, 'DIPOLE', 'QUADRUPOLE', 'MULLIKEN_CHARGES')
f=open( 'psi4out.xyz', 'w' )
f.write( "12  " )
f.write( str(ee) + "\n" )
f.write( MOL.save_string_xyz() )
f.close()
--------------------------------------------------------------------------

    Molecular point group: c1
  Charge       = 0
  Multiplicity = 1
  Basis Set: CC-PVTZ
  Basis Set:
  @DF-RHF Final Energy:  -247.10036510542398
    Total Energy =                       -247.1003651054238617
    Molecular point group: c1
  Basis Set: CC-PVTZ
  Basis Set:
  Basis Set: CC-PVTZ
  Basis Set:
  @DF-RHF Final Energy:  -247.10086105855802
    Total Energy =                       -247.1008610585580527
  Basis Set: CC-PVTZ
  Basis Set:
  Basis Set: CC-PVTZ
  Basis Set:
  @DF-RHF Final Energy:  -247.10084542260188
    Total Energy =                       -247.1008454226018785
  Basis Set: CC-PVTZ
  Basis Set:
  Basis Set: CC-PVTZ
  Basis Set:
  @DF-RHF Final Energy:  -247.10100632546082
    Total Energy =                       -247.1010063254608440
  Basis Set: CC-PVTZ
  Basis Set:
  Basis Set: CC-PVTZ
  Basis Set:
  @DF-RHF Final Energy:  -247.10100850345773
    Total Energy =                       -247.1010085034576491
  Basis Set: CC-PVTZ
  Basis Set:
  Basis Set: CC-PVTZ
  Basis Set:
  @DF-RHF Final Energy:  -247.10101138530709
    Total Energy =                       -247.1010113853070607
  Basis Set: CC-PVTZ
  Basis Set:
  Charge       = 0
  Multiplicity = 1
  Basis Set: CC-PVTZ
  Basis Set:

    Orbital Energies (a.u.)
    -----------------------

    Doubly Occupied:

       1A    -20.506735     2A    -15.574852     3A    -11.336838
       4A    -11.252456     5A    -11.228090     6A     -1.388564
       7A     -1.231002     8A     -1.016696     9A     -0.932845
      10A     -0.788185    11A     -0.690958    12A     -0.651702
      13A     -0.635416    14A     -0.586805    15A     -0.582996
      16A     -0.555650    17A     -0.544916    18A     -0.511219
      19A     -0.417339    20A     -0.389394

  @DF-RHF Final Energy:  -247.10101181991288

   => Energetics <=

    Nuclear Repulsion Energy =            181.6496304466743652
    One-Electron Energy =                -695.8559651340279970
    Two-Electron Energy =                 267.1053228674407478
    DFT Exchange-Correlation Energy =       0.0000000000000000
    Empirical Dispersion Energy =           0.0000000000000000
    PCM Polarization Energy =               0.0000000000000000
    EFP Energy =                            0.0000000000000000
    Total Energy =                       -247.1010118199129124
    Molecular point group: c1
  Basis Set: CC-PVTZ
  Basis Set:

  -Total Gradient:
     Atom            X                  Y                   Z
    ------   -----------------  -----------------  -----------------
       1        0.000028602954    -0.000005688880     0.000027624965
       2       -0.000023043350     0.000196525416    -0.000013739835
       3        0.000038061102     0.000032441759    -0.000089815206
       4       -0.000034156506    -0.000153377983     0.000076130233
       5       -0.000032920275    -0.000097692318     0.000062524292
       6        0.000006864092    -0.000000813808     0.000001512463
       7        0.000006301673     0.000008086699     0.000011940804
       8        0.000007397910     0.000030359891    -0.000003566052
       9       -0.000005183320     0.000006638699    -0.000056784962
      10        0.000017519888    -0.000006697225    -0.000018078690
      11        0.000004071072     0.000003758202     0.000002486648
      12       -0.000013515241    -0.000013540453    -0.000000234659

  **** Optimization is complete! (in 7 steps) ****
    Final optimized geometry and variables:
    Molecular point group: c1

    Geometry (in Angstrom), charge = 0, multiplicity = 1:

    H            0.319451498169     0.509304094893    -1.607348231088
    N           -0.234508685730     0.376108139279    -0.798278801394
    C           -1.579483988712     0.901295117495    -0.792575064729
    C            0.334130100609    -0.228829156682     0.268489324789
    H           -2.128479923940     0.545599460390    -1.655568293299
    H           -1.582994462193     1.985390802711    -0.800223836047
    H           -2.074558783112     0.560859989041     0.101050180216
    C            1.762689562942    -0.677855985239     0.051456097195
    O           -0.237479492866    -0.403560875001     1.303564550065
    H            2.396282151073     0.173242739009    -0.170194741300
    H            2.116281042730    -1.164199011572     0.945705910404
    H            1.821508931906    -1.366994259767    -0.782850906538

  Mulliken Charges: (a.u.)
   Center  Symbol    Alpha    Beta     Spin     Total
       1     H     0.41044  0.41044  0.00000  0.17912
       2     N     3.62170  3.62170  0.00000 -0.24341
       3     C     3.08546  3.08546  0.00000 -0.17093
       4     C     2.83663  2.83663  0.00000  0.32673
       5     H     0.45520  0.45520  0.00000  0.08959
       6     H     0.45631  0.45631  0.00000  0.08738
       7     H     0.43157  0.43157  0.00000  0.13686
       8     C     3.15359  3.15359  0.00000 -0.30718
       9     O     4.21547  4.21547  0.00000 -0.43093
      10     H     0.45007  0.45007  0.00000  0.09986
      11     H     0.43354  0.43354  0.00000  0.13292
      12     H     0.45001  0.45001  0.00000  0.09998

   Total alpha = 20.00000, Total beta = 20.00000, Total charge = -0.00000

*** Psi4 exiting successfully. Buy a developer a beer!
