  ==> Input File <==

--------------------------------------------------------------------------
set {
	reference rhf
	basis 6-31G*
}

set_num_threads( 1 )
memory 2 gb

molecule MOL {
0 1

H	 2.591676	 2.013956	 0.335017
O	 3.341076	 1.666752	 -0.126416
C	 3.569581	 0.339145	 0.272707
C	 2.539767	 -0.640285	 -0.279495
H	 4.553106	 0.084646	 -0.100901
H	 3.608576	 0.269204	 1.359154
C	 2.805512	 -2.100191	 0.095902
H	 1.556661	 -0.344765	 0.077628
H	 2.526098	 -0.542407	 -1.363746
C	 1.785847	 -3.063632	 -0.518005
H	 2.792191	 -2.198801	 1.177782
H	 3.806001	 -2.382152	 -0.232521
C	 2.055625	 -4.547592	 -0.243368
H	 0.790308	 -2.806721	 -0.160588
H	 1.769667	 -2.910284	 -1.595003
C	 1.919081	 -4.966835	 1.222943
H	 1.361201	 -5.136994	 -0.838513
H	 3.051895	 -4.803879	 -0.600580
C	 2.093402	 -6.472731	 1.431091
H	 0.940279	 -4.664964	 1.592988
H	 2.650485	 -4.441275	 1.832154
C	 1.963947	 -6.893046	 2.894731
H	 1.355122	 -7.006123	 0.836177
H	 3.066989	 -6.777873	 1.053069
H	 0.987877	 -6.630721	 3.293098
H	 2.090302	 -7.965229	 3.009153
H	 2.713364	 -6.404416	 3.511156

	symmetry c1
}
set optking {
	frozen_dihedral = ("
		14 10 7 4,
		14 10 13 16,
		10 7 4 8,
		10 13 16 20,
		20 16 19 22,
		4 3 2 1
	")
}

ee = energy('scf')
oeprop('DIPOLE', 'QUADRUPOLE', 'MULLIKEN_CHARGES')
f=open( 'psi4out.xyz', 'w' )
f.write( "27  " )
f.write( str(ee) + "\n" )
f.write( MOL.save_string_xyz() )
f.close()
--------------------------------------------------------------------------

    Molecular point group: c1

    Geometry (in Angstrom), charge = 0, multiplicity = 1:

       Center              X                  Y                   Z               Mass
    ------------   -----------------  -----------------  -----------------  -----------------
           H          0.126746581516     4.908021857698    -0.201228819249     1.007825032070
           O          0.876146581516     4.560817857698    -0.662661819249    15.994914619560
           C          1.104651581516     3.233210857698    -0.263538819249    12.000000000000
           C          0.074837581516     2.253780857698    -0.815740819249    12.000000000000
           H          2.088176581516     2.978711857698    -0.637146819249     1.007825032070
           H          1.143646581516     3.163269857698     0.822908180751     1.007825032070
           C          0.340582581516     0.793874857698    -0.440343819249    12.000000000000
           H         -0.908268418484     2.549300857698    -0.458617819249     1.007825032070
           H          0.061168581516     2.351658857698    -1.899991819249     1.007825032070
           C         -0.679082418484    -0.169566142302    -1.054250819249    12.000000000000
           H          0.327261581516     0.695264857698     0.641536180751     1.007825032070
           H          1.341071581516     0.511913857698    -0.768766819249     1.007825032070
           C         -0.409304418484    -1.653526142302    -0.779613819249    12.000000000000
           H         -1.674621418484     0.087344857698    -0.696833819249     1.007825032070
           H         -0.695262418484    -0.016218142302    -2.131248819249     1.007825032070
           C         -0.545848418484    -2.072769142302     0.686697180751    12.000000000000
           H         -1.103728418484    -2.242928142302    -1.374758819249     1.007825032070
           H          0.586965581516    -1.909813142302    -1.136825819249     1.007825032070
           C         -0.371527418484    -3.578665142302     0.894845180751    12.000000000000
           H         -1.524650418484    -1.770898142302     1.056742180751     1.007825032070
           H          0.185555581516    -1.547209142302     1.295908180751     1.007825032070
           C         -0.500982418484    -3.998980142302     2.358485180751    12.000000000000
           H         -1.109807418484    -4.112057142302     0.299931180751     1.007825032070
           H          0.602059581516    -3.883807142302     0.516823180751     1.007825032070
           H         -1.477052418484    -3.736655142302     2.756852180751     1.007825032070
           H         -0.374627418484    -5.071163142302     2.472907180751     1.007825032070
           H          0.248434581516    -3.510350142302     2.974910180751     1.007825032070

  Charge       = 0
  Multiplicity = 1
  Basis Set: 6-31G*
  Basis Set:

    Orbital Energies (a.u.)
    -----------------------

    Doubly Occupied:

       1A    -20.552600     2A    -11.266986     3A    -11.218753
       4A    -11.216454     5A    -11.215584     6A    -11.214981
       7A    -11.214864     8A    -11.213651     9A    -11.209150
      10A     -1.358841    11A     -1.094894    12A     -1.061885
      13A     -1.011320    14A     -0.945583    15A     -0.883522
      16A     -0.822165    17A     -0.804003    18A     -0.777613
      19A     -0.694685    20A     -0.647131    21A     -0.642171
      22A     -0.608020    23A     -0.604687    24A     -0.585205
      25A     -0.572957    26A     -0.553708    27A     -0.544612
      28A     -0.521389    29A     -0.509007    30A     -0.493581
      31A     -0.481700    32A     -0.475460    33A     -0.464668
      34A     -0.460629    35A     -0.457329    36A     -0.443033
      37A     -0.420525

  @DF-RHF Final Energy:  -388.28183882023245

   => Energetics <=

    Nuclear Repulsion Energy =            452.8336889841965558
    One-Electron Energy =               -1423.7043206420369188
    Two-Electron Energy =                 582.5887928376081391
    DFT Exchange-Correlation Energy =       0.0000000000000000
    Empirical Dispersion Energy =           0.0000000000000000
    PCM Polarization Energy =               0.0000000000000000
    EFP Energy =                            0.0000000000000000
    Total Energy =                       -388.2818388202322240

  Mulliken Charges: (a.u.)
   Center  Symbol    Alpha    Beta     Spin     Total
       1     H     0.28281  0.28281  0.00000  0.43438
       2     O     4.37077  4.37077  0.00000 -0.74153
       3     C     2.98968  2.98968  0.00000  0.02064
       4     C     3.16476  3.16476  0.00000 -0.32952
       5     H     0.41709  0.41709  0.00000  0.16582
       6     H     0.43234  0.43234  0.00000  0.13531
       7     C     3.16146  3.16146  0.00000 -0.32293
       8     H     0.42804  0.42804  0.00000  0.14392
       9     H     0.41488  0.41488  0.00000  0.17024
      10     C     3.15237  3.15237  0.00000 -0.30475
      11     H     0.42125  0.42125  0.00000  0.15750
      12     H     0.42235  0.42235  0.00000  0.15529
      13     C     3.15340  3.15340  0.00000 -0.30680
      14     H     0.42369  0.42369  0.00000  0.15263
      15     H     0.42054  0.42054  0.00000  0.15892
      16     C     3.15277  3.15277  0.00000 -0.30553
      17     H     0.42136  0.42136  0.00000  0.15728
      18     H     0.42354  0.42354  0.00000  0.15292
      19     C     3.15118  3.15118  0.00000 -0.30236
      20     H     0.42483  0.42483  0.00000  0.15034
      21     H     0.42248  0.42248  0.00000  0.15504
      22     C     3.23919  3.23919  0.00000 -0.47837
      23     H     0.42302  0.42302  0.00000  0.15397
      24     H     0.42291  0.42291  0.00000  0.15419
      25     H     0.42198  0.42198  0.00000  0.15604
      26     H     0.41924  0.41924  0.00000  0.16152
      27     H     0.42208  0.42208  0.00000  0.15584

   Total alpha = 37.00000, Total beta = 37.00000, Total charge =  0.00000
