                              Psi4 1.0.54 Driver

  ==> Input File <==

--------------------------------------------------------------------------
set {
	reference rhf
	basis cc-pvtz
}

set_num_threads( 4 )
memory 2 gb

molecule MOL {
0 1

O	 3.219313	 0.959291	 -0.614106
C	 2.698710	 0.058177	 -0.050237
C	 1.246364	 -0.005813	 0.348416
O	 3.344101	 -1.038700	 0.312317
C	 0.453207	 1.232821	 -0.049003
H	 0.839270	 -0.907818	 -0.092281
H	 1.216683	 -0.160521	 1.422434
C	 -0.998367	 1.217982	 0.432195
H	 0.481498	 1.345443	 -1.127236
H	 0.951413	 2.105557	 0.354893
C	 -1.882951	 0.151251	 -0.211235
H	 -1.429490	 2.193659	 0.228843
H	 -1.019755	 1.099323	 1.513279
C	 -3.113755	 -0.187381	 0.625566
H	 -2.200553	 0.496293	 -1.192534
H	 -1.312169	 -0.757643	 -0.377537
C	 -4.001835	 -1.256431	 -0.004687
H	 -3.698836	 0.715204	 0.784820
H	 -2.797248	 -0.521186	 1.611093
C	 -5.230156	 -1.587932	 0.836213
H	 -4.319055	 -0.924219	 -0.989434
H	 -3.419266	 -2.160165	 -0.161957
H	 -5.838055	 -2.349307	 0.361082
H	 -5.852665	 -0.711394	 0.982064
H	 -4.945714	 -1.956126	 1.816383
C	 4.720529	 -1.114346	 0.001449
H	 4.874321	 -1.055557	 -1.065852
H	 5.057824	 -2.067950	 0.373977
H	 5.264321	 -0.313596	 0.480350

	symmetry c1
}
set optking {
	frozen_dihedral = ("
		15 11 8 5
	")
}

ee,wfn = optimize('scf', return_wfn=True)
oeprop( wfn, 'DIPOLE', 'QUADRUPOLE', 'MULLIKEN_CHARGES')
f=open( 'psi4out.xyz', 'w' )
f.write( "29  " )
f.write( str(ee) + "\n" )
f.write( MOL.save_string_xyz() )
f.close()
--------------------------------------------------------------------------

    Molecular point group: c1
  Charge       = 0
  Multiplicity = 1
  Basis Set: CC-PVTZ
  Basis Set:
  @DF-RHF Final Energy:  -501.22282588194093
    Total Energy =                       -501.2228258819413895
    Molecular point group: c1
  Basis Set: CC-PVTZ
  Basis Set:
  Basis Set: CC-PVTZ
  Basis Set:
  @DF-RHF Final Energy:  -501.22222413936947
    Total Energy =                       -501.2222241393699278
  Basis Set: CC-PVTZ
  Basis Set:
  Basis Set: CC-PVTZ
  Basis Set:
  @DF-RHF Final Energy:  -501.22306267523538
    Total Energy =                       -501.2230626752352691
  Basis Set: CC-PVTZ
  Basis Set:
  Basis Set: CC-PVTZ
  Basis Set:
  @DF-RHF Final Energy:  -501.22314075797283
    Total Energy =                       -501.2231407579729421
  Basis Set: CC-PVTZ
  Basis Set:
  @DF-RHF Final Energy:  -501.22299623667664
    Total Energy =                       -501.2229962366766358
  Basis Set: CC-PVTZ
  Basis Set:
  @DF-RHF Final Energy:  -501.22322900762947
    Total Energy =                       -501.2232290076293566
  Basis Set: CC-PVTZ
  Basis Set:
  Basis Set: CC-PVTZ
  Basis Set:
  @DF-RHF Final Energy:  -501.22323118420991
    Total Energy =                       -501.2232311842100216
  Basis Set: CC-PVTZ
  Basis Set:
  Basis Set: CC-PVTZ
  Basis Set:
  @DF-RHF Final Energy:  -501.22323246940414
    Total Energy =                       -501.2232324694043655
  Basis Set: CC-PVTZ
  Basis Set:
  Charge       = 0
  Multiplicity = 1
  Basis Set: CC-PVTZ
  Basis Set:

    Orbital Energies (a.u.)
    -----------------------

    Doubly Occupied:

       1A    -20.596153     2A    -20.533983     3A    -11.364453
       4A    -11.278365     5A    -11.233279     6A    -11.217208
       7A    -11.215549     8A    -11.213861     9A    -11.213566
      10A    -11.212338    11A    -11.207195    12A     -1.472050
      13A     -1.365639    14A     -1.099023    15A     -1.068150
      16A     -1.020361    17A     -0.978226    18A     -0.929162
      19A     -0.861447    20A     -0.800202    21A     -0.790867
      22A     -0.766554    23A     -0.703841    24A     -0.685553
      25A     -0.676184    26A     -0.650217    27A     -0.630082
      28A     -0.605897    29A     -0.597504    30A     -0.580545
      31A     -0.567316    32A     -0.551911    33A     -0.534757
      34A     -0.530387    35A     -0.515669    36A     -0.509318
      37A     -0.501511    38A     -0.477222    39A     -0.471656
      40A     -0.462581    41A     -0.460556    42A     -0.458197
      43A     -0.442723    44A     -0.437377

  @DF-RHF Final Energy:  -501.22323256141738

   => Energetics <=

    Nuclear Repulsion Energy =            612.6433227473770557
    One-Electron Energy =               -1896.7558366543776174
    Two-Electron Energy =                 782.8892813455834130
    DFT Exchange-Correlation Energy =       0.0000000000000000
    Empirical Dispersion Energy =           0.0000000000000000
    PCM Polarization Energy =               0.0000000000000000
    EFP Energy =                            0.0000000000000000
    Total Energy =                       -501.2232325614170350
    Molecular point group: c1
  Basis Set: CC-PVTZ
  Basis Set:

  -Total Gradient:
     Atom            X                  Y                   Z
    ------   -----------------  -----------------  -----------------
       1       -0.000004154347    -0.000014057751     0.000024058966
       2        0.000001180144    -0.000008117381    -0.000029635199
       3        0.000004262444     0.000008832509     0.000004926166
       4        0.000001528619     0.000010748255     0.000001666473
       5        0.000662174326    -0.001534197583     0.001988796661
       6        0.000005997381     0.000007797674    -0.000000470527
       7       -0.000000362839    -0.000000790186    -0.000003468845
       8       -0.001588917084     0.002563565239    -0.002507210225
       9       -0.000002134006     0.000000458427     0.000010364136
      10        0.000002622872    -0.000007069591    -0.000001436880
      11        0.003707063634    -0.002637348313    -0.000866865081
      12        0.000003426755    -0.000001453875     0.000007274095
      13        0.000005351909    -0.000000014868    -0.000016343824
      14       -0.000008424708    -0.000003584214    -0.000007118719
      15       -0.002780643462     0.001606920089     0.001403139518
      16       -0.000014732732     0.000006932133    -0.000001493172
      17        0.000001966206    -0.000003958847     0.000006047074
      18        0.000002190723    -0.000007806911    -0.000000501823
      19        0.000000016976     0.000001401401    -0.000015921676
      20       -0.000004843490     0.000004145682     0.000001380724
      21        0.000004067300    -0.000001825731     0.000007362190
      22        0.000000799164     0.000007323220     0.000002509380
      23        0.000000822197     0.000005668055     0.000001278841
      24        0.000001390924    -0.000005900347     0.000001045151
      25       -0.000000836450     0.000000975927    -0.000008289967
      26        0.000003637629     0.000000117384    -0.000004116576
      27        0.000000304500     0.000002118841     0.000006619487
      28       -0.000001268670     0.000005331731    -0.000001756271
      29       -0.000002485907    -0.000006210970    -0.000001840074

  **** Optimization is complete! (in 9 steps) ****
    Final optimized geometry and variables:
    Molecular point group: c1

    Geometry (in Angstrom), charge = 0, multiplicity = 1:

    O            3.115209299069     0.921337708511    -0.993176482365
    C            2.634120827417     0.159150185509    -0.226044082343
    C            1.208338150859     0.188141173661     0.262491085677
    O            3.306398121857    -0.843283969921     0.316440859336
    C            0.385807192107     1.325144445545    -0.330443685690
    H            0.781042900923    -0.783053907915     0.043594757122
    H            1.243890497097     0.258372373648     1.344911305566
    C           -1.055161719950     1.365806369340     0.183258542191
    H            0.393067449899     1.248967483062    -1.412330069780
    H            0.876777740220     2.261690204919    -0.095534636480
    C           -1.967031324471     0.264392830406    -0.367212215355
    H           -1.488245539341     2.330775528006    -0.057591331507
    H           -1.038362534214     1.309361471680     1.269426343869
    C           -3.204782649062     0.030143919979     0.496969730945
    H           -2.298635605915     0.547904675592    -1.362429072701
    H           -1.425635813788    -0.670204799055    -0.469533998508
    C           -4.165688238050    -1.003145741589    -0.083665106308
    H           -3.731325140984     0.972394407627     0.631864663353
    H           -2.894400444290    -0.287555347633     1.489612416441
    C           -5.393192735496    -1.238883636982     0.790136032632
    H           -4.483862919065    -0.681969689993    -1.071676472935
    H           -3.639012009518    -1.943221685541    -0.225089253217
    H           -6.054235223799    -1.975962199649     0.348877672854
    H           -5.960463194964    -0.323609259695     0.922924946448
    H           -5.110133766158    -1.596155719008     1.774724423126
    C            4.662772474987    -0.989563199050    -0.052170741644
    H            4.753506471225    -1.152724719307    -1.115826329124
    H            5.027256285100    -1.847983409480     0.488351573374
    H            5.228618020936    -0.110603377584     0.218907842938

  Mulliken Charges: (a.u.)
   Center  Symbol    Alpha    Beta     Spin     Total
       1     O     4.19670  4.19670  0.00000 -0.39340
       2     C     2.80475  2.80475  0.00000  0.39051
       3     C     3.10038  3.10038  0.00000 -0.20077
       4     O     4.14744  4.14744  0.00000 -0.29489
       5     C     3.09184  3.09184  0.00000 -0.18369
       6     H     0.43994  0.43994  0.00000  0.12012
       7     H     0.44008  0.44008  0.00000  0.11984
       8     C     3.10535  3.10535  0.00000 -0.21070
       9     H     0.44614  0.44614  0.00000  0.10772
      10     H     0.44040  0.44040  0.00000  0.11920
      11     C     3.09259  3.09259  0.00000 -0.18519
      12     H     0.44341  0.44341  0.00000  0.11318
      13     H     0.45620  0.45620  0.00000  0.08761
      14     C     3.08668  3.08668  0.00000 -0.17336
      15     H     0.45030  0.45030  0.00000  0.09939
      16     H     0.45427  0.45427  0.00000  0.09146
      17     C     3.08402  3.08402  0.00000 -0.16805
      18     H     0.45418  0.45418  0.00000  0.09164
      19     H     0.45557  0.45557  0.00000  0.08886
      20     C     3.15017  3.15017  0.00000 -0.30034
      21     H     0.45422  0.45422  0.00000  0.09156
      22     H     0.45487  0.45487  0.00000  0.09027
      23     H     0.44831  0.44831  0.00000  0.10338
      24     H     0.45499  0.45499  0.00000  0.09001
      25     H     0.45533  0.45533  0.00000  0.08933
      26     C     3.03804  3.03804  0.00000 -0.07608
      27     H     0.45431  0.45431  0.00000  0.09138
      28     H     0.44528  0.44528  0.00000  0.10943
      29     H     0.45422  0.45422  0.00000  0.09157

   Total alpha = 44.00000, Total beta = 44.00000, Total charge =  0.00000

*** Psi4 exiting successfully. Buy a developer a beer!
