  ==> Input File <==

--------------------------------------------------------------------------
set {
	reference rhf
	basis 6-31G*
}

set_num_threads( 4 )
memory 2 gb

molecule MOL {
0 1

O	 -1.538864	 -0.435263	 -2.213648
C	 -1.988860	 -0.794638	 -1.172990
C	 -3.197117	 -1.686062	 -1.043581
O	 -1.481751	 -0.454642	 0.000584
H	 -3.003079	 -2.613541	 -1.568933
H	 -3.437092	 -1.892147	 -0.010925
H	 -4.038113	 -1.204687	 -1.528230
C	 -0.334255	 0.388708	 0.000906
C	 0.891947	 -0.504646	 0.000751
H	 -0.365390	 1.025305	 -0.873475
H	 -0.365484	 1.024911	 0.875569
C	 2.191998	 0.301789	 0.000897
H	 0.855148	 -1.151283	 -0.871571
H	 0.855132	 -1.151660	 0.872805
C	 3.441114	 -0.581407	 0.000108
H	 2.215074	 0.954890	 -0.869742
H	 2.215465	 0.953923	 0.872248
C	 4.739576	 0.224112	 -0.001102
H	 3.419457	 -1.233487	 -0.870178
H	 3.420834	 -1.233096	 0.870717
H	 4.804918	 0.861552	 -0.878265
H	 5.606527	 -0.429058	 -0.001824
H	 4.806469	 0.861674	 0.875853

	symmetry c1
}
set optking {
	frozen_dihedral = ("
		2 4 8 10
	")
}

ee = optimize('scf')
oeprop('DIPOLE', 'QUADRUPOLE', 'MULLIKEN_CHARGES')
f=open( 'psi4out.xyz', 'w' )
f.write( "23  " )
f.write( str(ee) + "\n" )
f.write( MOL.save_string_xyz() )
f.close()
--------------------------------------------------------------------------

    Molecular point group: c1
  Charge       = 0
  Multiplicity = 1
  Basis Set: 6-31G*
  Basis Set:
  @DF-RHF Final Energy:  -422.97737003158511
    Total Energy =                       -422.9773700315842007
    Molecular point group: c1
  Basis Set: 6-31G*
  Basis Set:
  Basis Set: 6-31G*
  Basis Set:
  @DF-RHF Final Energy:  -422.97838600504184
    Total Energy =                       -422.9783860050420117
  Basis Set: 6-31G*
  Basis Set:
  Basis Set: 6-31G*
  Basis Set:
  @DF-RHF Final Energy:  -422.97565319549744
    Total Energy =                       -422.9756531954973298
  Basis Set: 6-31G*
  Basis Set:
  Basis Set: 6-31G*
  Basis Set:
  @DF-RHF Final Energy:  -422.97868076533160
    Total Energy =                       -422.9786807653321148
  Basis Set: 6-31G*
  Basis Set:
  Basis Set: 6-31G*
  Basis Set:
  @DF-RHF Final Energy:  -422.97870437036289
    Total Energy =                       -422.9787043703623794
  Basis Set: 6-31G*
  Basis Set:
  Charge       = 0
  Multiplicity = 1
  Basis Set: 6-31G*
  Basis Set:

    Orbital Energies (a.u.)
    -----------------------

    Doubly Occupied:

       1A    -20.602712     2A    -20.540749     3A    -11.375583
       4A    -11.280770     5A    -11.232307     6A    -11.222152
       7A    -11.220969     8A    -11.219738     9A    -11.211436
      10A     -1.466764    11A     -1.361221    12A     -1.091579
      13A     -1.040870    14A     -1.002349    15A     -0.931099
      16A     -0.849616    17A     -0.798988    18A     -0.766992
      19A     -0.699517    20A     -0.678287    21A     -0.655240
      22A     -0.649749    23A     -0.603988    24A     -0.589158
      25A     -0.584611    26A     -0.572766    27A     -0.549647
      28A     -0.539245    29A     -0.522319    30A     -0.511395
      31A     -0.485829    32A     -0.477576    33A     -0.474307
      34A     -0.468825    35A     -0.437515    36A     -0.436081

  @DF-RHF Final Energy:  -422.97870462836994

   => Energetics <=

    Nuclear Repulsion Energy =            455.4165139759193721
    One-Electron Energy =               -1478.4865409446838385
    Two-Electron Energy =                 600.0913223403936172
    DFT Exchange-Correlation Energy =       0.0000000000000000
    Empirical Dispersion Energy =           0.0000000000000000
    PCM Polarization Energy =               0.0000000000000000
    EFP Energy =                            0.0000000000000000
    Total Energy =                       -422.9787046283709060
    Molecular point group: c1
  Basis Set: 6-31G*
  Basis Set:

  -Total Gradient:
     Atom            X                  Y                   Z
    ------   -----------------  -----------------  -----------------
       1       -0.000004881296    -0.000003787022     0.000025109052
       2       -0.000542992065     0.000778243191    -0.000003449418
       3       -0.000009534850     0.000015310594    -0.000000145307
       4        0.000941845126    -0.001433175868    -0.000153191724
       5        0.000004164318     0.000005798708     0.000002685214
       6        0.000003508330     0.000002930186    -0.000006696683
       7       -0.000018793751    -0.000010080226    -0.000004662892
       8       -0.000905030369     0.001453032075     0.000745831570
       9       -0.000047586917    -0.000012033220     0.000028870724
      10        0.000559991052    -0.000776901991    -0.000583885823
      11        0.000023769871    -0.000001520251    -0.000007746487
      12       -0.000042202574     0.000006313334    -0.000010956916
      13       -0.000007385315     0.000015915446    -0.000009977671
      14        0.000028567468    -0.000032931659    -0.000011052635
      15        0.000002391759    -0.000009767495     0.000013495045
      16        0.000013231633    -0.000002951686    -0.000016232764
      17       -0.000011327630     0.000005740860    -0.000027240636
      18        0.000008713421    -0.000005413246     0.000016590421
      19        0.000000629862     0.000016245479     0.000002323121
      20       -0.000000063387    -0.000011342412    -0.000001821170
      21       -0.000003825682    -0.000003543207     0.000000074718
      22        0.000004196943     0.000002694970     0.000002309525
      23        0.000002614060     0.000001223441    -0.000000229263

  **** Optimization is complete! (in 6 steps) ****
    Final optimized geometry and variables:
    Molecular point group: c1

    Geometry (in Angstrom), charge = 0, multiplicity = 1:

    O           -1.905818769938    -0.102833323261    -1.743955037152
    C           -2.331057194598    -0.410745606925    -0.676443335447
    C           -3.578125749658    -1.233915849414    -0.480482603444
    O           -1.766958361831    -0.072841681188     0.472519370444
    H           -3.452286780743    -2.182205248067    -0.989162219455
    H           -3.789710318948    -1.402593250407     0.564978299045
    H           -4.410150930136    -0.720005431615    -0.946965915661
    C           -0.589587448376     0.731070730061     0.445911137092
    C            0.659003385572    -0.136415875085     0.452671134907
    H           -0.612296485632     1.367725920795    -0.425003350996
    H           -0.645928961523     1.339870225241     1.337737395455
    C            1.938791525429     0.700127227859     0.505179794744
    H            0.658982921277    -0.755072135879    -0.439780011122
    H            0.616263434818    -0.805996970490     1.307684509881
    C            3.208837694036    -0.152623891059     0.519691106000
    H            1.968452387234     1.371163227160    -0.351330650212
    H            1.923717223543     1.333793610591     1.390711752207
    C            4.486735853626     0.683455862834     0.573766975059
    H            3.226875535881    -0.783609038339    -0.365861711484
    H            3.180416097589    -0.825163293574     1.374157425524
    H            4.560657017694     1.342569752112    -0.286497498013
    H            5.369163096252     0.051374356583     0.582594568445
    H            4.513855016851     1.301666493223     1.466690563940

  Mulliken Charges: (a.u.)
   Center  Symbol    Alpha    Beta     Spin     Total
       1     O     4.28519  4.28519  0.00000 -0.57037
       2     C     2.61517  2.61517  0.00000  0.76967
       3     C     3.28800  3.28800  0.00000 -0.57601
       4     O     4.31315  4.31315  0.00000 -0.62630
       5     H     0.39770  0.39770  0.00000  0.20460
       6     H     0.39961  0.39961  0.00000  0.20078
       7     H     0.39746  0.39746  0.00000  0.20507
       8     C     3.00313  3.00313  0.00000 -0.00625
       9     C     3.16763  3.16763  0.00000 -0.33526
      10     H     0.40006  0.40006  0.00000  0.19988
      11     H     0.41130  0.41130  0.00000  0.17740
      12     C     3.16116  3.16116  0.00000 -0.32232
      13     H     0.40871  0.40871  0.00000  0.18258
      14     H     0.41611  0.41611  0.00000  0.16778
      15     C     3.15138  3.15138  0.00000 -0.30276
      16     H     0.41890  0.41890  0.00000  0.16221
      17     H     0.42306  0.42306  0.00000  0.15388
      18     C     3.23987  3.23987  0.00000 -0.47975
      19     H     0.42007  0.42007  0.00000  0.15986
      20     H     0.42202  0.42202  0.00000  0.15597
      21     H     0.42053  0.42053  0.00000  0.15894
      22     H     0.41814  0.41814  0.00000  0.16371
      23     H     0.42166  0.42166  0.00000  0.15668

   Total alpha = 36.00000, Total beta = 36.00000, Total charge =  0.00000
