  ==> Input File <==

--------------------------------------------------------------------------
set {
	reference rhf
	basis cc-pvtz
}

set_num_threads( 4 )
memory 2 gb

molecule MOL {
0 1

H	 0.223516	 -1.348409	 -1.049167
C	 -0.674835	 -1.475225	 -0.449362
O	 -1.401606	 -0.295183	 -0.366624
H	 -1.303363	 -2.218544	 -0.917676
H	 -0.382672	 -1.835010	 0.535564
C	 -0.718530	 0.758693	 0.228682
C	 0.718529	 0.758687	 -0.228709
H	 -1.176498	 1.708665	 -0.046615
H	 -0.748705	 0.673525	 1.312779
O	 1.401606	 -0.295166	 0.366636
H	 0.748705	 0.673477	 -1.312803
H	 1.176496	 1.708671	 0.046552
C	 2.714315	 -0.441627	 -0.061017
H	 2.765292	 -0.641548	 -1.128869
H	 3.305661	 0.447341	 0.150952
H	 3.143725	 -1.278506	 0.470147

	symmetry c1
}
set optking {
	frozen_dihedral = ("
		2 3 6 7
	")
}

ee = optimize('scf')
oeprop('DIPOLE', 'QUADRUPOLE', 'MULLIKEN_CHARGES')
f=open( 'psi4out.xyz', 'w' )
f.write( "16  " )
f.write( str(ee) + "\n" )
f.write( MOL.save_string_xyz() )
f.close()
--------------------------------------------------------------------------

    Molecular point group: c1
  Charge       = 0
  Multiplicity = 1
  Basis Set: CC-PVTZ
  Basis Set:
  @DF-RHF Final Energy:  -307.07937050365450
    Total Energy =                       -307.0793705036541041
    Molecular point group: c1
  Basis Set: CC-PVTZ
  Basis Set:
  Basis Set: CC-PVTZ
  Basis Set:
  @DF-RHF Final Energy:  -307.08848335702862
    Total Energy =                       -307.0884833570287924
  Basis Set: CC-PVTZ
  Basis Set:
  Basis Set: CC-PVTZ
  Basis Set:
  @DF-RHF Final Energy:  -307.09134019403888
    Total Energy =                       -307.0913401940390486
  Basis Set: CC-PVTZ
  Basis Set:
  Basis Set: CC-PVTZ
  Basis Set:
  @DF-RHF Final Energy:  -307.09226694305642
    Total Energy =                       -307.0922669430560745
  Basis Set: CC-PVTZ
  Basis Set:
  Basis Set: CC-PVTZ
  Basis Set:
  @DF-RHF Final Energy:  -307.09264691734859
    Total Energy =                       -307.0926469173488158
  Basis Set: CC-PVTZ
  Basis Set:
  Basis Set: CC-PVTZ
  Basis Set:
  @DF-RHF Final Energy:  -307.09278663166128
    Total Energy =                       -307.0927866316615109
  Basis Set: CC-PVTZ
  Basis Set:
  Basis Set: CC-PVTZ
  Basis Set:
  @DF-RHF Final Energy:  -307.09279546089994
    Total Energy =                       -307.0927954608995378
  Basis Set: CC-PVTZ
  Basis Set:
  Charge       = 0
  Multiplicity = 1
  Basis Set: CC-PVTZ
  Basis Set:

    Orbital Energies (a.u.)
    -----------------------

    Doubly Occupied:

       1A    -20.557183     2A    -20.542447     3A    -11.273244
       4A    -11.269463     5A    -11.266869     6A    -11.253413
       7A     -1.394870     8A     -1.369549     9A     -1.029898
      10A     -0.950887    11A     -0.894668    12A     -0.815710
      13A     -0.695351    14A     -0.682830    15A     -0.658079
      16A     -0.636110    17A     -0.628360    18A     -0.596388
      19A     -0.553374    20A     -0.542630    21A     -0.519170
      22A     -0.491973    23A     -0.453681    24A     -0.426260
      25A     -0.408165

  @DF-RHF Final Energy:  -307.09279583939872

   => Energetics <=

    Nuclear Repulsion Energy =            264.9139110446384393
    One-Electron Energy =                -944.1922735122724362
    Two-Electron Energy =                 372.1855666282352217
    DFT Exchange-Correlation Energy =       0.0000000000000000
    Empirical Dispersion Energy =           0.0000000000000000
    PCM Polarization Energy =               0.0000000000000000
    EFP Energy =                            0.0000000000000000
    Total Energy =                       -307.0927958393987751
    Molecular point group: c1
  Basis Set: CC-PVTZ
  Basis Set:

  -Total Gradient:
     Atom            X                  Y                   Z
    ------   -----------------  -----------------  -----------------
       1        0.000013139666    -0.000033375476    -0.000013871626
       2        0.001204121725     0.001107620769    -0.003772338395
       3       -0.001286682553    -0.002699780451     0.006939548184
       4       -0.000007716693     0.000002997879     0.000011139528
       5       -0.000013611440     0.000004468764     0.000005663591
       6       -0.000853531748     0.003919753709    -0.005885388764
       7        0.000930588313    -0.002295028785     0.002717606947
       8       -0.000012989623    -0.000004592096     0.000002018907
       9       -0.000000445342    -0.000003585503     0.000002317407
      10       -0.000019730325     0.000031187497    -0.000006426068
      11        0.000011803363    -0.000002352476    -0.000005567032
      12       -0.000009938981    -0.000001145736    -0.000001505391
      13        0.000057940713    -0.000030761660     0.000002173069
      14       -0.000014073381     0.000006319293     0.000008899060
      15       -0.000012152683    -0.000001512910    -0.000002314140
      16        0.000013278983    -0.000000212817    -0.000001955277

  **** Optimization is complete! (in 8 steps) ****
    Final optimized geometry and variables:
    Molecular point group: c1

    Geometry (in Angstrom), charge = 0, multiplicity = 1:

    H           -0.546458846351    -1.416380612379    -1.174032018872
    C           -1.334813570637    -1.395886992707    -0.430453704698
    O           -1.845292801916    -0.113210716528    -0.236481229479
    H           -2.156056238972    -2.003896182503    -0.782416254514
    H           -0.947130425886    -1.821410462721     0.489076648507
    C           -1.019332810808     0.874390263234     0.301806205670
    C            0.421146669693     0.906370117051    -0.171374869341
    H           -1.483691254409     1.817142339904     0.043952097815
    H           -1.004869779988     0.794099983666     1.387058462907
    O            1.173075335658    -0.075950986973     0.467595692827
    H            0.470026061585     0.786259504512    -1.252675692662
    H            0.824015644067     1.890705282240     0.064151987298
    C            2.511422594410    -0.105794028316     0.094491982173
    H            2.625042206846    -0.315507517203    -0.966766558296
    H            3.005628227666     0.838343535450     0.312790628095
    H            2.994891240614    -0.890172485016     0.658121548483

  Mulliken Charges: (a.u.)
   Center  Symbol    Alpha    Beta     Spin     Total
       1     H     0.47286  0.47286  0.00000  0.05428
       2     C     3.02796  3.02796  0.00000 -0.05592
       3     O     4.18025  4.18025  0.00000 -0.36050
       4     H     0.44726  0.44726  0.00000  0.10548
       5     H     0.46622  0.46622  0.00000  0.06756
       6     C     2.96841  2.96841  0.00000  0.06319
       7     C     2.99951  2.99951  0.00000  0.00098
       8     H     0.45544  0.45544  0.00000  0.08911
       9     H     0.46735  0.46735  0.00000  0.06530
      10     O     4.17545  4.17545  0.00000 -0.35089
      11     H     0.46243  0.46243  0.00000  0.07513
      12     H     0.45914  0.45914  0.00000  0.08173
      13     C     3.03387  3.03387  0.00000 -0.06774
      14     H     0.47005  0.47005  0.00000  0.05990
      15     H     0.46833  0.46833  0.00000  0.06333
      16     H     0.44547  0.44547  0.00000  0.10906

   Total alpha = 25.00000, Total beta = 25.00000, Total charge = -0.00000
