                              Psi4 1.0.54 Driver

  ==> Input File <==

--------------------------------------------------------------------------
set {
	reference rhf
	basis cc-pvtz
}

set_num_threads( 4 )
memory 2 gb

molecule MOL {
0 1

H	 -0.301968	 -1.374119	 -4.794192
O	 -0.462313	 -2.230407	 -5.144748
C	 0.097410	 -3.209608	 -4.309794
C	 -0.662862	 -3.401631	 -3.006030
H	 0.077914	 -4.129276	 -4.878838
H	 1.141152	 -2.980701	 -4.103266
C	 -0.629443	 -2.190728	 -2.076274
H	 -1.692538	 -3.654374	 -3.240647
H	 -0.235816	 -4.260400	 -2.493637
C	 -1.374743	 -2.432052	 -0.764357
H	 -1.061633	 -1.335706	 -2.585344
H	 0.405451	 -1.933909	 -1.856443
C	 -1.311023	 -1.277304	 0.237018
H	 -2.415100	 -2.661339	 -0.981869
H	 -0.962682	 -3.319318	 -0.291670
C	 -2.041121	 -0.006551	 -0.194127
H	 -1.736117	 -1.617636	 1.177230
H	 -0.270025	 -1.040700	 0.445575
C	 -3.489218	 0.042606	 0.286507
H	 -2.022185	 0.066287	 -1.279394
H	 -1.518764	 0.869305	 0.178730
C	 -4.219984	 1.311773	 -0.139038
H	 -4.022855	 -0.824300	 -0.093339
H	 -3.510372	 -0.038577	 1.370031
H	 -4.244251	 1.405725	 -1.219696
H	 -5.244345	 1.313233	 0.215630
H	 -3.732090	 2.196311	 0.257073

	symmetry c1
}
set optking {
	frozen_dihedral = ("
		10 13 16 20
	")
}

ee,wfn = optimize('scf', return_wfn=True)
oeprop( wfn, 'DIPOLE', 'QUADRUPOLE', 'MULLIKEN_CHARGES')
f=open( 'psi4out.xyz', 'w' )
f.write( "27  " )
f.write( str(ee) + "\n" )
f.write( MOL.save_string_xyz() )
f.close()
--------------------------------------------------------------------------

    Molecular point group: c1
  Charge       = 0
  Multiplicity = 1
  Basis Set: CC-PVTZ
  Basis Set:
  @DF-RHF Final Energy:  -388.42385858613824
    Total Energy =                       -388.4238585861372712
    Molecular point group: c1
  Basis Set: CC-PVTZ
  Basis Set:
  Basis Set: CC-PVTZ
  Basis Set:
  @DF-RHF Final Energy:  -388.42363001912992
    Total Energy =                       -388.4236300191306555
  Basis Set: CC-PVTZ
  Basis Set:
  Basis Set: CC-PVTZ
  Basis Set:
  @DF-RHF Final Energy:  -388.42431817327372
    Total Energy =                       -388.4243181732738321
  Basis Set: CC-PVTZ
  Basis Set:
  Basis Set: CC-PVTZ
  Basis Set:
  @DF-RHF Final Energy:  -388.42440281899405
    Total Energy =                       -388.4244028189935989
  Basis Set: CC-PVTZ
  Basis Set:
  Basis Set: CC-PVTZ
  Basis Set:
  @DF-RHF Final Energy:  -388.42444725236987
    Total Energy =                       -388.4244472523696459
  Basis Set: CC-PVTZ
  Basis Set:
  Basis Set: CC-PVTZ
  Basis Set:
  @DF-RHF Final Energy:  -388.42445225039722
    Total Energy =                       -388.4244522503963708
  Basis Set: CC-PVTZ
  Basis Set:
  Charge       = 0
  Multiplicity = 1
  Basis Set: CC-PVTZ
  Basis Set:

    Orbital Energies (a.u.)
    -----------------------

    Doubly Occupied:

       1A    -20.545567     2A    -11.265159     3A    -11.216884
       4A    -11.214840     5A    -11.213399     6A    -11.213237
       7A    -11.212999     8A    -11.211664     9A    -11.206492
      10A     -1.363485    11A     -1.095848    12A     -1.061629
      13A     -1.011230    14A     -0.949159    15A     -0.887246
      16A     -0.825732    17A     -0.803051    18A     -0.773108
      19A     -0.696704    20A     -0.654957    21A     -0.631046
      22A     -0.613797    23A     -0.606403    24A     -0.590394
      25A     -0.576219    26A     -0.561680    27A     -0.534588
      28A     -0.529413    29A     -0.507066    30A     -0.494136
      31A     -0.485965    32A     -0.482291    33A     -0.468177
      34A     -0.452619    35A     -0.448252    36A     -0.446122
      37A     -0.426445

  @DF-RHF Final Energy:  -388.42445287310721

   => Energetics <=

    Nuclear Repulsion Energy =            463.5468700542505189
    One-Electron Energy =               -1445.3886200451479453
    Two-Electron Energy =                 593.4172971177904401
    DFT Exchange-Correlation Energy =       0.0000000000000000
    Empirical Dispersion Energy =           0.0000000000000000
    PCM Polarization Energy =               0.0000000000000000
    EFP Energy =                            0.0000000000000000
    Total Energy =                       -388.4244528731069295
    Molecular point group: c1
  Basis Set: CC-PVTZ
  Basis Set:

  -Total Gradient:
     Atom            X                  Y                   Z
    ------   -----------------  -----------------  -----------------
       1        0.000003082283    -0.000060953913    -0.000002883873
       2        0.000017399732    -0.000031670157     0.000016765780
       3        0.000019001383     0.000037495509     0.000027856018
       4       -0.000033573429     0.000002897033    -0.000028412943
       5       -0.000007040006     0.000044096202    -0.000001692784
       6       -0.000026296770     0.000008409513    -0.000016978716
       7        0.000024396130     0.000000411847    -0.000009194600
       8        0.000017475894    -0.000001634254     0.000010760529
       9       -0.000011292217     0.000035162925    -0.000011780741
      10        0.001505009161     0.000784758741    -0.000985594080
      11        0.000017767544    -0.000059447249     0.000009021579
      12       -0.000016709471     0.000003453268    -0.000001649166
      13       -0.002634832423    -0.001487786205     0.001427373027
      14        0.000010085242     0.000019244608     0.000005608535
      15       -0.000003113363     0.000004851823     0.000002141463
      16        0.003253888911     0.002290227295    -0.000497771250
      17        0.000004424447    -0.000013040183     0.000004803176
      18       -0.000006624853    -0.000016630317    -0.000011559011
      19       -0.000020952346    -0.000001510349    -0.000030856729
      20       -0.002154778043    -0.001553726323     0.000120618206
      21       -0.000011537147     0.000006642789    -0.000014346678
      22        0.000026410795    -0.000000404514     0.000002016228
      23        0.000006379240     0.000030541831     0.000011345227
      24       -0.000002784407     0.000007832332    -0.000074201292
      25        0.000015977351    -0.000011623717     0.000069896696
      26        0.000012646244    -0.000003733901    -0.000002778339
      27       -0.000004409878    -0.000033864630    -0.000018506261

  **** Optimization is complete! (in 7 steps) ****
    Final optimized geometry and variables:
    Molecular point group: c1

    Geometry (in Angstrom), charge = 0, multiplicity = 1:

    H            1.489833830090     0.200193552890    -3.031380258283
    O            1.275678490923    -0.632238461412    -3.409187533462
    C            1.740326204303    -1.671627898939    -2.588924010910
    C            0.927893131022    -1.847314664771    -1.314794114550
    H            1.675834314855    -2.570977120404    -3.186324283639
    H            2.790121777354    -1.521608505846    -2.344828449026
    C            1.006428279768    -0.663765627762    -0.353397957063
    H           -0.107238216385    -2.029212474071    -1.587353520190
    H            1.284125269975    -2.743466780852    -0.812412012516
    C            0.234069549181    -0.899176126074     0.943737164122
    H            0.627603293811     0.225724331283    -0.846151841630
    H            2.048714032042    -0.464876063971    -0.111433943714
    C            0.273834112073     0.278587269831     1.922541401002
    H           -0.798157323836    -1.145618024983     0.707862921407
    H            0.647095304942    -1.776240933791     1.433847994702
    C           -0.614351826250     1.471012094915     1.533388293040
    H           -0.016596353015    -0.067986296641     2.909305090510
    H            1.304888310745     0.607665220471     2.015427126271
    C           -2.024138013100     1.388377037636     2.119245313491
    H           -0.702320713313     1.531543464364     0.453156823717
    H           -0.154179631663     2.397944560016     1.860412210356
    C           -2.924152405155     2.537440460492     1.678371902597
    H           -2.481455580602     0.444910847774     1.834354676121
    H           -1.958190567782     1.378287221242     3.203537394814
    H           -3.045824812287     2.548528614448     0.600378145464
    H           -3.910358943955     2.456908702405     2.121016516784
    H           -2.507330653226     3.495272537005     1.971960288814

  Mulliken Charges: (a.u.)
   Center  Symbol    Alpha    Beta     Spin     Total
       1     H     0.39210  0.39210  0.00000  0.21579
       2     O     4.20569  4.20569  0.00000 -0.41139
       3     C     2.98016  2.98016  0.00000  0.03968
       4     C     3.08928  3.08928  0.00000 -0.17856
       5     H     0.44856  0.44856  0.00000  0.10287
       6     H     0.46920  0.46920  0.00000  0.06160
       7     C     3.10164  3.10164  0.00000 -0.20329
       8     H     0.45069  0.45069  0.00000  0.09863
       9     H     0.45516  0.45516  0.00000  0.08968
      10     C     3.09781  3.09781  0.00000 -0.19561
      11     H     0.45594  0.45594  0.00000  0.08812
      12     H     0.45355  0.45355  0.00000  0.09290
      13     C     3.10935  3.10935  0.00000 -0.21869
      14     H     0.45161  0.45161  0.00000  0.09678
      15     H     0.44751  0.44751  0.00000  0.10497
      16     C     3.09633  3.09633  0.00000 -0.19267
      17     H     0.44726  0.44726  0.00000  0.10547
      18     H     0.44756  0.44756  0.00000  0.10488
      19     C     3.08136  3.08136  0.00000 -0.16273
      20     H     0.45475  0.45475  0.00000  0.09051
      21     H     0.44752  0.44752  0.00000  0.10496
      22     C     3.15044  3.15044  0.00000 -0.30088
      23     H     0.45430  0.45430  0.00000  0.09141
      24     H     0.45393  0.45393  0.00000  0.09215
      25     H     0.45491  0.45491  0.00000  0.09017
      26     H     0.44820  0.44820  0.00000  0.10360
      27     H     0.45518  0.45518  0.00000  0.08964

   Total alpha = 37.00000, Total beta = 37.00000, Total charge = -0.00000

*** Psi4 exiting successfully. Buy a developer a beer!
