  ==> Input File <==

--------------------------------------------------------------------------
set {
	reference rhf
	basis 6-31G*
}

set_num_threads( 4 )
memory 2 gb

molecule MOL {
0 1

H	 -2.189604	 0.743646	 2.369166
C	 -1.642376	 0.159036	 3.105992
O	 -0.422035	 -0.280173	 2.602801
H	 -1.435557	 0.783072	 3.964448
H	 -2.269563	 -0.674254	 3.420144
C	 -0.529519	 -1.107745	 1.487982
C	 0.852516	 -1.428663	 0.969139
H	 -1.037135	 -2.035892	 1.753626
H	 -1.104646	 -0.624201	 0.700951
O	 1.392611	 -0.295398	 0.366430
H	 1.477051	 -1.762605	 1.795242
H	 0.784263	 -2.244221	 0.248099
C	 2.706965	 -0.449871	 -0.062409
H	 2.756559	 -0.644779	 -1.131878
H	 3.305899	 0.433456	 0.155466
H	 3.125548	 -1.294566	 0.467107

	symmetry c1
}
set optking {
	frozen_dihedral = ("
		7 10 13 14
	")
}

ee = optimize('scf')
oeprop('DIPOLE', 'QUADRUPOLE', 'MULLIKEN_CHARGES')
f=open( 'psi4out.xyz', 'w' )
f.write( "16  " )
f.write( str(ee) + "\n" )
f.write( MOL.save_string_xyz() )
f.close()
--------------------------------------------------------------------------

    Molecular point group: c1
  Charge       = 0
  Multiplicity = 1
  Basis Set: 6-31G*
  Basis Set:
  @DF-RHF Final Energy:  -306.97335393030517
    Total Energy =                       -306.9733539303049383
    Molecular point group: c1
  Basis Set: 6-31G*
  Basis Set:
  Basis Set: 6-31G*
  Basis Set:
  @DF-RHF Final Energy:  -306.97445588636782
    Total Energy =                       -306.9744558863679345
  Basis Set: 6-31G*
  Basis Set:
  Basis Set: 6-31G*
  Basis Set:
  @DF-RHF Final Energy:  -306.97480703339323
    Total Energy =                       -306.9748070333932901
  Basis Set: 6-31G*
  Basis Set:
  Basis Set: 6-31G*
  Basis Set:
  @DF-RHF Final Energy:  -306.97481071552914
    Total Energy =                       -306.9748107155291450
  Basis Set: 6-31G*
  Basis Set:
  Charge       = 0
  Multiplicity = 1
  Basis Set: 6-31G*
  Basis Set:

    Orbital Energies (a.u.)
    -----------------------

    Doubly Occupied:

       1A    -20.553225     2A    -20.550664     3A    -11.269225
       4A    -11.268138     5A    -11.263313     6A    -11.262967
       7A     -1.386371     8A     -1.368139     9A     -1.030614
      10A     -0.936251    11A     -0.891802    12A     -0.823567
      13A     -0.682623    14A     -0.679162    15A     -0.656288
      16A     -0.634579    17A     -0.628166    18A     -0.596348
      19A     -0.553302    20A     -0.536453    21A     -0.508505
      22A     -0.476994    23A     -0.461682    24A     -0.417914
      25A     -0.407601

  @DF-RHF Final Energy:  -306.97481106242884

   => Energetics <=

    Nuclear Repulsion Energy =            258.6231558669630317
    One-Electron Energy =                -931.5081471472627754
    Two-Electron Energy =                 365.9101802178710159
    DFT Exchange-Correlation Energy =       0.0000000000000000
    Empirical Dispersion Energy =           0.0000000000000000
    PCM Polarization Energy =               0.0000000000000000
    EFP Energy =                            0.0000000000000000
    Total Energy =                       -306.9748110624287847
    Molecular point group: c1
  Basis Set: 6-31G*
  Basis Set:

  -Total Gradient:
     Atom            X                  Y                   Z
    ------   -----------------  -----------------  -----------------
       1       -0.000000288774    -0.000000240209    -0.000000197423
       2        0.000001015165     0.000000458580     0.000001999468
       3        0.000001365036    -0.000004398758    -0.000004445092
       4       -0.000001480480     0.000000605679     0.000000282040
       5        0.000000071175    -0.000000003874    -0.000000611740
       6       -0.000004309955    -0.000007137584     0.000002017885
       7        0.000695976537     0.000687061795     0.002024440099
       8       -0.000003647327    -0.000001441717     0.000001673299
       9        0.000003801639    -0.000002160169    -0.000001691959
      10       -0.000984878278    -0.000225767676    -0.003012902495
      11        0.000001563529    -0.000001496158     0.000000994213
      12        0.000001243334     0.000009689063    -0.000002209941
      13        0.000156220957    -0.003176578598     0.001449528432
      14        0.000118935803     0.002721642463    -0.000454923198
      15        0.000011694065    -0.000001528205    -0.000003067900
      16        0.000002717575     0.000001295367    -0.000000885687

  **** Optimization is complete! (in 5 steps) ****
    Final optimized geometry and variables:
    Molecular point group: c1

    Geometry (in Angstrom), charge = 0, multiplicity = 1:

    H           -2.565318382661     1.333966933684     0.953402091172
    C           -2.027648458770     0.739892409127     1.689705038298
    O           -0.814561386427     0.281320420650     1.186254145103
    H           -1.811052519365     1.359651924348     2.548856941071
    H           -2.668138070281    -0.083599899461     2.002709718871
    C           -0.935402471505    -0.543631423988     0.070779925094
    C            0.441064856827    -0.885725731142    -0.449592332564
    H           -1.456797873556    -1.464258829158     0.336156004509
    H           -1.504123689520    -0.050885409598    -0.715061285120
    O            0.998654409150     0.244611624664    -1.043322962456
    H            1.058493634867    -1.232831323795     0.375339998849
    H            0.355516849508    -1.698081545383    -1.172302229041
    C            2.322386118773     0.117165134023    -1.466461444398
    H            2.369889331998    -0.065699282266    -2.536964335045
    H            2.833602167322     1.050077976400    -1.262694788701
    H            2.842841153649    -0.680990327801    -0.945532496081

  Mulliken Charges: (a.u.)
   Center  Symbol    Alpha    Beta     Spin     Total
       1     H     0.42809  0.42809  0.00000  0.14383
       2     C     3.07943  3.07943  0.00000 -0.15886
       3     O     4.30087  4.30087  0.00000 -0.60174
       4     H     0.41140  0.41140  0.00000  0.17720
       5     H     0.43196  0.43196  0.00000  0.13608
       6     C     2.99359  2.99359  0.00000  0.01283
       7     C     2.99294  2.99294  0.00000  0.01411
       8     H     0.43243  0.43243  0.00000  0.13515
       9     H     0.42276  0.42276  0.00000  0.15448
      10     O     4.30467  4.30467  0.00000 -0.60934
      11     H     0.42216  0.42216  0.00000  0.15567
      12     H     0.43265  0.43265  0.00000  0.13470
      13     C     3.07646  3.07646  0.00000 -0.15292
      14     H     0.42602  0.42602  0.00000  0.14796
      15     H     0.41455  0.41455  0.00000  0.17090
      16     H     0.43002  0.43002  0.00000  0.13995

   Total alpha = 25.00000, Total beta = 25.00000, Total charge = -0.00000
