                              Psi4 1.0.54 Driver

  ==> Input File <==

--------------------------------------------------------------------------
set {
	reference rhf
	basis cc-pvtz
}

set_num_threads( 4 )
memory 2 gb

molecule MOL {
0 1

H	 -2.498963	 -0.741158	 -0.729149
O	 -2.346257	 -0.289210	 0.080372
C	 -1.183935	 0.486039	 -0.009831
C	 0.062853	 -0.375310	 0.027457
H	 -1.178881	 1.094526	 -0.908634
H	 -1.184406	 1.155156	 0.838676
O	 1.155058	 0.447570	 0.275261
H	 0.184150	 -0.895872	 -0.923962
H	 -0.041049	 -1.131838	 0.802340
C	 2.372080	 -0.216986	 0.367152
H	 2.611650	 -0.737203	 -0.557648
H	 3.137894	 0.519848	 0.560259
H	 2.369092	 -0.941028	 1.178494

	symmetry c1
}
set optking {
	frozen_dihedral = ("
		8 4 3 5
	")
}

ee,wfn = optimize('scf', return_wfn=True)
oeprop( wfn, 'DIPOLE', 'QUADRUPOLE', 'MULLIKEN_CHARGES')
f=open( 'psi4out.xyz', 'w' )
f.write( "13  " )
f.write( str(ee) + "\n" )
f.write( MOL.save_string_xyz() )
f.close()
--------------------------------------------------------------------------

    Molecular point group: c1
  Charge       = 0
  Multiplicity = 1
  Basis Set: CC-PVTZ
  Basis Set:
  @DF-RHF Final Energy:  -268.06141325848262
    Total Energy =                       -268.0614132584825029
    Molecular point group: c1
  Basis Set: CC-PVTZ
  Basis Set:
  Basis Set: CC-PVTZ
  Basis Set:
  @DF-RHF Final Energy:  -268.06154869691363
    Total Energy =                       -268.0615486969135759
  Basis Set: CC-PVTZ
  Basis Set:
  Basis Set: CC-PVTZ
  Basis Set:
  @DF-RHF Final Energy:  -268.06158023481100
    Total Energy =                       -268.0615802348108900
  Basis Set: CC-PVTZ
  Basis Set:
  Charge       = 0
  Multiplicity = 1
  Basis Set: CC-PVTZ
  Basis Set:

    Orbital Energies (a.u.)
    -----------------------

    Doubly Occupied:

       1A    -20.555182     2A    -20.552280     3A    -11.268948
       4A    -11.267696     5A    -11.267242     6A     -1.390965
       7A     -1.368276     8A     -1.019296     9A     -0.913324
      10A     -0.842427    11A     -0.712074    12A     -0.674352
      13A     -0.663308    14A     -0.641835    15A     -0.591417
      16A     -0.572404    17A     -0.548532    18A     -0.490692
      19A     -0.483301    20A     -0.441565    21A     -0.424413

  @DF-RHF Final Energy:  -268.06158110438469

   => Energetics <=

    Nuclear Repulsion Energy =            190.4292204957368995
    One-Electron Energy =                -743.6025455340241024
    Two-Electron Energy =                 285.1117439339026873
    DFT Exchange-Correlation Energy =       0.0000000000000000
    Empirical Dispersion Energy =           0.0000000000000000
    PCM Polarization Energy =               0.0000000000000000
    EFP Energy =                            0.0000000000000000
    Total Energy =                       -268.0615811043845156
    Molecular point group: c1
  Basis Set: CC-PVTZ
  Basis Set:

  -Total Gradient:
     Atom            X                  Y                   Z
    ------   -----------------  -----------------  -----------------
       1       -0.000020175026    -0.000038499439     0.000006829764
       2       -0.000013813007     0.000027149354    -0.000052622836
       3        0.002019548528     0.003196956392     0.001642958846
       4       -0.002216642122    -0.003234247345     0.000900926817
       5       -0.001365030579    -0.002137868024    -0.001475843001
       6        0.000041735732     0.000000905833     0.000005500616
       7       -0.000049753274    -0.000047553182    -0.000004354206
       8        0.001595392384     0.002230131332    -0.001013722236
       9       -0.000029160718     0.000006965121    -0.000000177750
      10        0.000046110425    -0.000004740031    -0.000005743690
      11        0.000006541135    -0.000003308567     0.000000220407
      12       -0.000009063402    -0.000002973718    -0.000000629542
      13       -0.000005690082     0.000007082273    -0.000003343189

  **** Optimization is complete! (in 4 steps) ****
    Final optimized geometry and variables:
    Molecular point group: c1

    Geometry (in Angstrom), charge = 0, multiplicity = 1:

    H           -2.474853747778    -0.727812716025    -0.934043823141
    O           -2.339393286995    -0.301507666996    -0.107835579762
    C           -1.177323899624     0.482121265590    -0.149014515621
    C            0.072572801524    -0.375373708275    -0.080652185850
    H           -1.160990173955     1.090375832383    -1.047585413357
    H           -1.204866209335     1.138551868369     0.707943154541
    O            1.157796138216     0.460980174547     0.163409436063
    H            0.222299099435    -0.901371186491    -1.024509855823
    H           -0.039271415365    -1.113687653587     0.709473761101
    C            2.385043673832    -0.187388023041     0.226981306075
    H            2.621175424507    -0.685524662473    -0.710847838077
    H            3.142615322766     0.556363177827     0.426047495807
    H            2.402471550519    -0.927666870811     1.023499633418

  Mulliken Charges: (a.u.)
   Center  Symbol    Alpha    Beta     Spin     Total
       1     H     0.39444  0.39444  0.00000  0.21111
       2     O     4.20177  4.20177  0.00000 -0.40355
       3     C     2.97343  2.97343  0.00000  0.05313
       4     C     2.96730  2.96730  0.00000  0.06540
       5     H     0.46666  0.46666  0.00000  0.06668
       6     H     0.45173  0.45173  0.00000  0.09653
       7     O     4.17543  4.17543  0.00000 -0.35087
       8     H     0.48143  0.48143  0.00000  0.03715
       9     H     0.46866  0.46866  0.00000  0.06267
      10     C     3.03157  3.03157  0.00000 -0.06313
      11     H     0.47146  0.47146  0.00000  0.05708
      12     H     0.44595  0.44595  0.00000  0.10811
      13     H     0.47016  0.47016  0.00000  0.05969

   Total alpha = 21.00000, Total beta = 21.00000, Total charge =  0.00000

*** Psi4 exiting successfully. Buy a developer a beer!
