                              Psi4 1.0.54 Driver

  ==> Input File <==

--------------------------------------------------------------------------
set {
	reference rhf
	basis cc-pvtz
}

set_num_threads( 4 )
memory 2 gb

molecule MOL {
0 1

H	 -1.635885	 2.244530	 -0.612486
C	 -1.190210	 2.261137	 0.373069
C	 0.126440	 1.500233	 0.389517
H	 -1.901267	 1.821450	 1.059574
H	 -1.031016	 3.293824	 0.659631
C	 0.000000	 0.039916	 0.000014
H	 0.583216	 1.539846	 1.374750
H	 0.846332	 1.959255	 -0.282753
C	 1.286532	 -0.763243	 0.000268
O	 -1.044655	 -0.445949	 -0.288101
C	 2.547023	 0.087626	 -0.000114
H	 1.264245	 -1.421103	 -0.864380
H	 1.264290	 -1.420353	 0.865489
H	 2.584452	 0.725630	 -0.872909
H	 3.427035	 -0.544422	 0.000125
H	 2.584484	 0.726356	 0.872143

	symmetry c1
}
set optking {
	frozen_dihedral = ("
		3 6 9 12
	")
}

ee,wfn = optimize('scf', return_wfn=True)
oeprop( wfn, 'DIPOLE', 'QUADRUPOLE', 'MULLIKEN_CHARGES')
f=open( 'psi4out.xyz', 'w' )
f.write( "16  " )
f.write( str(ee) + "\n" )
f.write( MOL.save_string_xyz() )
f.close()
--------------------------------------------------------------------------

    Molecular point group: c1
  Charge       = 0
  Multiplicity = 1
  Basis Set: CC-PVTZ
  Basis Set:
  @DF-RHF Final Energy:  -270.12507653970408
    Total Energy =                       -270.1250765397040254
    Molecular point group: c1
  Basis Set: CC-PVTZ
  Basis Set:
  Basis Set: CC-PVTZ
  Basis Set:
  @DF-RHF Final Energy:  -270.09672885350619
    Total Energy =                       -270.0967288535063062
  Basis Set: CC-PVTZ
  Basis Set:
  Basis Set: CC-PVTZ
  Basis Set:
  @DF-RHF Final Energy:  -270.12662694368561
    Total Energy =                       -270.1266269436854373
  Basis Set: CC-PVTZ
  Basis Set:
  Basis Set: CC-PVTZ
  Basis Set:
  @DF-RHF Final Energy:  -270.12748922115856
    Total Energy =                       -270.1274892211587257
  Basis Set: CC-PVTZ
  Basis Set:
  @DF-RHF Final Energy:  -270.12568371425232
    Total Energy =                       -270.1256837142519771
  @DF-RHF Final Energy:  -270.10555726884047
    Total Energy =                       -270.1055572688403572
  Basis Set: CC-PVTZ
  Basis Set:
  @DF-RHF Final Energy:  -270.12731661747296
    Total Energy =                       -270.1273166174732410
  Basis Set: CC-PVTZ
  Basis Set:
  Basis Set: CC-PVTZ
  Basis Set:
  @DF-RHF Final Energy:  -270.12757536126082
    Total Energy =                       -270.1275753612607105
  Basis Set: CC-PVTZ
  Basis Set:
  Basis Set: CC-PVTZ
  Basis Set:
  @DF-RHF Final Energy:  -270.12758085842165
    Total Energy =                       -270.1275808584213678
  Basis Set: CC-PVTZ
  Basis Set:
  Charge       = 0
  Multiplicity = 1
  Basis Set: CC-PVTZ
  Basis Set:

    Orbital Energies (a.u.)
    -----------------------

    Doubly Occupied:

       1A    -20.535146     2A    -11.318381     3A    -11.232360
       4A    -11.231787     5A    -11.225366     6A    -11.211159
       7A     -1.396819     8A     -1.072909     9A     -1.036134
      10A     -0.907785    11A     -0.867948    12A     -0.722859
      13A     -0.657222    14A     -0.648053    15A     -0.632525
      16A     -0.609941    17A     -0.553914    18A     -0.542486
      19A     -0.538150    20A     -0.511542    21A     -0.507215
      22A     -0.502992    23A     -0.474513    24A     -0.398115

  @DF-RHF Final Energy:  -270.12758113892767

   => Energetics <=

    Nuclear Repulsion Energy =            240.8593953283038047
    One-Electron Energy =                -843.3033074851886113
    Two-Electron Energy =                 332.3163310179570544
    DFT Exchange-Correlation Energy =       0.0000000000000000
    Empirical Dispersion Energy =           0.0000000000000000
    PCM Polarization Energy =               0.0000000000000000
    EFP Energy =                            0.0000000000000000
    Total Energy =                       -270.1275811389277806
    Molecular point group: c1
  Basis Set: CC-PVTZ
  Basis Set:

  -Total Gradient:
     Atom            X                  Y                   Z
    ------   -----------------  -----------------  -----------------
       1       -0.000006539842    -0.000000040812     0.000003560751
       2       -0.000009071954    -0.000000247708    -0.000032424223
       3       -0.000188417802    -0.000071438077    -0.000923455101
       4        0.000006620026     0.000002401807    -0.000000554153
       5       -0.000003185996    -0.000002897562     0.000004508509
       6        0.000290812879     0.000283302986     0.001185765100
       7       -0.000004874549     0.000006134733     0.000000460518
       8       -0.000000780229    -0.000020387351     0.000005212760
       9       -0.000017505131    -0.000885131518     0.000773249476
      10       -0.000014997905    -0.000015651227     0.000022121845
      11        0.000009807902    -0.000004018189     0.000031462664
      12       -0.000057678850     0.000713256094    -0.001049202711
      13        0.000003763875     0.000003087905     0.000004477414
      14       -0.000009996655     0.000002876285    -0.000005871982
      15       -0.000002340172    -0.000000632062    -0.000008152611
      16        0.000004384402    -0.000010615307    -0.000011158258

  **** Optimization is complete! (in 10 steps) ****
    Final optimized geometry and variables:
    Molecular point group: c1

    Geometry (in Angstrom), charge = 0, multiplicity = 1:

    H           -2.675019624299     0.589293728190    -0.255671903555
    C           -2.052871424662     1.143963909235     0.433589296258
    C           -0.580861045098     0.991282539974     0.083781373701
    H           -2.256734681856     0.770792832673     1.428220946223
    H           -2.341384140728     2.187591424116     0.392911053539
    C           -0.093334044399    -0.442372448069     0.115757746125
    H            0.039549629443     1.569677498331     0.763162257730
    H           -0.376401337774     1.390951561827    -0.904832538696
    C            1.374613129788    -0.738137451932    -0.166505177975
    O           -0.827349105791    -1.341665900174     0.370070648912
    C            2.211874255617     0.352049845031    -0.828794121205
    H            1.386556757557    -1.636012097239    -0.771175817171
    H            1.810064911962    -1.009517516204     0.790657917058
    H            1.820153357099     0.623396576998    -1.802153263784
    H            3.224285680111    -0.003740758752    -0.974274213178
    H            2.266583068713     1.251096486396    -0.227827530791

  Mulliken Charges: (a.u.)
   Center  Symbol    Alpha    Beta     Spin     Total
       1     H     0.44733  0.44733  0.00000  0.10534
       2     C     3.14196  3.14196  0.00000 -0.28391
       3     C     3.10566  3.10566  0.00000 -0.21132
       4     H     0.44780  0.44780  0.00000  0.10440
       5     H     0.45095  0.45095  0.00000  0.09809
       6     C     2.87204  2.87204  0.00000  0.25592
       7     H     0.44345  0.44345  0.00000  0.11310
       8     H     0.44341  0.44341  0.00000  0.11318
       9     C     3.08925  3.08925  0.00000 -0.17850
      10     O     4.17728  4.17728  0.00000 -0.35456
      11     C     3.15934  3.15934  0.00000 -0.31868
      12     H     0.43701  0.43701  0.00000  0.12598
      13     H     0.44199  0.44199  0.00000  0.11602
      14     H     0.45006  0.45006  0.00000  0.09987
      15     H     0.44121  0.44121  0.00000  0.11759
      16     H     0.45126  0.45126  0.00000  0.09749

   Total alpha = 24.00000, Total beta = 24.00000, Total charge =  0.00000

*** Psi4 exiting successfully. Buy a developer a beer!
