  ==> Input File <==

--------------------------------------------------------------------------
set {
	reference rhf
	basis 6-31G*
}

set_num_threads( 4 )
memory 2 gb

molecule MOL {
0 1

H	 -1.836216	 1.387520	 -0.000064
C	 -1.301823	 0.443321	 -0.000031
O	 -0.003969	 0.658512	 0.000451
O	 -1.829879	 -0.616434	 -0.000857
C	 0.571958	 1.192754	 1.192122
C	 2.057457	 1.348150	 0.948269
H	 0.367762	 0.516997	 2.011252
H	 0.099707	 2.139927	 1.413792
H	 2.512163	 0.391000	 0.719928
H	 2.535440	 1.753065	 1.834164
H	 2.242982	 2.021766	 0.119589

	symmetry c1
}
set optking {
	frozen_dihedral = ("
		5 3 2 4
	")
}

ee = optimize('scf')
oeprop('DIPOLE', 'QUADRUPOLE', 'MULLIKEN_CHARGES')
f=open( 'psi4out.xyz', 'w' )
f.write( "11  " )
f.write( str(ee) + "\n" )
f.write( MOL.save_string_xyz() )
f.close()
--------------------------------------------------------------------------

    Molecular point group: c1
  Charge       = 0
  Multiplicity = 1
  Basis Set: 6-31G*
  Basis Set:
  @DF-RHF Final Energy:  -266.80916117185916
    Total Energy =                       -266.8091611718591025
    Molecular point group: c1
  Basis Set: 6-31G*
  Basis Set:
  Basis Set: 6-31G*
  Basis Set:
  @DF-RHF Final Energy:  -266.81032263780958
    Total Energy =                       -266.8103226378094632
  Basis Set: 6-31G*
  Basis Set:
  Basis Set: 6-31G*
  Basis Set:
  @DF-RHF Final Energy:  -266.81008894888384
    Total Energy =                       -266.8100889488838448
  Basis Set: 6-31G*
  Basis Set:
  Basis Set: 6-31G*
  Basis Set:
  @DF-RHF Final Energy:  -266.81047165615524
    Total Energy =                       -266.8104716561552436
  Basis Set: 6-31G*
  Basis Set:
  Basis Set: 6-31G*
  Basis Set:
  @DF-RHF Final Energy:  -266.81047757381305
    Total Energy =                       -266.8104775738131593
  Basis Set: 6-31G*
  Basis Set:
  Charge       = 0
  Multiplicity = 1
  Basis Set: 6-31G*
  Basis Set:

    Orbital Energies (a.u.)
    -----------------------

    Doubly Occupied:

       1A    -20.596244     2A    -20.569856     3A    -11.381368
       4A    -11.304249     5A    -11.230522     6A     -1.468072
       7A     -1.381023     8A     -1.050556     9A     -0.886437
      10A     -0.835847    11A     -0.741058    12A     -0.690218
      13A     -0.651553    14A     -0.634424    15A     -0.565684
      16A     -0.543628    17A     -0.536953    18A     -0.505138
      19A     -0.465357    20A     -0.453615

  @DF-RHF Final Energy:  -266.81047776583841

   => Energetics <=

    Nuclear Repulsion Energy =            176.7032524311077566
    One-Electron Energy =                -714.0438571005761332
    Two-Electron Energy =                 270.5301269036299345
    DFT Exchange-Correlation Energy =       0.0000000000000000
    Empirical Dispersion Energy =           0.0000000000000000
    PCM Polarization Energy =               0.0000000000000000
    EFP Energy =                            0.0000000000000000
    Total Energy =                       -266.8104777658384137
    Molecular point group: c1
  Basis Set: 6-31G*
  Basis Set:

  -Total Gradient:
     Atom            X                  Y                   Z
    ------   -----------------  -----------------  -----------------
       1        0.000168171901     0.000039685451     0.000009417793
       2        0.000118965932    -0.001494240966    -0.005458802775
       3       -0.000562319176     0.004188817938     0.000058129259
       4        0.000111424456     0.000162988208     0.004038283417
       5        0.000105632394    -0.002903869975     0.001334261760
       6       -0.000025899638    -0.000024566588    -0.000041958222
       7        0.000116237363     0.000079122379     0.000102485890
       8       -0.000000062342    -0.000057558472    -0.000031390000
       9        0.000000808143    -0.000005185366    -0.000001262718
      10       -0.000033150626     0.000010040565    -0.000004725370
      11        0.000000191599     0.000004766830    -0.000004439032

  **** Optimization is complete! (in 6 steps) ****
    Final optimized geometry and variables:
    Molecular point group: c1

    Geometry (in Angstrom), charge = 0, multiplicity = 1:

    H           -1.725612123785     0.819625251895    -0.508339465899
    C           -1.206094035137    -0.136228054115    -0.446115169143
    O            0.125499188905    -0.010499907868    -0.429238314593
    O           -1.772005756760    -1.166540017100    -0.394640990394
    C            0.684539187334     0.554037557244     0.749250122327
    C            2.164074771601     0.761916250840     0.509747746284
    H            0.512548782814    -0.123253021340     1.577636399056
    H            0.191303718738     1.496967635111     0.971788277485
    H            2.643962489368    -0.181442464994     0.279052754122
    H            2.628888327997     1.180778579578     1.396170204912
    H            2.322959534892     1.441009339580    -0.319600767537

  Mulliken Charges: (a.u.)
   Center  Symbol    Alpha    Beta     Spin     Total
       1     H     0.42700  0.42700  0.00000  0.14601
       2     C     2.73180  2.73180  0.00000  0.53641
       3     O     4.29825  4.29825  0.00000 -0.59650
       4     O     4.22703  4.22703  0.00000 -0.45407
       5     C     3.00632  3.00632  0.00000 -0.01264
       6     C     3.24661  3.24661  0.00000 -0.49321
       7     H     0.41059  0.41059  0.00000  0.17881
       8     H     0.42202  0.42202  0.00000  0.15597
       9     H     0.40501  0.40501  0.00000  0.18997
      10     H     0.41597  0.41597  0.00000  0.16807
      11     H     0.40941  0.40941  0.00000  0.18118

   Total alpha = 20.00000, Total beta = 20.00000, Total charge =  0.00000
