  ==> Input File <==

--------------------------------------------------------------------------
set {
	reference rhf
	basis 6-31G*
}

set_num_threads( 4 )
memory 2 gb

molecule MOL {
0 1

O	 -2.574544	 -0.419003	 1.058154
C	 -1.557238	 -0.424052	 1.682252
C	 -0.302418	 -1.068995	 1.120307
C	 -1.455563	 0.234241	 3.040076
C	 0.379448	 -0.143569	 0.099626
H	 -0.597223	 -1.991443	 0.631960
H	 0.391116	 -1.315763	 1.919144
C	 1.631333	 -0.777471	 -0.511575
H	 -0.342098	 0.097955	 -0.672657
H	 0.651426	 0.794875	 0.580353
C	 2.915987	 -0.544314	 0.291766
H	 1.766672	 -0.399098	 -1.523130
H	 1.471257	 -1.849544	 -0.605828
C	 3.373361	 0.914346	 0.347591
H	 3.708709	 -1.142521	 -0.150311
H	 2.780642	 -0.921148	 1.303579
H	 3.506512	 1.320010	 -0.651625
H	 4.322697	 0.999599	 0.867103
H	 2.660624	 1.545032	 0.868198
H	 -1.282928	 -0.522489	 3.800879
H	 -2.370213	 0.765597	 3.263369
H	 -0.613261	 0.919252	 3.073110

	symmetry c1
}
set optking {
	frozen_dihedral = ("
		3 5 8 12
	")
}

ee = optimize('scf')
oeprop('DIPOLE', 'QUADRUPOLE', 'MULLIKEN_CHARGES')
f=open( 'psi4out.xyz', 'w' )
f.write( "22  " )
f.write( str(ee) + "\n" )
f.write( MOL.save_string_xyz() )
f.close()
--------------------------------------------------------------------------

    Molecular point group: c1
  Charge       = 0
  Multiplicity = 1
  Basis Set: 6-31G*
  Basis Set:
  @DF-RHF Final Energy:  -348.09481517259070
    Total Energy =                       -348.0948151725906428
    Molecular point group: c1
  Basis Set: 6-31G*
  Basis Set:
  Basis Set: 6-31G*
  Basis Set:
  @DF-RHF Final Energy:  -348.09502344212558
    Total Energy =                       -348.0950234421252958
  Basis Set: 6-31G*
  Basis Set:
  Basis Set: 6-31G*
  Basis Set:
  @DF-RHF Final Energy:  -348.09524146603979
    Total Energy =                       -348.0952414660400223
  Basis Set: 6-31G*
  Basis Set:
  Basis Set: 6-31G*
  Basis Set:
  @DF-RHF Final Energy:  -348.09526974885711
    Total Energy =                       -348.0952697488568788
  Basis Set: 6-31G*
  Basis Set:
  Basis Set: 6-31G*
  Basis Set:
  @DF-RHF Final Energy:  -348.09535435706283
    Total Energy =                       -348.0953543570624902
  Basis Set: 6-31G*
  Basis Set:
  Basis Set: 6-31G*
  Basis Set:
  @DF-RHF Final Energy:  -348.09535768222122
    Total Energy =                       -348.0953576822211630
  Basis Set: 6-31G*
  Basis Set:
  Charge       = 0
  Multiplicity = 1
  Basis Set: 6-31G*
  Basis Set:

    Orbital Energies (a.u.)
    -----------------------

    Doubly Occupied:

       1A    -20.547427     2A    -11.324346     3A    -11.229812
       4A    -11.228992     5A    -11.228268     6A    -11.223312
       7A    -11.222503     8A    -11.214656     9A     -1.393113
      10A     -1.095725    11A     -1.043972    12A     -0.999751
      13A     -0.939353    14A     -0.861922    15A     -0.783884
      16A     -0.735144    17A     -0.661049    18A     -0.649778
      19A     -0.623856    20A     -0.611967    21A     -0.604638
      22A     -0.580335    23A     -0.562785    24A     -0.550887
      25A     -0.529424    26A     -0.523962    27A     -0.506422
      28A     -0.486423    29A     -0.466352    30A     -0.463436
      31A     -0.460477    32A     -0.396824

  @DF-RHF Final Energy:  -348.09535852898142

   => Energetics <=

    Nuclear Repulsion Energy =            376.1236352644702379
    One-Electron Energy =               -1216.9364002874101516
    Two-Electron Energy =                 492.7174064939584355
    DFT Exchange-Correlation Energy =       0.0000000000000000
    Empirical Dispersion Energy =           0.0000000000000000
    PCM Polarization Energy =               0.0000000000000000
    EFP Energy =                            0.0000000000000000
    Total Energy =                       -348.0953585289814214
    Molecular point group: c1
  Basis Set: 6-31G*
  Basis Set:

  -Total Gradient:
     Atom            X                  Y                   Z
    ------   -----------------  -----------------  -----------------
       1        0.000023761365     0.000053495195    -0.000038064704
       2       -0.000025616622    -0.000057927049     0.000052464382
       3       -0.001141352265    -0.000821165961    -0.001556176459
       4       -0.000027552023    -0.000038628533     0.000011058176
       5        0.001221954239     0.000641746143     0.001900940726
       6        0.000006215360    -0.000021207339     0.000024389323
       7       -0.000008958802     0.000017706375     0.000002543489
       8        0.001478739691     0.002408963233     0.000688178482
       9        0.000009109705     0.000011924366     0.000006791009
      10       -0.000002009697     0.000014909761     0.000013022976
      11        0.000002633002     0.000004437833    -0.000005273015
      12       -0.001549840940    -0.002213673217    -0.001076422780
      13        0.000024096661    -0.000002031923    -0.000000515758
      14       -0.000030599123    -0.000014303201     0.000007840323
      15       -0.000001083741    -0.000016594602    -0.000013043798
      16        0.000019032951     0.000019122403    -0.000006789269
      17       -0.000005839794    -0.000026395585     0.000005392499
      18        0.000000834156    -0.000015578727     0.000005982143
      19       -0.000015457918     0.000025965095    -0.000000976288
      20        0.000014811363     0.000009710458    -0.000018513702
      21       -0.000000367159    -0.000000532667     0.000001523644
      22        0.000007489596     0.000020057943    -0.000004351399

  **** Optimization is complete! (in 7 steps) ****
    Final optimized geometry and variables:
    Molecular point group: c1

    Geometry (in Angstrom), charge = 0, multiplicity = 1:

    O           -2.902641493163    -0.173907374818     0.175014666695
    C           -1.878685937495    -0.176642241922     0.788050475573
    C           -0.627930210985    -0.816565387655     0.211995280041
    C           -1.766249073402     0.474481872925     2.148771153768
    C            0.057193567881     0.129666976444    -0.789503215511
    H           -0.927835798471    -1.723070180851    -0.301379543538
    H            0.058846711462    -1.089418984194     1.008165374044
    C            1.333775207927    -0.470281663098    -1.402171949190
    H           -0.658326026178     0.343753704193    -1.576242542054
    H            0.277859385397     1.080750275392    -0.312297131808
    C            2.614002696795    -0.258198515968    -0.584630881993
    H            1.472192947245    -0.073001232488    -2.404655461766
    H            1.178294507631    -1.538233765377    -1.538233111878
    C            3.138831614359     1.178565141641    -0.603918507313
    H            3.386760259234    -0.914301799007    -0.976660200852
    H            2.449543829821    -0.571140628441     0.444428678580
    H            3.352584430118     1.499076581715    -1.619583769660
    H            4.057293686905     1.261726250728    -0.031162312192
    H            2.427565629095     1.880500859649    -0.180515332699
    H           -1.592237570026    -0.287191357688     2.904244915131
    H           -2.677814545909     1.007570019482     2.380326735796
    H           -0.921465875829     1.156388198044     2.181285118069

  Mulliken Charges: (a.u.)
   Center  Symbol    Alpha    Beta     Spin     Total
       1     O     4.26229  4.26229  0.00000 -0.52457
       2     C     2.73701  2.73701  0.00000  0.52598
       3     C     3.20112  3.20112  0.00000 -0.40224
       4     C     3.28950  3.28950  0.00000 -0.57901
       5     C     3.16563  3.16563  0.00000 -0.33126
       6     H     0.40089  0.40089  0.00000  0.19823
       7     H     0.41642  0.41642  0.00000  0.16716
       8     C     3.15693  3.15693  0.00000 -0.31386
       9     H     0.40388  0.40388  0.00000  0.19224
      10     H     0.41845  0.41845  0.00000  0.16310
      11     C     3.15474  3.15474  0.00000 -0.30947
      12     H     0.41733  0.41733  0.00000  0.16535
      13     H     0.41908  0.41908  0.00000  0.16184
      14     C     3.24046  3.24046  0.00000 -0.48092
      15     H     0.41846  0.41846  0.00000  0.16308
      16     H     0.42404  0.42404  0.00000  0.15193
      17     H     0.42007  0.42007  0.00000  0.15986
      18     H     0.41809  0.41809  0.00000  0.16382
      19     H     0.42170  0.42170  0.00000  0.15659
      20     H     0.40685  0.40685  0.00000  0.18630
      21     H     0.39701  0.39701  0.00000  0.20597
      22     H     0.41005  0.41005  0.00000  0.17989

   Total alpha = 32.00000, Total beta = 32.00000, Total charge =  0.00000
