  ==> Input File <==

--------------------------------------------------------------------------
set {
	reference rhf
	basis cc-pvtz
}

set_num_threads( 4 )
memory 2 gb

molecule MOL {
0 1

H	 0.565111	 -2.984106	 1.855196
O	 0.641763	 -2.401918	 1.114307
C	 -0.368019	 -1.537314	 1.152003
C	 -0.318151	 -0.570512	 0.000144
O	 -1.185061	 -1.560749	 2.006323
C	 -1.454884	 0.441630	 -0.000560
H	 0.648125	 -0.077755	 0.037446
H	 -0.314118	 -1.159078	 -0.911708
C	 -2.822577	 -0.232186	 0.000063
H	 -1.359760	 1.084704	 -0.867077
H	 -1.359641	 1.085996	 0.864983
H	 -2.954352	 -0.858985	 -0.875745
H	 -3.615886	 0.505352	 0.000019
H	 -2.953878	 -0.858359	 0.876394

	symmetry c1
}
set optking {
	frozen_dihedral = ("
		7 4 6 10
	")
}

ee = optimize('scf')
oeprop('DIPOLE', 'QUADRUPOLE', 'MULLIKEN_CHARGES')
f=open( 'psi4out.xyz', 'w' )
f.write( "14  " )
f.write( str(ee) + "\n" )
f.write( MOL.save_string_xyz() )
f.close()
--------------------------------------------------------------------------

    Molecular point group: c1
  Charge       = 0
  Multiplicity = 1
  Basis Set: CC-PVTZ
  Basis Set:
  @DF-RHF Final Energy:  -305.99664258176460
    Total Energy =                       -305.9966425817643199
    Molecular point group: c1
  Basis Set: CC-PVTZ
  Basis Set:
  Basis Set: CC-PVTZ
  Basis Set:
  @DF-RHF Final Energy:  -305.99904306277523
    Total Energy =                       -305.9990430627751721
  Basis Set: CC-PVTZ
  Basis Set:
  Basis Set: CC-PVTZ
  Basis Set:
  @DF-RHF Final Energy:  -305.99829686546985
    Total Energy =                       -305.9982968654699675
  Basis Set: CC-PVTZ
  Basis Set:
  Basis Set: CC-PVTZ
  Basis Set:
  @DF-RHF Final Energy:  -305.99957708334489
    Total Energy =                       -305.9995770833452298
  Basis Set: CC-PVTZ
  Basis Set:
  Basis Set: CC-PVTZ
  Basis Set:
  @DF-RHF Final Energy:  -305.99977307477764
    Total Energy =                       -305.9997730747775222
  Basis Set: CC-PVTZ
  Basis Set:
  Basis Set: CC-PVTZ
  Basis Set:
  @DF-RHF Final Energy:  -305.99982658341469
    Total Energy =                       -305.9998265834148015
  Basis Set: CC-PVTZ
  Basis Set:
  Basis Set: CC-PVTZ
  Basis Set:
  @DF-RHF Final Energy:  -305.99983217133843
    Total Energy =                       -305.9998321713385963
  Basis Set: CC-PVTZ
  Basis Set:
  Charge       = 0
  Multiplicity = 1
  Basis Set: CC-PVTZ
  Basis Set:

    Orbital Energies (a.u.)
    -----------------------

    Doubly Occupied:

       1A    -20.605484     2A    -20.540533     3A    -11.374559
       4A    -11.240294     5A    -11.225662     6A    -11.208685
       7A     -1.478761     8A     -1.369786     9A     -1.082865
      10A     -0.977194    11A     -0.863520    12A     -0.788883
      13A     -0.706273    14A     -0.692993    15A     -0.663067
      16A     -0.616788    17A     -0.595414    18A     -0.568569
      19A     -0.558531    20A     -0.499158    21A     -0.490974
      22A     -0.486788    23A     -0.481239    24A     -0.444521

  @DF-RHF Final Energy:  -305.99983284598238

   => Energetics <=

    Nuclear Repulsion Energy =            245.3955696091831271
    One-Electron Energy =                -903.6697311032710331
    Two-Electron Energy =                 352.2743286481055520
    DFT Exchange-Correlation Energy =       0.0000000000000000
    Empirical Dispersion Energy =           0.0000000000000000
    PCM Polarization Energy =               0.0000000000000000
    EFP Energy =                            0.0000000000000000
    Total Energy =                       -305.9998328459823824
    Molecular point group: c1
  Basis Set: CC-PVTZ
  Basis Set:

  -Total Gradient:
     Atom            X                  Y                   Z
    ------   -----------------  -----------------  -----------------
       1        0.000004396357    -0.000005290038     0.000006657566
       2        0.000007780045    -0.000046976959    -0.000004398854
       3       -0.000003602473     0.000083142653     0.000063652961
       4       -0.000246080711    -0.000234520528    -0.003749807625
       5        0.000006400013    -0.000031809977    -0.000045871472
       6        0.001736723824     0.002072354889     0.002476781109
       7       -0.000073319799    -0.000117460354     0.002741718127
       8        0.000006830132     0.000007443334    -0.000001218226
       9        0.000037227845    -0.000006592175    -0.000002729603
      10       -0.001462027412    -0.001729630159    -0.001491036425
      11       -0.000000480514    -0.000002101769    -0.000001732676
      12        0.000002449636     0.000008297664    -0.000004310345
      13       -0.000015770722     0.000014023349    -0.000005928803
      14       -0.000000526217    -0.000010879931     0.000018224269

  **** Optimization is complete! (in 8 steps) ****
    Final optimized geometry and variables:
    Molecular point group: c1

    Geometry (in Angstrom), charge = 0, multiplicity = 1:

    H            1.366325567634    -2.083883293319     1.008592811039
    O            1.346257188457    -1.558815703863     0.222452623373
    C            0.583643682297    -0.493798373802     0.448394881857
    C            0.553245954626     0.439268004121    -0.734803155701
    O            0.042990918932    -0.317097661931     1.485538650768
    C           -0.615450633199     1.419605258832    -0.731945599946
    H            1.494981855897     0.978564716998    -0.676671086066
    H            0.582744587544    -0.150378887672    -1.641864815063
    C           -1.984745893683     0.748737317726    -0.815058968943
    H           -0.500224795698     2.064882110688    -1.596476047977
    H           -0.563064890072     2.042785633131     0.151341515832
    H           -2.060298716731     0.127713267862    -1.702420375189
    H           -2.769097810077     1.494364690330    -0.869932888209
    H           -2.176396964858     0.129258377153     0.050502531200

  Mulliken Charges: (a.u.)
   Center  Symbol    Alpha    Beta     Spin     Total
       1     H     0.38158  0.38158  0.00000  0.23683
       2     O     4.15955  4.15955  0.00000 -0.31910
       3     C     2.80475  2.80475  0.00000  0.39049
       4     C     3.11076  3.11076  0.00000 -0.22152
       5     O     4.19468  4.19468  0.00000 -0.38936
       6     C     3.08282  3.08282  0.00000 -0.16563
       7     H     0.43515  0.43515  0.00000  0.12970
       8     H     0.43524  0.43524  0.00000  0.12953
       9     C     3.15496  3.15496  0.00000 -0.30992
      10     H     0.44756  0.44756  0.00000  0.10487
      11     H     0.44586  0.44586  0.00000  0.10827
      12     H     0.45703  0.45703  0.00000  0.08593
      13     H     0.44756  0.44756  0.00000  0.10487
      14     H     0.44248  0.44248  0.00000  0.11504

   Total alpha = 24.00000, Total beta = 24.00000, Total charge = -0.00000
