  ==> Input File <==

--------------------------------------------------------------------------
set {
	reference rhf
	basis cc-pvtz
}

set_num_threads( 4 )
memory 2 gb

molecule MOL {
0 1

H	 -2.362939	 -1.309000	 -0.383250
C	 -1.359344	 -1.272457	 0.020748
C	 -0.684082	 0.000127	 -0.464918
H	 -0.825835	 -2.151141	 -0.318537
H	 -1.416276	 -1.292399	 1.099455
C	 -1.359089	 1.272668	 0.021259
N	 0.742439	 -0.000109	 0.007333
H	 -0.596914	 0.000345	 -1.538146
H	 -2.362696	 1.309620	 -0.382686
H	 -0.825392	 2.151374	 -0.317674
H	 -1.415983	 1.292181	 1.099973
O	 1.316677	 1.036178	 0.005133
O	 1.203855	 -1.036545	 0.352564

	symmetry c1
}
set optking {
	frozen_dihedral = ("
		12 7 3 8
	")
}

ee = optimize('scf')
oeprop('DIPOLE', 'QUADRUPOLE', 'MULLIKEN_CHARGES')
f=open( 'psi4out.xyz', 'w' )
f.write( "13  " )
f.write( str(ee) + "\n" )
f.write( MOL.save_string_xyz() )
f.close()
--------------------------------------------------------------------------

    Molecular point group: c1
  Charge       = 0
  Multiplicity = 1
  Basis Set: CC-PVTZ
  Basis Set:
  @DF-RHF Final Energy:  -321.86124364903230
    Total Energy =                       -321.8612436490324171
    Molecular point group: c1
  Basis Set: CC-PVTZ
  Basis Set:
  Basis Set: CC-PVTZ
  Basis Set:
  @DF-RHF Final Energy:  -321.85886478877791
    Total Energy =                       -321.8588647887778507
  Basis Set: CC-PVTZ
  Basis Set:
  Basis Set: CC-PVTZ
  Basis Set:
  @DF-RHF Final Energy:  -321.85948527018354
    Total Energy =                       -321.8594852701834270
  Basis Set: CC-PVTZ
  Basis Set:
  Basis Set: CC-PVTZ
  Basis Set:
  @DF-RHF Final Energy:  -321.86181994311801
    Total Energy =                       -321.8618199431179505
  Basis Set: CC-PVTZ
  Basis Set:
  Basis Set: CC-PVTZ
  Basis Set:
  @DF-RHF Final Energy:  -321.86217717561857
    Total Energy =                       -321.8621771756187400
  Basis Set: CC-PVTZ
  Basis Set:
  Basis Set: CC-PVTZ
  Basis Set:
  @DF-RHF Final Energy:  -321.86219604521625
    Total Energy =                       -321.8621960452157964
  Basis Set: CC-PVTZ
  Basis Set:
  Basis Set: CC-PVTZ
  Basis Set:
  @DF-RHF Final Energy:  -321.86219857235722
    Total Energy =                       -321.8621985723572152
  Basis Set: CC-PVTZ
  Basis Set:
  Charge       = 0
  Multiplicity = 1
  Basis Set: CC-PVTZ
  Basis Set:

    Orbital Energies (a.u.)
    -----------------------

    Doubly Occupied:

       1A    -20.589729     2A    -20.587130     3A    -15.833987
       4A    -11.307029     5A    -11.239212     6A    -11.237651
       7A     -1.634516     8A     -1.418127     9A     -1.139669
      10A     -0.967589    11A     -0.958371    12A     -0.814932
      13A     -0.765107    14A     -0.730062    15A     -0.722913
      16A     -0.639700    17A     -0.596078    18A     -0.586280
      19A     -0.570379    20A     -0.522101    21A     -0.521404
      22A     -0.483254    23A     -0.472406    24A     -0.452224

  @DF-RHF Final Energy:  -321.86219903314503

   => Energetics <=

    Nuclear Repulsion Energy =            257.2263977378876803
    One-Electron Energy =                -948.5974954413387650
    Two-Electron Energy =                 369.5088986703058254
    DFT Exchange-Correlation Energy =       0.0000000000000000
    Empirical Dispersion Energy =           0.0000000000000000
    PCM Polarization Energy =               0.0000000000000000
    EFP Energy =                            0.0000000000000000
    Total Energy =                       -321.8621990331453162
    Molecular point group: c1
  Basis Set: CC-PVTZ
  Basis Set:

  -Total Gradient:
     Atom            X                  Y                   Z
    ------   -----------------  -----------------  -----------------
       1        0.000009073424     0.000003312510     0.000002302222
       2       -0.000012036300    -0.000013255723    -0.000008199429
       3       -0.000073506482     0.000806459001     0.000223429140
       4       -0.000005295989    -0.000008177361     0.000000815969
       5       -0.000000294658     0.000003197195     0.000005801376
       6        0.000004381810     0.000005143664     0.000006654654
       7        0.000249605475    -0.000237301344    -0.000890381114
       8        0.000011671549    -0.000671092904     0.000011453682
       9        0.000005974940    -0.000003819581    -0.000001130957
      10        0.000003837541     0.000016209834    -0.000000800411
      11        0.000000347475    -0.000001178871    -0.000001109613
      12       -0.000214755906     0.000092468869     0.000642970302
      13        0.000020997121     0.000008034710     0.000008194181

  **** Optimization is complete! (in 8 steps) ****
    Final optimized geometry and variables:
    Molecular point group: c1

    Geometry (in Angstrom), charge = 0, multiplicity = 1:

    H           -2.401073519464    -1.254958025295    -0.375114572267
    C           -1.390272031401    -1.272908931719     0.012403559444
    C           -0.686244897715    -0.007054436826    -0.440990386863
    H           -0.895398917609    -2.158881348220    -0.351282930876
    H           -1.439474255239    -1.325694428183     1.092238199051
    C           -1.380735996608     1.267108046093     0.010784279264
    N            0.753927152599     0.000554910802     0.021969561201
    H           -0.581671235382    -0.009622920488    -1.518607714373
    H           -2.394746666872     1.256879295952    -0.367491052309
    H           -0.879580134287     2.146464800314    -0.358906095085
    H           -1.422825900522     1.319829715852     1.091816605375
    O            1.320173870522     1.041829899624     0.010139492812
    O            1.244570918876    -1.031033990819     0.333688398597

  Mulliken Charges: (a.u.)
   Center  Symbol    Alpha    Beta     Spin     Total
       1     H     0.45062  0.45062  0.00000  0.09877
       2     C     3.14270  3.14270  0.00000 -0.28540
       3     C     3.00662  3.00662  0.00000 -0.01325
       4     H     0.43315  0.43315  0.00000  0.13370
       5     H     0.44517  0.44517  0.00000  0.10966
       6     C     3.14378  3.14378  0.00000 -0.28755
       7     N     3.27537  3.27537  0.00000  0.44925
       8     H     0.43056  0.43056  0.00000  0.13887
       9     H     0.45055  0.45055  0.00000  0.09889
      10     H     0.43082  0.43082  0.00000  0.13835
      11     H     0.44648  0.44648  0.00000  0.10705
      12     O     4.17351  4.17351  0.00000 -0.34702
      13     O     4.17066  4.17066  0.00000 -0.34133

   Total alpha = 24.00000, Total beta = 24.00000, Total charge = -0.00000
