                              Psi4 1.0.54 Driver

  ==> Input File <==

--------------------------------------------------------------------------
set {
	reference rhf
	basis cc-pvtz
}

set_num_threads( 4 )
memory 2 gb

molecule MOL {
0 1

O	 -1.264391	 -0.825680	 2.165972
C	 -1.841832	 -0.998398	 1.146582
C	 -3.072361	 -1.854940	 1.018459
O	 -1.481217	 -0.452708	 0.001092
H	 -3.831712	 -1.468212	 1.684723
H	 -3.445315	 -1.875916	 0.006972
H	 -2.828837	 -2.857436	 1.343685
C	 -0.332055	 0.384012	 -0.000250
C	 0.892252	 -0.506059	 -0.000295
H	 -0.360822	 1.020205	 -0.874146
H	 -0.359817	 1.021310	 0.872861
C	 2.188199	 0.299473	 -0.001416
H	 0.857046	 -1.152781	 -0.871031
H	 0.857910	 -1.151798	 0.871202
C	 3.437151	 -0.577593	 -0.000991
H	 2.209565	 0.950707	 -0.871712
H	 2.210062	 0.952234	 0.867721
C	 4.732399	 0.226982	 -0.000914
H	 3.417321	 -1.229122	 -0.869998
H	 3.416993	 -1.228707	 0.868337
H	 4.797903	 0.863451	 -0.876963
H	 5.598517	 -0.424436	 -0.000420
H	 4.797415	 0.864118	 0.874691

	symmetry c1
}
set optking {
	frozen_dihedral = ("
		2 4 8 10
	")
}

ee,wfn = optimize('scf', return_wfn=True)
oeprop( wfn, 'DIPOLE', 'QUADRUPOLE', 'MULLIKEN_CHARGES')
f=open( 'psi4out.xyz', 'w' )
f.write( "23  " )
f.write( str(ee) + "\n" )
f.write( MOL.save_string_xyz() )
f.close()
--------------------------------------------------------------------------

    Molecular point group: c1
  Charge       = 0
  Multiplicity = 1
  Basis Set: CC-PVTZ
  Basis Set:
  @DF-RHF Final Energy:  -423.13173076560798
    Total Energy =                       -423.1317307656083813
    Molecular point group: c1
  Basis Set: CC-PVTZ
  Basis Set:
  Basis Set: CC-PVTZ
  Basis Set:
  @DF-RHF Final Energy:  -423.13338373408442
    Total Energy =                       -423.1333837340843047
  Basis Set: CC-PVTZ
  Basis Set:
  Basis Set: CC-PVTZ
  Basis Set:
  @DF-RHF Final Energy:  -423.13108333982768
    Total Energy =                       -423.1310833398282512
  Basis Set: CC-PVTZ
  Basis Set:
  Basis Set: CC-PVTZ
  Basis Set:
  @DF-RHF Final Energy:  -423.13372483518492
    Total Energy =                       -423.1337248351846938
  Basis Set: CC-PVTZ
  Basis Set:
  Basis Set: CC-PVTZ
  Basis Set:
  @DF-RHF Final Energy:  -423.13377264694384
    Total Energy =                       -423.1337726469442941
  Basis Set: CC-PVTZ
  Basis Set:
  Basis Set: CC-PVTZ
  Basis Set:
  @DF-RHF Final Energy:  -423.13377411466172
    Total Energy =                       -423.1337741146621738
  Basis Set: CC-PVTZ
  Basis Set:
  Charge       = 0
  Multiplicity = 1
  Basis Set: CC-PVTZ
  Basis Set:

    Orbital Energies (a.u.)
    -----------------------

    Doubly Occupied:

       1A    -20.595636     2A    -20.529624     3A    -11.367479
       4A    -11.279816     5A    -11.230579     6A    -11.219164
       7A    -11.217622     8A    -11.216946     9A    -11.208954
      10A     -1.470245    11A     -1.364229    12A     -1.092075
      13A     -1.041444    14A     -1.002837    15A     -0.931847
      16A     -0.852103    17A     -0.798690    18A     -0.765293
      19A     -0.701614    20A     -0.681785    21A     -0.659779
      22A     -0.650267    23A     -0.604866    24A     -0.590804
      25A     -0.584195    26A     -0.573726    27A     -0.550661
      28A     -0.540103    29A     -0.522619    30A     -0.513919
      31A     -0.485782    32A     -0.478391    33A     -0.474124
      34A     -0.468753    35A     -0.440923    36A     -0.438728

  @DF-RHF Final Energy:  -423.13377447084741

   => Energetics <=

    Nuclear Repulsion Energy =            457.8799909465315636
    One-Electron Energy =               -1483.7362836477091150
    Two-Electron Energy =                 602.7225182303300244
    DFT Exchange-Correlation Energy =       0.0000000000000000
    Empirical Dispersion Energy =           0.0000000000000000
    PCM Polarization Energy =               0.0000000000000000
    EFP Energy =                            0.0000000000000000
    Total Energy =                       -423.1337744708475839
    Molecular point group: c1
  Basis Set: CC-PVTZ
  Basis Set:

  -Total Gradient:
     Atom            X                  Y                   Z
    ------   -----------------  -----------------  -----------------
       1        0.000041658558    -0.000026357830     0.000051248401
       2        0.000558678363    -0.000902505299    -0.000241296403
       3        0.000038201163    -0.000046093172    -0.000005896338
       4       -0.000758964898     0.001182162347     0.000150076755
       5       -0.000021009939     0.000007514577    -0.000014807639
       6       -0.000004577440     0.000002117787     0.000009830879
       7       -0.000018486644     0.000008989670     0.000023002898
       8       -0.000439121409     0.000718887646     0.000650814239
       9       -0.000031312135    -0.000010927432    -0.000020955016
      10        0.000608261007    -0.000919667209    -0.000612818409
      11        0.000000587205    -0.000009104182    -0.000001128493
      12        0.000011274831     0.000011460602    -0.000005587289
      13        0.000009883044     0.000001022751     0.000010385653
      14        0.000000221734    -0.000013251112     0.000009264695
      15        0.000011969048    -0.000000998616    -0.000005125813
      16       -0.000001838266    -0.000003147905     0.000000150736
      17       -0.000002733152    -0.000001613144    -0.000002573333
      18       -0.000000818218    -0.000000065077     0.000005391096
      19       -0.000001324130     0.000001314635    -0.000001125739
      20       -0.000001232198    -0.000000989789    -0.000000140399
      21        0.000000211055    -0.000001030441    -0.000000669706
      22       -0.000001303786    -0.000000380297     0.000001309214
      23        0.000001776209     0.000002661492     0.000000650006

  **** Optimization is complete! (in 7 steps) ****
    Final optimized geometry and variables:
    Molecular point group: c1

    Geometry (in Angstrom), charge = 0, multiplicity = 1:

    O           -1.758126883214    -0.353294176274     1.696578154863
    C           -2.271412164208    -0.509127233585     0.640320859735
    C           -3.520285373176    -1.323479827036     0.434712915754
    O           -1.819912720720     0.015054406529    -0.482998543498
    H           -4.305295501347    -0.911105203086     1.054274032781
    H           -3.830692167155    -1.332034600582    -0.597803363197
    H           -3.331094755029    -2.333720157637     0.772357399312
    C           -0.628555337328     0.792533058717    -0.444929884254
    C            0.619152185008    -0.072375080424    -0.434939937504
    H           -0.664338220266     1.385456334295    -1.347167526733
    H           -0.657436425501     1.447035715086     0.413195098405
    C            1.891804953816     0.769155525418    -0.477031682773
    H            0.587585431644    -0.737657495859    -1.292651268326
    H            0.617487583562    -0.690717632397     0.453991024508
    C            3.164925977620    -0.072415769689    -0.479310085046
    H            1.881241827729     1.402466811193    -1.361342647813
    H            1.909037813993     1.439190326377     0.378825709734
    C            4.436731757049     0.767895561633    -0.517298129509
    H            3.149798024935    -0.742630639643    -1.334274772893
    H            3.176428727759    -0.704646737924     0.403742532982
    H            4.470634656874     1.387517210261    -1.407329932482
    H            5.320768765117     0.140881986026    -0.517634786849
    H            4.497637513821     1.424653518988     0.344023431811

  Mulliken Charges: (a.u.)
   Center  Symbol    Alpha    Beta     Spin     Total
       1     O     4.20461  4.20461  0.00000 -0.40922
       2     C     2.80927  2.80927  0.00000  0.38146
       3     C     3.13986  3.13986  0.00000 -0.27972
       4     O     4.15373  4.15373  0.00000 -0.30747
       5     H     0.44202  0.44202  0.00000  0.11596
       6     H     0.44137  0.44137  0.00000  0.11727
       7     H     0.44282  0.44282  0.00000  0.11435
       8     C     2.98360  2.98360  0.00000  0.03281
       9     C     3.09705  3.09705  0.00000 -0.19410
      10     H     0.44215  0.44215  0.00000  0.11571
      11     H     0.44881  0.44881  0.00000  0.10238
      12     C     3.09762  3.09762  0.00000 -0.19524
      13     H     0.45221  0.45221  0.00000  0.09559
      14     H     0.44110  0.44110  0.00000  0.11780
      15     C     3.08350  3.08350  0.00000 -0.16701
      16     H     0.45524  0.45524  0.00000  0.08951
      17     H     0.45114  0.45114  0.00000  0.09771
      18     C     3.15032  3.15032  0.00000 -0.30064
      19     H     0.45423  0.45423  0.00000  0.09155
      20     H     0.45184  0.45184  0.00000  0.09632
      21     H     0.45549  0.45549  0.00000  0.08902
      22     H     0.44777  0.44777  0.00000  0.10445
      23     H     0.45424  0.45424  0.00000  0.09151

   Total alpha = 36.00000, Total beta = 36.00000, Total charge = -0.00000

*** Psi4 exiting successfully. Buy a developer a beer!
