  ==> Input File <==

--------------------------------------------------------------------------
set {
	reference rhf
	basis 6-31G*
}

set_num_threads( 4 )
memory 2 gb

molecule MOL {
0 1

H	 -2.694585	 0.703168	 0.836021
C	 -2.185656	 1.662932	 0.899162
O	 -0.807899	 1.517709	 0.772542
H	 -2.523220	 2.292205	 0.087246
H	 -2.453791	 2.134111	 1.843896
C	 -0.224245	 0.730090	 1.761609
C	 1.245474	 0.555825	 1.458686
H	 -0.335305	 1.204649	 2.737393
H	 -0.699164	 -0.247812	 1.808137
O	 1.392611	 -0.295398	 0.366430
H	 1.687090	 1.528874	 1.253362
H	 1.744712	 0.137829	 2.333748
C	 2.706965	 -0.449871	 -0.062409
H	 2.756559	 -0.644779	 -1.131878
H	 3.305899	 0.433456	 0.155466
H	 3.125548	 -1.294566	 0.467107

	symmetry c1
}
set optking {
	frozen_dihedral = ("
		7 10 13 14
	")
}

ee = optimize('scf')
oeprop('DIPOLE', 'QUADRUPOLE', 'MULLIKEN_CHARGES')
f=open( 'psi4out.xyz', 'w' )
f.write( "16  " )
f.write( str(ee) + "\n" )
f.write( MOL.save_string_xyz() )
f.close()
--------------------------------------------------------------------------

    Molecular point group: c1
  Charge       = 0
  Multiplicity = 1
  Basis Set: 6-31G*
  Basis Set:
  @DF-RHF Final Energy:  -306.97462373762528
    Total Energy =                       -306.9746237376252793
    Molecular point group: c1
  Basis Set: 6-31G*
  Basis Set:
  Basis Set: 6-31G*
  Basis Set:
  @DF-RHF Final Energy:  -306.97553361336827
    Total Energy =                       -306.9755336133683841
  Basis Set: 6-31G*
  Basis Set:
  Basis Set: 6-31G*
  Basis Set:
  @DF-RHF Final Energy:  -306.97574270778449
    Total Energy =                       -306.9757427077845477
  Basis Set: 6-31G*
  Basis Set:
  Basis Set: 6-31G*
  Basis Set:
  @DF-RHF Final Energy:  -306.97574375862985
    Total Energy =                       -306.9757437586299034
  Basis Set: 6-31G*
  Basis Set:
  Charge       = 0
  Multiplicity = 1
  Basis Set: 6-31G*
  Basis Set:

    Orbital Energies (a.u.)
    -----------------------

    Doubly Occupied:

       1A    -20.553339     2A    -20.551617     3A    -11.269163
       4A    -11.268267     5A    -11.263396     6A    -11.263164
       7A     -1.386973     8A     -1.369009     9A     -1.030696
      10A     -0.936181    11A     -0.891891    12A     -0.823787
      13A     -0.683120    14A     -0.679758    15A     -0.656168
      16A     -0.635592    17A     -0.628553    18A     -0.596457
      19A     -0.553119    20A     -0.535963    21A     -0.508151
      22A     -0.476514    23A     -0.461929    24A     -0.418715
      25A     -0.409014

  @DF-RHF Final Energy:  -306.97574394820253

   => Energetics <=

    Nuclear Repulsion Energy =            258.7053213269688285
    One-Electron Energy =                -931.6610553784255444
    Two-Electron Energy =                 365.9799901032544085
    DFT Exchange-Correlation Energy =       0.0000000000000000
    Empirical Dispersion Energy =           0.0000000000000000
    PCM Polarization Energy =               0.0000000000000000
    EFP Energy =                            0.0000000000000000
    Total Energy =                       -306.9757439482023074
    Molecular point group: c1
  Basis Set: 6-31G*
  Basis Set:

  -Total Gradient:
     Atom            X                  Y                   Z
    ------   -----------------  -----------------  -----------------
       1       -0.000000227196    -0.000000318070     0.000000571617
       2        0.000000763994     0.000002328043    -0.000003973789
       3       -0.000005783821    -0.000003828664    -0.000000285990
       4       -0.000002734835     0.000000265020    -0.000000012747
       5        0.000001168109    -0.000000768825     0.000000258259
       6        0.000004005307     0.000017311844     0.000007766363
       7       -0.000290117572     0.001952207220    -0.001526541451
       8       -0.000006235647     0.000001876473     0.000007326082
       9        0.000010302106     0.000003024399    -0.000003082650
      10        0.000451308270    -0.002075932594     0.002049324848
      11       -0.000004619006    -0.000004434724    -0.000000630714
      12        0.000003215208    -0.000005420856    -0.000005396310
      13       -0.000343540128    -0.002917575413    -0.000011844336
      14        0.000188931308     0.003012022945    -0.000520536288
      15        0.000001698076     0.000009964684     0.000004429231
      16       -0.000008134172     0.000009278519     0.000002627877

  **** Optimization is complete! (in 5 steps) ****
    Final optimized geometry and variables:
    Molecular point group: c1

    Geometry (in Angstrom), charge = 0, multiplicity = 1:

    H           -3.044407034055     0.085754685635    -0.046442753554
    C           -2.535028736155     1.044945899529     0.021683325116
    O           -1.156168858700     0.898212554840    -0.090535113645
    H           -2.863645709672     1.674458938713    -0.793713754876
    H           -2.812067966733     1.516456317631     0.963624300959
    C           -0.583650517945     0.110381604721     0.904943748271
    C            0.888929292625    -0.066551743890     0.617288343260
    H           -0.703593011088     0.585972435706     1.879225073879
    H           -1.061058141167    -0.866367689623     0.947681976116
    O            1.042770698529    -0.911824764515    -0.479090228962
    H            1.334317781973     0.905485597056     0.419260413450
    H            1.375343869066    -0.487011838357     1.498498779697
    C            2.352786502200    -1.076227339021    -0.926442311224
    H            2.322053297141    -1.263400145621    -1.991732155490
    H            2.945110421947    -0.178537851412    -0.765306771050
    H            2.842682573279    -1.906186707179    -0.422874038092

  Mulliken Charges: (a.u.)
   Center  Symbol    Alpha    Beta     Spin     Total
       1     H     0.42808  0.42808  0.00000  0.14384
       2     C     3.07945  3.07945  0.00000 -0.15890
       3     O     4.30088  4.30088  0.00000 -0.60175
       4     H     0.41136  0.41136  0.00000  0.17727
       5     H     0.43194  0.43194  0.00000  0.13613
       6     C     2.99354  2.99354  0.00000  0.01291
       7     C     2.99300  2.99300  0.00000  0.01401
       8     H     0.43237  0.43237  0.00000  0.13526
       9     H     0.42275  0.42275  0.00000  0.15449
      10     O     4.30349  4.30349  0.00000 -0.60698
      11     H     0.42209  0.42209  0.00000  0.15582
      12     H     0.43275  0.43275  0.00000  0.13450
      13     C     3.07703  3.07703  0.00000 -0.15406
      14     H     0.41297  0.41297  0.00000  0.17407
      15     H     0.43081  0.43081  0.00000  0.13839
      16     H     0.42750  0.42750  0.00000  0.14501

   Total alpha = 25.00000, Total beta = 25.00000, Total charge = -0.00000
