  ==> Input File <==

--------------------------------------------------------------------------
set {
	reference rhf
	basis 6-31G*
}

set_num_threads( 4 )
memory 2 gb

molecule MOL {
0 1

O	 1.204376	 1.323339	 -0.136250
C	 1.091334	 0.170667	 -0.403853
C	 -0.200320	 -0.610016	 -0.396320
O	 2.115346	 -0.597837	 -0.752818
C	 -1.412532	 0.227344	 -0.000452
H	 -0.325379	 -1.040263	 -1.386270
H	 -0.066731	 -1.452288	 0.277096
C	 -2.706999	 -0.587347	 -0.000541
H	 -1.506086	 1.067074	 -0.682072
H	 -1.246841	 0.654882	 0.983550
C	 -3.956778	 0.291888	 0.000910
H	 -2.726114	 -1.239230	 -0.871609
H	 -2.725217	 -1.240844	 0.869333
H	 -3.985213	 0.933254	 -0.875158
H	 -4.860123	 -0.309979	 0.000519
H	 -3.984618	 0.931166	 0.878514
C	 3.391438	 0.014150	 -0.799754
H	 3.400216	 0.819928	 -1.519568
H	 4.079785	 -0.761210	 -1.097990
H	 3.662619	 0.402469	 0.171418

	symmetry c1
}
set optking {
	frozen_dihedral = ("
		9 5 8 12
	")
}

ee = optimize('scf')
oeprop('DIPOLE', 'QUADRUPOLE', 'MULLIKEN_CHARGES')
f=open( 'psi4out.xyz', 'w' )
f.write( "20  " )
f.write( str(ee) + "\n" )
f.write( MOL.save_string_xyz() )
f.close()
--------------------------------------------------------------------------

    Molecular point group: c1
  Charge       = 0
  Multiplicity = 1
  Basis Set: 6-31G*
  Basis Set:
  @DF-RHF Final Energy:  -383.94058203114309
    Total Energy =                       -383.9405820311428670
    Molecular point group: c1
  Basis Set: 6-31G*
  Basis Set:
  Basis Set: 6-31G*
  Basis Set:
  @DF-RHF Final Energy:  -383.94070033476152
    Total Energy =                       -383.9407003347614591
  Basis Set: 6-31G*
  Basis Set:
  Basis Set: 6-31G*
  Basis Set:
  @DF-RHF Final Energy:  -383.94051742602670
    Total Energy =                       -383.9405174260266449
  Basis Set: 6-31G*
  Basis Set:
  Basis Set: 6-31G*
  Basis Set:
  @DF-RHF Final Energy:  -383.94073721974979
    Total Energy =                       -383.9407372197496215
  Basis Set: 6-31G*
  Basis Set:
  Basis Set: 6-31G*
  Basis Set:
  @DF-RHF Final Energy:  -383.94074005591540
    Total Energy =                       -383.9407400559155121
  Basis Set: 6-31G*
  Basis Set:
  Charge       = 0
  Multiplicity = 1
  Basis Set: 6-31G*
  Basis Set:

    Orbital Energies (a.u.)
    -----------------------

    Doubly Occupied:

       1A    -20.603831     2A    -20.545653     3A    -11.372515
       4A    -11.280990     5A    -11.236030     6A    -11.220206
       7A    -11.219159     8A    -11.210984     9A     -1.469541
      10A     -1.363002    11A     -1.088454    12A     -1.024501
      13A     -0.969283    14A     -0.886124    15A     -0.804432
      16A     -0.767811    17A     -0.697344    18A     -0.683565
      19A     -0.672220    20A     -0.643982    21A     -0.597573
      22A     -0.592953    23A     -0.578961    24A     -0.540805
      25A     -0.536055    26A     -0.522946    27A     -0.501456
      28A     -0.479565    29A     -0.473463    30A     -0.468136
      31A     -0.455624    32A     -0.437119

  @DF-RHF Final Energy:  -383.94074042426996

   => Energetics <=

    Nuclear Repulsion Energy =            381.0265867913642523
    One-Electron Energy =               -1278.0460866062235255
    Two-Electron Energy =                 513.0787593905894255
    DFT Exchange-Correlation Energy =       0.0000000000000000
    Empirical Dispersion Energy =           0.0000000000000000
    PCM Polarization Energy =               0.0000000000000000
    EFP Energy =                            0.0000000000000000
    Total Energy =                       -383.9407404242698476
    Molecular point group: c1
  Basis Set: 6-31G*
  Basis Set:

  -Total Gradient:
     Atom            X                  Y                   Z
    ------   -----------------  -----------------  -----------------
       1       -0.000002476826    -0.000003812035    -0.000009786479
       2        0.000000104877     0.000000825443     0.000013772372
       3       -0.000014285105     0.000005470814     0.000004981648
       4        0.000001725880     0.000002187560     0.000001176888
       5        0.001635525753    -0.002703532493    -0.002465917521
       6        0.000002602090     0.000006392899    -0.000003380685
       7       -0.000012120533     0.000004266601    -0.000002776506
       8       -0.001999208825     0.003121416872    -0.001366217802
       9       -0.001022627778     0.001736515608     0.002247379964
      10       -0.000022026557     0.000013076190     0.000009927413
      11        0.000009336374    -0.000004802943    -0.000026213972
      12        0.001387051856    -0.002145448173     0.001586061544
      13        0.000015495920    -0.000026916437     0.000009699730
      14        0.000007197696     0.000010066403     0.000008737297
      15        0.000003042937    -0.000001209012    -0.000011516264
      16        0.000009057484    -0.000013997925     0.000006371889
      17        0.000000650018    -0.000000944183    -0.000002663173
      18        0.000000381109     0.000000144672     0.000000123720
      19        0.000000778761     0.000000359455     0.000000077064
      20       -0.000000205137    -0.000000059316     0.000000162870

  **** Optimization is complete! (in 6 steps) ****
    Final optimized geometry and variables:
    Molecular point group: c1

    Geometry (in Angstrom), charge = 0, multiplicity = 1:

    O            1.230070287011     1.284333116906     0.181919151306
    C            1.117387606369     0.132875069105    -0.090859627336
    C           -0.176786918784    -0.643522824321    -0.106424709978
    O            2.144015961425    -0.637993895768    -0.426707191127
    C           -1.392450225722     0.196265907913     0.268427610454
    H           -0.285918049814    -1.073271381517    -1.098281951197
    H           -0.058506946101    -1.486388742194     0.569398269329
    C           -2.686933913101    -0.621807915711     0.300275292053
    H           -1.494044042548     1.031673745861    -0.417653958739
    H           -1.228021188132     0.646647957924     1.242630892737
    C           -3.940710677405     0.247946525773     0.354859306272
    H           -2.728605859220    -1.284679596836    -0.561804680106
    H           -2.667766890551    -1.279063814280     1.167677048749
    H           -4.020482859684     0.875491932607    -0.527904205010
    H           -4.838346717318    -0.359538036192     0.413104977316
    H           -3.925225283489     0.900628556791     1.223009099713
    C            3.422709875479    -0.030198283160    -0.452278783373
    H            3.445014255842     0.778055121621    -1.169030613433
    H            4.112853441450    -0.806864152136    -0.742871678635
    H            3.680556498479     0.353796034732     0.524230428139

  Mulliken Charges: (a.u.)
   Center  Symbol    Alpha    Beta     Spin     Total
       1     O     4.28588  4.28588  0.00000 -0.57176
       2     C     2.60527  2.60527  0.00000  0.78947
       3     C     3.20832  3.20832  0.00000 -0.41664
       4     O     4.30725  4.30725  0.00000 -0.61451
       5     C     3.15214  3.15214  0.00000 -0.30429
       6     H     0.40042  0.40042  0.00000  0.19917
       7     H     0.40052  0.40052  0.00000  0.19896
       8     C     3.15459  3.15459  0.00000 -0.30918
       9     H     0.41225  0.41225  0.00000  0.17550
      10     H     0.41110  0.41110  0.00000  0.17779
      11     C     3.23948  3.23948  0.00000 -0.47896
      12     H     0.42345  0.42345  0.00000  0.15310
      13     H     0.42204  0.42204  0.00000  0.15591
      14     H     0.42010  0.42010  0.00000  0.15980
      15     H     0.41874  0.41874  0.00000  0.16253
      16     H     0.41952  0.41952  0.00000  0.16096
      17     C     3.09246  3.09246  0.00000 -0.18491
      18     H     0.40903  0.40903  0.00000  0.18194
      19     H     0.40840  0.40840  0.00000  0.18320
      20     H     0.40905  0.40905  0.00000  0.18191

   Total alpha = 32.00000, Total beta = 32.00000, Total charge = -0.00000
