                              Psi4 1.0.54 Driver

  ==> Input File <==

--------------------------------------------------------------------------
set {
	reference rhf
	basis cc-pvtz
}

set_num_threads( 4 )
memory 2 gb

molecule MOL {
0 1

H	 -2.531549	 -0.609576	 -0.477449
N	 -1.798277	 0.067096	 -0.477542
C	 -0.561396	 -0.500007	 0.035200
H	 -2.102140	 0.831001	 0.089426
C	 0.575129	 0.507849	 -0.048832
H	 -0.316071	 -1.365335	 -0.571629
H	 -0.649915	 -0.854086	 1.063406
C	 1.951750	 -0.141983	 0.035101
H	 0.478254	 1.061643	 -0.975981
H	 0.467676	 1.231891	 0.755499
H	 2.101550	 -0.848142	 -0.774949
H	 2.738260	 0.600794	 -0.026526
H	 2.078939	 -0.679792	 0.968824

	symmetry c1
}
set optking {
	frozen_dihedral = ("
		6 3 5 9
	")
}

ee,wfn = optimize('scf', return_wfn=True)
oeprop( wfn, 'DIPOLE', 'QUADRUPOLE', 'MULLIKEN_CHARGES')
f=open( 'psi4out.xyz', 'w' )
f.write( "13  " )
f.write( str(ee) + "\n" )
f.write( MOL.save_string_xyz() )
f.close()
--------------------------------------------------------------------------

    Molecular point group: c1
  Charge       = 0
  Multiplicity = 1
  Basis Set: CC-PVTZ
  Basis Set:
  @DF-RHF Final Energy:  -173.35132980957073
    Total Energy =                       -173.3513298095707000
    Molecular point group: c1
  Basis Set: CC-PVTZ
  Basis Set:
  Basis Set: CC-PVTZ
  Basis Set:
  @DF-RHF Final Energy:  -173.35147652908805
    Total Energy =                       -173.3514765290882451
  Basis Set: CC-PVTZ
  Basis Set:
  Basis Set: CC-PVTZ
  Basis Set:
  @DF-RHF Final Energy:  -173.35151309411518
    Total Energy =                       -173.3515130941152051
  Basis Set: CC-PVTZ
  Basis Set:
  Basis Set: CC-PVTZ
  Basis Set:
  @DF-RHF Final Energy:  -173.35151422615834
    Total Energy =                       -173.3515142261584288
  Basis Set: CC-PVTZ
  Basis Set:
  Charge       = 0
  Multiplicity = 1
  Basis Set: CC-PVTZ
  Basis Set:

    Orbital Energies (a.u.)
    -----------------------

    Doubly Occupied:

       1A    -15.527326     2A    -11.238266     3A    -11.210384
       4A    -11.207379     5A     -1.178810     6A     -1.036310
       7A     -0.899484     8A     -0.801075     9A     -0.657804
      10A     -0.637583    11A     -0.601822    12A     -0.565804
      13A     -0.533103    14A     -0.493226    15A     -0.475965
      16A     -0.468555    17A     -0.384245

  @DF-RHF Final Energy:  -173.35151437409297

   => Energetics <=

    Nuclear Repulsion Energy =            131.9384153201467598
    One-Electron Energy =                -494.7455809819597334
    Two-Electron Energy =                 189.4556512877198884
    DFT Exchange-Correlation Energy =       0.0000000000000000
    Empirical Dispersion Energy =           0.0000000000000000
    PCM Polarization Energy =               0.0000000000000000
    EFP Energy =                            0.0000000000000000
    Total Energy =                       -173.3515143740930853
    Molecular point group: c1
  Basis Set: CC-PVTZ
  Basis Set:

  -Total Gradient:
     Atom            X                  Y                   Z
    ------   -----------------  -----------------  -----------------
       1       -0.000012509286    -0.000006063792    -0.000007408581
       2        0.000034688493    -0.000016115500     0.000008391288
       3       -0.002338169338     0.002420282110    -0.003039820986
       4       -0.000009602703     0.000013693479     0.000008423877
       5        0.002776849539    -0.003301237150    -0.001347286753
       6        0.001538630576    -0.001506370909     0.002733605623
       7       -0.000009122268    -0.000003785304     0.000023349250
       8       -0.000009947648     0.000017822581    -0.000001660307
       9       -0.001960545208     0.002377164596     0.001608273217
      10       -0.000001356513     0.000009236339     0.000009196508
      11       -0.000002870623     0.000007275289     0.000007169537
      12       -0.000003442534    -0.000009000234    -0.000001024744
      13       -0.000002602485    -0.000002901506    -0.000001207929

  **** Optimization is complete! (in 5 steps) ****
    Final optimized geometry and variables:
    Molecular point group: c1

    Geometry (in Angstrom), charge = 0, multiplicity = 1:

    H           -2.563445463466    -0.574737459639    -0.292145231443
    N           -1.822179093047     0.091427891047    -0.343939621858
    C           -0.572227940423    -0.480864709868     0.126990332141
    H           -2.089897231397     0.871458893389     0.219845340020
    C            0.568705865247     0.525267668397     0.036311556585
    H           -0.336627282317    -1.349947215657    -0.478439363600
    H           -0.634187799249    -0.845642661184     1.154056461591
    C            1.945521921594    -0.116889717770     0.147956222985
    H            0.469396023772     1.078217612429    -0.891188220656
    H            0.451249655542     1.260283716454     0.830006373677
    H            2.123626192973    -0.804254132142    -0.671924314345
    H            2.728855092765     0.631491890824     0.128637158033
    H            2.045965906738    -0.674114362851     1.073872361425

  Mulliken Charges: (a.u.)
   Center  Symbol    Alpha    Beta     Spin     Total
       1     H     0.43016  0.43016  0.00000  0.13968
       2     N     3.68801  3.68801  0.00000 -0.37601
       3     C     3.02115  3.02115  0.00000 -0.04231
       4     H     0.43087  0.43087  0.00000  0.13826
       5     C     3.08193  3.08193  0.00000 -0.16386
       6     H     0.45991  0.45991  0.00000  0.08019
       7     H     0.46939  0.46939  0.00000  0.06123
       8     C     3.15101  3.15101  0.00000 -0.30201
       9     H     0.44897  0.44897  0.00000  0.10207
      10     H     0.45948  0.45948  0.00000  0.08104
      11     H     0.45415  0.45415  0.00000  0.09169
      12     H     0.44826  0.44826  0.00000  0.10349
      13     H     0.45672  0.45672  0.00000  0.08655

   Total alpha = 17.00000, Total beta = 17.00000, Total charge =  0.00000

*** Psi4 exiting successfully. Buy a developer a beer!
