                              Psi4 1.0.54 Driver

  ==> Input File <==

--------------------------------------------------------------------------
set {
	reference rhf
	basis cc-pvtz
}

set_num_threads( 4 )
memory 2 gb

molecule MOL {
0 1

H	 -1.835082	 1.385983	 0.000069
C	 -1.300516	 0.441153	 -0.000028
O	 -0.006604	 0.654344	 -0.000106
O	 -1.828920	 -0.612308	 0.000113
C	 0.852093	 -0.482521	 -0.000161
C	 0.004640	 -1.700448	 -0.281549
H	 1.341765	 -0.550373	 0.960868
H	 1.614659	 -0.344199	 -0.753370
H	 -0.756670	 -1.824239	 0.478091
H	 0.629673	 -2.585400	 -0.288493
H	 -0.482429	 -1.617018	 -1.244758

	symmetry c1
}
set optking {
	frozen_dihedral = ("
		7 5 3 2
	")
}

ee,wfn = optimize('scf', return_wfn=True)
oeprop( wfn, 'DIPOLE', 'QUADRUPOLE', 'MULLIKEN_CHARGES')
f=open( 'psi4out.xyz', 'w' )
f.write( "11  " )
f.write( str(ee) + "\n" )
f.write( MOL.save_string_xyz() )
f.close()
--------------------------------------------------------------------------

    Molecular point group: c1
  Charge       = 0
  Multiplicity = 1
  Basis Set: CC-PVTZ
  Basis Set:
  @DF-RHF Final Energy:  -266.86674134293952
    Total Energy =                       -266.8667413429396902
    Molecular point group: c1
  Basis Set: CC-PVTZ
  Basis Set:
  Basis Set: CC-PVTZ
  Basis Set:
  @DF-RHF Final Energy:  -266.79332282049040
    Total Energy =                       -266.7933228204906300
  Basis Set: CC-PVTZ
  Basis Set:
  Basis Set: CC-PVTZ
  Basis Set:
  @DF-RHF Final Energy:  -266.88416361508655
    Total Energy =                       -266.8841636150864929
  Basis Set: CC-PVTZ
  Basis Set:
  Basis Set: CC-PVTZ
  Basis Set:
  @DF-RHF Final Energy:  -266.89944786390259
    Total Energy =                       -266.8994478639025374
  Basis Set: CC-PVTZ
  Basis Set:
  @DF-RHF Final Energy:  -266.91819847481531
    Total Energy =                       -266.9181984748154264
  @DF-RHF Final Energy:  -266.91989488700074
    Total Energy =                       -266.9198948870007371
  @DF-RHF Final Energy:  -266.92054179607459
    Total Energy =                       -266.9205417960745308
  @DF-RHF Final Energy:  -266.92071639952474
    Total Energy =                       -266.9207163995248493
  Basis Set: CC-PVTZ
  Basis Set:
  @DF-RHF Final Energy:  -266.92079093403504
    Total Energy =                       -266.9207909340349829
  Basis Set: CC-PVTZ
  Basis Set:
  Basis Set: CC-PVTZ
  Basis Set:
  @DF-RHF Final Energy:  -266.92084160775875
    Total Energy =                       -266.9208416077585753
  Basis Set: CC-PVTZ
  Basis Set:
  Basis Set: CC-PVTZ
  Basis Set:
  @DF-RHF Final Energy:  -266.92085069477645
    Total Energy =                       -266.9208506947764477
  Basis Set: CC-PVTZ
  Basis Set:
  Charge       = 0
  Multiplicity = 1
  Basis Set: CC-PVTZ
  Basis Set:

    Orbital Energies (a.u.)
    -----------------------

    Doubly Occupied:

       1A    -20.602168     2A    -20.541033     3A    -11.370675
       4A    -11.295642     5A    -11.219437     6A     -1.471375
       7A     -1.376271     8A     -1.050688     9A     -0.920291
      10A     -0.795964    11A     -0.721907    12A     -0.687087
      13A     -0.675006    14A     -0.611432    15A     -0.584534
      16A     -0.547271    17A     -0.529802    18A     -0.505451
      19A     -0.453445    20A     -0.447788

  @DF-RHF Final Energy:  -266.92085151906736

   => Energetics <=

    Nuclear Repulsion Energy =            182.4872168373719035
    One-Electron Energy =                -726.0016044166377469
    Two-Electron Energy =                 276.5935360601984030
    DFT Exchange-Correlation Energy =       0.0000000000000000
    Empirical Dispersion Energy =           0.0000000000000000
    PCM Polarization Energy =               0.0000000000000000
    EFP Energy =                            0.0000000000000000
    Total Energy =                       -266.9208515190674689
    Molecular point group: c1
  Basis Set: CC-PVTZ
  Basis Set:

  -Total Gradient:
     Atom            X                  Y                   Z
    ------   -----------------  -----------------  -----------------
       1        0.000013464122    -0.000004545943    -0.000017975294
       2       -0.000282178367    -0.001283638707    -0.002865089920
       3        0.000843155185     0.002115995939     0.004116147894
       4        0.000041062663     0.000043397711    -0.000012240990
       5       -0.003442342398    -0.001125643163     0.000274923381
       6        0.000008232862    -0.000099049676     0.000022872252
       7        0.002782638621     0.000417311018    -0.001528180282
       8        0.000018001416    -0.000058184083     0.000017831760
       9        0.000009611454     0.000005734728     0.000003572189
      10        0.000007352604    -0.000014529416    -0.000008263438
      11        0.000001001836     0.000003151592    -0.000003597550

  **** Optimization is complete! (in 12 steps) ****
    Final optimized geometry and variables:
    Molecular point group: c1

    Geometry (in Angstrom), charge = 0, multiplicity = 1:

    H           -0.634664653525     1.993307835608    -0.930265040465
    C           -0.573093499783     1.051825820634    -0.391245661919
    O            0.686277239268     0.704101928888    -0.295116995504
    O           -1.518333606721     0.488499880422     0.028957743838
    C            1.189179593684    -0.524442804697     0.241424047389
    C            0.235424281804    -1.691096817868     0.408793302204
    H            1.671834279061    -0.271475014004     1.175735297484
    H            1.971438495809    -0.799876146077    -0.451375540310
    H           -0.506550989681    -1.517685986839     1.170100986435
    H            0.837221336140    -2.548301390312     0.692400128900
    H           -0.272728273791    -1.927284585492    -0.515986880160

  Mulliken Charges: (a.u.)
   Center  Symbol    Alpha    Beta     Spin     Total
       1     H     0.44646  0.44646  0.00000  0.10708
       2     C     2.84581  2.84581  0.00000  0.30838
       3     O     4.14804  4.14804  0.00000 -0.29608
       4     O     4.19564  4.19564  0.00000 -0.39128
       5     C     2.97361  2.97361  0.00000  0.05277
       6     C     3.15057  3.15057  0.00000 -0.30113
       7     H     0.45366  0.45366  0.00000  0.09268
       8     H     0.45114  0.45114  0.00000  0.09773
       9     H     0.43752  0.43752  0.00000  0.12496
      10     H     0.45104  0.45104  0.00000  0.09793
      11     H     0.44652  0.44652  0.00000  0.10697

   Total alpha = 20.00000, Total beta = 20.00000, Total charge = -0.00000

*** Psi4 exiting successfully. Buy a developer a beer!
