  ==> Input File <==

--------------------------------------------------------------------------
set {
	reference rhf
	basis cc-pvtz
}

set_num_threads( 4 )
memory 2 gb

molecule MOL {
0 1

H	 -0.430136	 2.862367	 -1.140039
C	 0.322319	 2.332958	 -0.539725
C	 0.062554	 0.862911	 -0.350953
O	 1.251605	 2.919581	 -0.104460
C	 -1.339253	 0.577611	 0.196911
H	 0.831321	 0.457080	 0.293867
H	 0.165458	 0.399143	 -1.329423
C	 -1.813142	 -0.849710	 -0.061612
H	 -2.032833	 1.276441	 -0.256032
H	 -1.357249	 0.782269	 1.263793
H	 -1.839268	 -1.063526	 -1.124230
H	 -2.810118	 -1.001930	 0.334000
H	 -1.159274	 -1.579980	 0.402282

	symmetry c1
}
set optking {
	frozen_dihedral = ("
		6 3 5 9
	")
}

ee = optimize('scf')
oeprop('DIPOLE', 'QUADRUPOLE', 'MULLIKEN_CHARGES')
f=open( 'psi4out.xyz', 'w' )
f.write( "13  " )
f.write( str(ee) + "\n" )
f.write( MOL.save_string_xyz() )
f.close()
--------------------------------------------------------------------------

    Molecular point group: c1
  Charge       = 0
  Multiplicity = 1
  Basis Set: CC-PVTZ
  Basis Set:
  @DF-RHF Final Energy:  -231.07018512493460
    Total Energy =                       -231.0701851249346817
    Molecular point group: c1
  Basis Set: CC-PVTZ
  Basis Set:
  Basis Set: CC-PVTZ
  Basis Set:
  @DF-RHF Final Energy:  -231.07038333355155
    Total Energy =                       -231.0703833335514332
  Basis Set: CC-PVTZ
  Basis Set:
  Basis Set: CC-PVTZ
  Basis Set:
  @DF-RHF Final Energy:  -231.07040943908154
    Total Energy =                       -231.0704094390814589
  Basis Set: CC-PVTZ
  Basis Set:
  Basis Set: CC-PVTZ
  Basis Set:
  @DF-RHF Final Energy:  -231.07028639631554
    Total Energy =                       -231.0702863963153959
  Basis Set: CC-PVTZ
  Basis Set:
  Basis Set: CC-PVTZ
  Basis Set:
  @DF-RHF Final Energy:  -231.07042874289010
    Total Energy =                       -231.0704287428901580
  Basis Set: CC-PVTZ
  Basis Set:
  Basis Set: CC-PVTZ
  Basis Set:
  @DF-RHF Final Energy:  -231.07043479141251
    Total Energy =                       -231.0704347914123389
  Basis Set: CC-PVTZ
  Basis Set:
  Basis Set: CC-PVTZ
  Basis Set:
  @DF-RHF Final Energy:  -231.07043594969949
    Total Energy =                       -231.0704359496996290
  Basis Set: CC-PVTZ
  Basis Set:
  Charge       = 0
  Multiplicity = 1
  Basis Set: CC-PVTZ
  Basis Set:

    Orbital Energies (a.u.)
    -----------------------

    Doubly Occupied:

       1A    -20.552771     2A    -11.321743     3A    -11.237438
       4A    -11.234752     5A    -11.222448     6A     -1.407625
       7A     -1.088023     8A     -0.977808     9A     -0.841310
      10A     -0.794348    11A     -0.680975    12A     -0.645295
      13A     -0.628615    14A     -0.591184    15A     -0.562939
      16A     -0.531960    17A     -0.517922    18A     -0.491098
      19A     -0.485933    20A     -0.413105

  @DF-RHF Final Energy:  -231.07043610996476

   => Energetics <=

    Nuclear Repulsion Energy =            170.8531761032947429
    One-Electron Energy =                -651.3926460108463061
    Two-Electron Energy =                 249.4690337975868033
    DFT Exchange-Correlation Energy =       0.0000000000000000
    Empirical Dispersion Energy =           0.0000000000000000
    PCM Polarization Energy =               0.0000000000000000
    EFP Energy =                            0.0000000000000000
    Total Energy =                       -231.0704361099647599
    Molecular point group: c1
  Basis Set: CC-PVTZ
  Basis Set:

  -Total Gradient:
     Atom            X                  Y                   Z
    ------   -----------------  -----------------  -----------------
       1       -0.000005170084     0.000008727677     0.000007942526
       2        0.000011787033    -0.000007278905    -0.000026615133
       3       -0.000025406598    -0.002685674546    -0.001318484148
       4       -0.000009482138    -0.000003959401     0.000006697635
       5       -0.000563264950    -0.001646090641    -0.002233311900
       6        0.000098399452     0.002491305725     0.001470435499
       7       -0.000000392912     0.000000075540    -0.000006664472
       8        0.000002545131    -0.000006145482    -0.000009865686
       9        0.000497244696     0.001844869362     0.002115490677
      10       -0.000002015520     0.000007000220    -0.000002667628
      11       -0.000005222558    -0.000006780048    -0.000004165608
      12        0.000001295496     0.000001267813     0.000003963970
      13       -0.000000317047     0.000002682689    -0.000002755733

  **** Optimization is complete! (in 8 steps) ****
    Final optimized geometry and variables:
    Molecular point group: c1

    Geometry (in Angstrom), charge = 0, multiplicity = 1:

    H           -0.049962103495     1.702991630600    -1.037848401293
    C            0.641489234663     1.165493940698    -0.375398357695
    C            0.374097461118    -0.308884045835    -0.235156221120
    O            1.513061281086     1.749165228816     0.169470034860
    C           -1.029519793217    -0.577168493151     0.320781479737
    H            1.138050791429    -0.719992014214     0.411121603936
    H            0.471545358199    -0.752690146469    -1.223131749767
    C           -1.495061689634    -2.011215742156     0.101697574093
    H           -1.738202740454     0.117636266555    -0.121321904942
    H           -1.027306482552    -0.354008141512     1.382729409604
    H           -1.562893805438    -2.243041031926    -0.955578963801
    H           -2.471426176940    -2.174430913407     0.541755872021
    H           -0.805842958873    -2.717046778378     0.552044755229

  Mulliken Charges: (a.u.)
   Center  Symbol    Alpha    Beta     Spin     Total
       1     H     0.46580  0.46580  0.00000  0.06840
       2     C     2.90597  2.90597  0.00000  0.18806
       3     C     3.07867  3.07867  0.00000 -0.15734
       4     O     4.16381  4.16381  0.00000 -0.32763
       5     C     3.09558  3.09558  0.00000 -0.19116
       6     H     0.44205  0.44205  0.00000  0.11590
       7     H     0.45161  0.45161  0.00000  0.09677
       8     C     3.14703  3.14703  0.00000 -0.29406
       9     H     0.45277  0.45277  0.00000  0.09445
      10     H     0.44507  0.44507  0.00000  0.10986
      11     H     0.45433  0.45433  0.00000  0.09134
      12     H     0.44597  0.44597  0.00000  0.10805
      13     H     0.45133  0.45133  0.00000  0.09734

   Total alpha = 20.00000, Total beta = 20.00000, Total charge = -0.00000
