  ==> Input File <==

--------------------------------------------------------------------------
set {
	reference rhf
	basis 6-31G*
}

set_num_threads( 1 )
memory 2 gb

molecule MOL {
0 1

H	 -4.093300	 -0.311644	 -1.328267
O	 -3.452007	 0.283848	 -0.965577
C	 -3.181085	 -0.079926	 0.364119
C	 -1.765924	 0.277073	 0.805136
H	 -3.327791	 -1.152017	 0.410903
H	 -3.905698	 0.375695	 1.036898
C	 -0.677594	 -0.417312	 -0.014550
H	 -1.637766	 1.358238	 0.744969
H	 -1.659588	 0.017670	 1.857098
C	 0.738335	 -0.034840	 0.421385
H	 -0.814977	 -0.178223	 -1.064632
H	 -0.802730	 -1.495410	 0.071702
C	 1.822265	 -0.738362	 -0.399735
H	 0.853533	 1.043532	 0.342250
H	 0.871597	 -0.279636	 1.474438
C	 3.258060	 -0.455774	 0.057203
H	 1.718003	 -0.459167	 -1.447053
H	 1.651028	 -1.811884	 -0.354513
C	 3.709143	 0.994797	 -0.123830
H	 3.930637	 -1.101717	 -0.501982
H	 3.365259	 -0.739518	 1.102287
H	 3.601178	 1.310569	 -1.158127
H	 4.753787	 1.110486	 0.148516
H	 3.135362	 1.678896	 0.492569

	symmetry c1
}
set optking {
	frozen_dihedral = ("
		20 16 13 17,
		17 13 10 7,
		13 10 7 11,
		11 7 4 3,
		7 4 3 2
	")
}

ee = energy('scf')
oeprop('DIPOLE', 'QUADRUPOLE', 'MULLIKEN_CHARGES')
f=open( 'psi4out.xyz', 'w' )
f.write( "24  " )
f.write( str(ee) + "\n" )
f.write( MOL.save_string_xyz() )
f.close()
--------------------------------------------------------------------------

    Molecular point group: c1

    Geometry (in Angstrom), charge = 0, multiplicity = 1:

       Center              X                  Y                   Z               Mass
    ------------   -----------------  -----------------  -----------------  -----------------
           H         -4.087462497541    -0.298286318078    -1.325802027403     1.007825032070
           O         -3.446169497541     0.297205681922    -0.963112027403    15.994914619560
           C         -3.175247497541    -0.066568318078     0.366583972597    12.000000000000
           C         -1.760086497541     0.290430681922     0.807600972597    12.000000000000
           H         -3.321953497541    -1.138659318078     0.413367972597     1.007825032070
           H         -3.899860497541     0.389052681922     1.039362972597     1.007825032070
           C         -0.671756497541    -0.403954318078    -0.012085027403    12.000000000000
           H         -1.631928497541     1.371595681922     0.747433972597     1.007825032070
           H         -1.653750497541     0.031027681922     1.859562972597     1.007825032070
           C          0.744172502459    -0.021482318078     0.423849972597    12.000000000000
           H         -0.809139497541    -0.164865318078    -1.062167027403     1.007825032070
           H         -0.796892497541    -1.482052318078     0.074166972597     1.007825032070
           C          1.828102502459    -0.725004318078    -0.397270027403    12.000000000000
           H          0.859370502459     1.056889681922     0.344714972597     1.007825032070
           H          0.877434502459    -0.266278318078     1.476902972597     1.007825032070
           C          3.263897502459    -0.442416318078     0.059667972597    12.000000000000
           H          1.723840502459    -0.445809318078    -1.444588027403     1.007825032070
           H          1.656865502459    -1.798526318078    -0.352048027403     1.007825032070
           C          3.714980502459     1.008154681922    -0.121365027403    12.000000000000
           H          3.936474502459    -1.088359318078    -0.499517027403     1.007825032070
           H          3.371096502459    -0.726160318078     1.104751972597     1.007825032070
           H          3.607015502459     1.323926681922    -1.155662027403     1.007825032070
           H          4.759624502459     1.123843681922     0.150980972597     1.007825032070
           H          3.141199502459     1.692253681922     0.495033972597     1.007825032070

  Charge       = 0
  Multiplicity = 1
  Basis Set: 6-31G*
  Basis Set:

    Orbital Energies (a.u.)
    -----------------------

    Doubly Occupied:

       1A    -20.551087     2A    -11.268010     3A    -11.214858
       4A    -11.212398     5A    -11.210091     6A    -11.209482
       7A    -11.208248     8A    -11.205350     9A     -1.358727
      10A     -1.086210    11A     -1.046411    12A     -0.984065
      13A     -0.912656    14A     -0.844916    15A     -0.790212
      16A     -0.774203    17A     -0.702736    18A     -0.640253
      19A     -0.635221    20A     -0.609860    21A     -0.592183
      22A     -0.577790    23A     -0.558677    24A     -0.535140
      25A     -0.515368    26A     -0.504983    27A     -0.493516
      28A     -0.474418    29A     -0.464976    30A     -0.456677
      31A     -0.450215    32A     -0.447897    33A     -0.419194

  @DF-RHF Final Energy:  -349.24526251391677

   => Energetics <=

    Nuclear Repulsion Energy =            383.8984685620577579
    One-Electron Energy =               -1234.3760318825125069
    Two-Electron Energy =                 501.2323008065379781
    DFT Exchange-Correlation Energy =       0.0000000000000000
    Empirical Dispersion Energy =           0.0000000000000000
    PCM Polarization Energy =               0.0000000000000000
    EFP Energy =                            0.0000000000000000
    Total Energy =                       -349.2452625139167139

  Mulliken Charges: (a.u.)
   Center  Symbol    Alpha    Beta     Spin     Total
       1     H     0.27945  0.27945  0.00000  0.44111
       2     O     4.37214  4.37214  0.00000 -0.74429
       3     C     2.99368  2.99368  0.00000  0.01264
       4     C     3.16173  3.16173  0.00000 -0.32346
       5     H     0.43521  0.43521  0.00000  0.12957
       6     H     0.42697  0.42697  0.00000  0.14607
       7     C     3.15458  3.15458  0.00000 -0.30915
       8     H     0.41586  0.41586  0.00000  0.16828
       9     H     0.42269  0.42269  0.00000  0.15462
      10     C     3.15404  3.15404  0.00000 -0.30808
      11     H     0.40900  0.40900  0.00000  0.18201
      12     H     0.42788  0.42788  0.00000  0.14423
      13     C     3.15215  3.15215  0.00000 -0.30429
      14     H     0.42075  0.42075  0.00000  0.15850
      15     H     0.42626  0.42626  0.00000  0.14747
      16     C     3.15216  3.15216  0.00000 -0.30433
      17     H     0.42347  0.42347  0.00000  0.15307
      18     H     0.42334  0.42334  0.00000  0.15332
      19     C     3.24101  3.24101  0.00000 -0.48202
      20     H     0.42165  0.42165  0.00000  0.15670
      21     H     0.42406  0.42406  0.00000  0.15188
      22     H     0.42201  0.42201  0.00000  0.15598
      23     H     0.41997  0.41997  0.00000  0.16007
      24     H     0.41996  0.41996  0.00000  0.16008

   Total alpha = 33.00000, Total beta = 33.00000, Total charge =  0.00000
