  ==> Input File <==

--------------------------------------------------------------------------
set {
	reference rhf
	basis 6-31G*
}

set_num_threads( 4 )
memory 2 gb

molecule MOL {
0 1

H	 -2.098997	 -0.674324	 -0.616650
O	 -2.035884	 -0.060112	 0.102722
C	 -0.955155	 0.788182	 -0.092531
C	 0.353668	 0.040312	 -0.004810
H	 -0.985057	 1.290372	 -1.054184
H	 -0.974469	 1.533190	 0.688632
F	 1.158673	 0.609707	 0.885318
F	 0.148015	 -1.208768	 0.380812
F	 0.994998	 0.008969	 -1.155142

	symmetry c1
}
set optking {
	frozen_dihedral = ("
		7 4 3 5
	")
}

ee = optimize('scf')
oeprop('DIPOLE', 'QUADRUPOLE', 'MULLIKEN_CHARGES')
f=open( 'psi4out.xyz', 'w' )
f.write( "9  " )
f.write( str(ee) + "\n" )
f.write( MOL.save_string_xyz() )
f.close()
--------------------------------------------------------------------------

    Molecular point group: c1
  Charge       = 0
  Multiplicity = 1
  Basis Set: 6-31G*
  Basis Set:
  @DF-RHF Final Energy:  -450.65412042885583
    Total Energy =                       -450.6541204288556060
    Molecular point group: c1
  Basis Set: 6-31G*
  Basis Set:
  Basis Set: 6-31G*
  Basis Set:
  @DF-RHF Final Energy:  -450.65467584202582
    Total Energy =                       -450.6546758420258811
  Basis Set: 6-31G*
  Basis Set:
  Basis Set: 6-31G*
  Basis Set:
  @DF-RHF Final Energy:  -450.65531582840418
    Total Energy =                       -450.6553158284040137
  Basis Set: 6-31G*
  Basis Set:
  Basis Set: 6-31G*
  Basis Set:
  @DF-RHF Final Energy:  -450.65534583694472
    Total Energy =                       -450.6553458369448890
  Basis Set: 6-31G*
  Basis Set:
  Basis Set: 6-31G*
  Basis Set:
  @DF-RHF Final Energy:  -450.65534864224742
    Total Energy =                       -450.6553486422477022
  Basis Set: 6-31G*
  Basis Set:
  Charge       = 0
  Multiplicity = 1
  Basis Set: 6-31G*
  Basis Set:

    Orbital Energies (a.u.)
    -----------------------

    Doubly Occupied:

       1A    -26.341496     2A    -26.339712     3A    -26.339624
       4A    -20.589379     5A    -11.501148     6A    -11.309805
       7A     -1.739578     8A     -1.637361     9A     -1.634932
      10A     -1.400980    11A     -1.042250    12A     -0.923526
      13A     -0.828523    14A     -0.826655    15A     -0.806213
      16A     -0.724938    17A     -0.711674    18A     -0.697922
      19A     -0.662735    20A     -0.657578    21A     -0.640512
      22A     -0.626706    23A     -0.610324    24A     -0.526519
      25A     -0.479741

  @DF-RHF Final Energy:  -450.65534881875726

   => Energetics <=

    Nuclear Repulsion Energy =            275.8472529667003528
    One-Electron Energy =               -1173.8055489576468062
    Two-Electron Energy =                 447.3029471721890786
    DFT Exchange-Correlation Energy =       0.0000000000000000
    Empirical Dispersion Energy =           0.0000000000000000
    PCM Polarization Energy =               0.0000000000000000
    EFP Energy =                            0.0000000000000000
    Total Energy =                       -450.6553488187573748
    Molecular point group: c1
  Basis Set: 6-31G*
  Basis Set:

  -Total Gradient:
     Atom            X                  Y                   Z
    ------   -----------------  -----------------  -----------------
       1       -0.000004108541     0.000008335411     0.000000805894
       2        0.000006143656    -0.000020463382     0.000008404099
       3        0.000339394789     0.000684334348     0.000571826488
       4        0.000276653891     0.000321537205    -0.000748897307
       5       -0.000336839059    -0.000669422900    -0.000338036706
       6        0.000005150172     0.000002966581     0.000001456704
       7       -0.000283545458    -0.000398088057     0.000521534797
       8       -0.000006995154     0.000059914574     0.000007663407
       9        0.000004145708     0.000010886218    -0.000024757379

  **** Optimization is complete! (in 6 steps) ****
    Final optimized geometry and variables:
    Molecular point group: c1

    Geometry (in Angstrom), charge = 0, multiplicity = 1:

    H           -2.138198767097    -0.678864515677    -0.607359628401
    O           -2.078962016807    -0.027345854929     0.078129518713
    C           -0.971899057037     0.786012193427    -0.114428152676
    C            0.358420941040     0.030734051801    -0.005329794773
    H           -0.990759629249     1.279333185110    -1.079895528392
    H           -0.994781575541     1.535949520642     0.660538339913
    F            1.161626380089     0.594314061961     0.881774920428
    F            0.190813550056    -1.228557824033     0.347773443831
    F            1.004103679844     0.028050919279    -1.165218152778

  Mulliken Charges: (a.u.)
   Center  Symbol    Alpha    Beta     Spin     Total
       1     H     0.27425  0.27425  0.00000  0.45149
       2     O     4.35839  4.35839  0.00000 -0.71679
       3     C     3.07053  3.07053  0.00000 -0.14107
       4     C     2.45625  2.45625  0.00000  1.08749
       5     H     0.40513  0.40513  0.00000  0.18974
       6     H     0.39112  0.39112  0.00000  0.21775
       7     F     4.68219  4.68219  0.00000 -0.36438
       8     F     4.67688  4.67688  0.00000 -0.35376
       9     F     4.68524  4.68524  0.00000 -0.37048

   Total alpha = 25.00000, Total beta = 25.00000, Total charge = -0.00000
