  ==> Input File <==

--------------------------------------------------------------------------
set {
	reference rhf
	basis cc-pvtz
}

set_num_threads( 4 )
memory 2 gb

molecule MOL {
0 1

O	 0.784939	 1.235445	 -0.385848
C	 0.576499	 0.134701	 -0.003900
C	 -0.765656	 -0.550508	 -0.002152
O	 1.517997	 -0.651650	 0.491282
C	 -1.945526	 0.411052	 0.000603
H	 -0.794329	 -1.203792	 -0.868145
H	 -0.791555	 -1.205429	 0.862701
C	 -3.282915	 -0.321280	 0.002596
H	 -1.880300	 1.059126	 -0.864925
H	 -1.877207	 1.057892	 0.866807
H	 -3.388495	 -0.952755	 -0.873419
H	 -4.107811	 0.380864	 0.004116
H	 -3.385717	 -0.953283	 0.878571
C	 2.831025	 -0.131966	 0.553713
H	 3.187431	 0.122466	 -0.433350
H	 3.439598	 -0.912984	 0.979550
H	 2.863195	 0.748435	 1.178133

	symmetry c1
}
set optking {
	frozen_dihedral = ("
		1 2 3 6
	")
}

ee = optimize('scf')
oeprop('DIPOLE', 'QUADRUPOLE', 'MULLIKEN_CHARGES')
f=open( 'psi4out.xyz', 'w' )
f.write( "17  " )
f.write( str(ee) + "\n" )
f.write( MOL.save_string_xyz() )
f.close()
--------------------------------------------------------------------------

    Molecular point group: c1
  Charge       = 0
  Multiplicity = 1
  Basis Set: CC-PVTZ
  Basis Set:
  @DF-RHF Final Energy:  -345.03481617010613
    Total Energy =                       -345.0348161701058984
    Molecular point group: c1
  Basis Set: CC-PVTZ
  Basis Set:
  Basis Set: CC-PVTZ
  Basis Set:
  @DF-RHF Final Energy:  -345.03359256741010
    Total Energy =                       -345.0335925674102100
  Basis Set: CC-PVTZ
  Basis Set:
  Basis Set: CC-PVTZ
  Basis Set:
  @DF-RHF Final Energy:  -345.03501779006962
    Total Energy =                       -345.0350177900696735
  Basis Set: CC-PVTZ
  Basis Set:
  Basis Set: CC-PVTZ
  Basis Set:
  @DF-RHF Final Energy:  -345.03507002006535
    Total Energy =                       -345.0350700200655183
  Basis Set: CC-PVTZ
  Basis Set:
  Charge       = 0
  Multiplicity = 1
  Basis Set: CC-PVTZ
  Basis Set:

    Orbital Energies (a.u.)
    -----------------------

    Doubly Occupied:

       1A    -20.597426     2A    -20.533780     3A    -11.364984
       4A    -11.278790     5A    -11.234183     6A    -11.220964
       7A    -11.213019     8A     -1.472825     9A     -1.365962
      10A     -1.081819    11A     -1.002407    12A     -0.940713
      13A     -0.827962    14A     -0.770175    15A     -0.702355
      16A     -0.686323    17A     -0.676208    18A     -0.638033
      19A     -0.596640    20A     -0.577741    21A     -0.567542
      22A     -0.530124    23A     -0.523919    24A     -0.500887
      25A     -0.487087    26A     -0.479474    27A     -0.460618
      28A     -0.440641

  @DF-RHF Final Energy:  -345.03507044927795

   => Energetics <=

    Nuclear Repulsion Energy =            313.0215031761172781
    One-Electron Energy =               -1090.5679444036336463
    Two-Electron Energy =                 432.5113707782386427
    DFT Exchange-Correlation Energy =       0.0000000000000000
    Empirical Dispersion Energy =           0.0000000000000000
    PCM Polarization Energy =               0.0000000000000000
    EFP Energy =                            0.0000000000000000
    Total Energy =                       -345.0350704492777822
    Molecular point group: c1
  Basis Set: CC-PVTZ
  Basis Set:

  -Total Gradient:
     Atom            X                  Y                   Z
    ------   -----------------  -----------------  -----------------
       1        0.000197784298    -0.000372778006    -0.000741655091
       2       -0.000331945862     0.000634790102     0.001041840759
       3        0.000432326857    -0.000836477174     0.000134109002
       4       -0.000002900065     0.000034109794     0.000065773494
       5       -0.000003834363     0.000013273793    -0.000012990878
       6       -0.000324397839     0.000574876682    -0.000422116115
       7        0.000021276668    -0.000002394057    -0.000000606965
       8        0.000002824733    -0.000012483650     0.000010381059
       9       -0.000003291567     0.000009786409    -0.000003168670
      10        0.000013229988    -0.000018022060    -0.000009344262
      11       -0.000001726783    -0.000000178843    -0.000000882618
      12        0.000005070709     0.000002820717     0.000004433169
      13       -0.000005213834    -0.000005034056    -0.000000876845
      14       -0.000007176549    -0.000052695861    -0.000115073597
      15        0.000033658233     0.000013107728     0.000018458232
      16        0.000008975873     0.000011519275     0.000015325732
      17       -0.000034660493     0.000005779204     0.000016393593

  **** Optimization is complete! (in 5 steps) ****
    Final optimized geometry and variables:
    Molecular point group: c1

    Geometry (in Angstrom), charge = 0, multiplicity = 1:

    O            0.778830082744     1.223935714101    -0.439414194072
    C            0.581092733033     0.121429497580    -0.056088146315
    C           -0.757850429865    -0.571478727653    -0.056985474779
    O            1.538788137132    -0.669398441577     0.398134222608
    C           -1.939264872952     0.389256248095    -0.109263721284
    H           -0.763229590657    -1.220507888522    -0.928787997139
    H           -0.809796973496    -1.220703704137     0.807884520779
    C           -3.274983546854    -0.344601779929    -0.151443411508
    H           -1.838988634871     1.029625782573    -0.975854266600
    H           -1.907445507910     1.042400623787     0.756045493009
    H           -3.347179047119    -0.979774345204    -1.028227679142
    H           -4.100108225926     0.356628732156    -0.183537893372
    H           -3.409321553164    -0.973033385736     0.722807459410
    C            2.856541804141    -0.158112090690     0.397131716606
    H            3.168303578812     0.091288051466    -0.606311419408
    H            3.479928693738    -0.941353173730     0.796846467973
    H            2.922986630910     0.724099930565     1.016242505036

  Mulliken Charges: (a.u.)
   Center  Symbol    Alpha    Beta     Spin     Total
       1     O     4.19818  4.19818  0.00000 -0.39637
       2     C     2.81020  2.81020  0.00000  0.37960
       3     C     3.09145  3.09145  0.00000 -0.18290
       4     O     4.14565  4.14565  0.00000 -0.29129
       5     C     3.08039  3.08039  0.00000 -0.16078
       6     H     0.44420  0.44420  0.00000  0.11160
       7     H     0.43893  0.43893  0.00000  0.12215
       8     C     3.15118  3.15118  0.00000 -0.30237
       9     H     0.44231  0.44231  0.00000  0.11539
      10     H     0.45046  0.45046  0.00000  0.09908
      11     H     0.45529  0.45529  0.00000  0.08942
      12     H     0.44568  0.44568  0.00000  0.10864
      13     H     0.45594  0.45594  0.00000  0.08811
      14     C     3.03632  3.03632  0.00000 -0.07265
      15     H     0.45445  0.45445  0.00000  0.09111
      16     H     0.44514  0.44514  0.00000  0.10972
      17     H     0.45423  0.45423  0.00000  0.09154

   Total alpha = 28.00000, Total beta = 28.00000, Total charge = -0.00000
