  ==> Input File <==

--------------------------------------------------------------------------
set {
	reference rhf
	basis cc-pvtz
}

set_num_threads( 4 )
memory 2 gb

molecule MOL {
0 1

H	 1.764538	 -3.300663	 4.166627
C	 1.643381	 -3.005616	 3.131071
C	 0.414360	 -2.121074	 2.952898
H	 2.546664	 -2.486357	 2.828602
H	 1.568522	 -3.910334	 2.537019
C	 0.205484	 -1.683442	 1.510741
H	 0.497821	 -1.237010	 3.575177
H	 -0.467654	 -2.657531	 3.294717
N	 -0.953580	 -0.827349	 1.378794
H	 1.075221	 -1.126134	 1.175874
H	 0.140612	 -2.567644	 0.869600
C	 -1.215959	 -0.382435	 0.027143
H	 -1.759016	 -1.292114	 1.742918
C	 -2.451944	 0.502410	 -0.038737
H	 -0.353145	 0.181215	 -0.314950
H	 -1.332255	 -1.219558	 -0.667679
C	 -3.752217	 -0.292550	 0.005776
H	 -2.407325	 1.093801	 -0.946480
H	 -2.431979	 1.206234	 0.790023
H	 -3.817783	 -0.982946	 -0.828547
H	 -4.612613	 0.364348	 -0.042306
H	 -3.830160	 -0.871666	 0.919868

	symmetry c1
}
set optking {
	frozen_dihedral = ("
		15 12 14 18
	")
}

ee = optimize('scf')
oeprop('DIPOLE', 'QUADRUPOLE', 'MULLIKEN_CHARGES')
f=open( 'psi4out.xyz', 'w' )
f.write( "22  " )
f.write( str(ee) + "\n" )
f.write( MOL.save_string_xyz() )
f.close()
--------------------------------------------------------------------------

    Molecular point group: c1
  Charge       = 0
  Multiplicity = 1
  Basis Set: CC-PVTZ
  Basis Set:
  @DF-RHF Final Energy:  -290.48795374331968
    Total Energy =                       -290.4879537433198493
    Molecular point group: c1
  Basis Set: CC-PVTZ
  Basis Set:
  Basis Set: CC-PVTZ
  Basis Set:
  @DF-RHF Final Energy:  -290.48818739612102
    Total Energy =                       -290.4881873961212477
  Basis Set: CC-PVTZ
  Basis Set:
  Basis Set: CC-PVTZ
  Basis Set:
  @DF-RHF Final Energy:  -290.48822233445304
    Total Energy =                       -290.4882223344528143
  Basis Set: CC-PVTZ
  Basis Set:
  Charge       = 0
  Multiplicity = 1
  Basis Set: CC-PVTZ
  Basis Set:

    Orbital Energies (a.u.)
    -----------------------

    Doubly Occupied:

       1A    -15.528191     2A    -11.236284     3A    -11.236218
       4A    -11.211865     5A    -11.211676     6A    -11.209046
       7A    -11.207579     8A     -1.207512     9A     -1.059870
      10A     -1.025297    11A     -0.929484    12A     -0.878304
      13A     -0.806763    14A     -0.791306    15A     -0.668228
      16A     -0.636248    17A     -0.621981    18A     -0.588993
      19A     -0.575979    20A     -0.571102    21A     -0.548808
      22A     -0.528223    23A     -0.507227    24A     -0.487690
      25A     -0.479765    26A     -0.471312    27A     -0.467674
      28A     -0.452419    29A     -0.361047

  @DF-RHF Final Energy:  -290.48822305135542

   => Energetics <=

    Nuclear Repulsion Energy =            317.0084318206225475
    One-Electron Energy =               -1019.9811210916457185
    Two-Electron Energy =                 412.4844662196679792
    DFT Exchange-Correlation Energy =       0.0000000000000000
    Empirical Dispersion Energy =           0.0000000000000000
    PCM Polarization Energy =               0.0000000000000000
    EFP Energy =                            0.0000000000000000
    Total Energy =                       -290.4882230513552486
    Molecular point group: c1
  Basis Set: CC-PVTZ
  Basis Set:

  -Total Gradient:
     Atom            X                  Y                   Z
    ------   -----------------  -----------------  -----------------
       1        0.000011553650    -0.000005775587     0.000002873694
       2        0.000006619650     0.000000023383     0.000028576079
       3        0.000037476601    -0.000020080745     0.000004571651
       4        0.000001665492    -0.000001688468    -0.000000961535
       5       -0.000004390790     0.000003636450     0.000001624333
       6       -0.000069689655    -0.000011310606     0.000014622369
       7        0.000001341493    -0.000006177026     0.000003624264
       8       -0.000000537378     0.000002185154    -0.000006170820
       9        0.000018466434    -0.000013944929    -0.000028468877
      10       -0.000012221574     0.000003363138     0.000000642232
      11        0.000014033978    -0.000001221772    -0.000008302565
      12        0.000802189681     0.001497658492     0.003268621798
      13        0.000001858185     0.000004874932    -0.000005689240
      14       -0.001627478247    -0.002492254828    -0.002152312719
      15       -0.000426084408    -0.000827716724    -0.002422611940
      16       -0.000000066019     0.000000024700     0.000032328741
      17       -0.000010637276    -0.000015672010     0.000024145612
      18        0.001226939479     0.001884837780     0.001250442609
      19       -0.000002830594    -0.000030019061    -0.000018384515
      20        0.000024338470     0.000018559548    -0.000007285456
      21        0.000007007035     0.000017875672     0.000008667168
      22        0.000000445794    -0.000007177491     0.000009447115

  **** Optimization is complete! (in 4 steps) ****
    Final optimized geometry and variables:
    Molecular point group: c1

    Geometry (in Angstrom), charge = 0, multiplicity = 1:

    H            2.662391711425    -2.172960247681     2.879944217594
    C            2.539118759684    -1.871595465602     1.846437729356
    C            1.299940790470    -1.000375128347     1.673115980145
    H            3.436550879172    -1.339390810240     1.549106502199
    H            2.475640941585    -2.772618295512     1.245493102165
    C            1.088804375153    -0.552937710692     0.234238292360
    H            1.371604587941    -0.120754702064     2.303072904275
    H            0.423736572158    -1.550363623024     2.008383801175
    N           -0.079134745629     0.292232024080     0.107266322345
    H            1.953063458712     0.016401822460    -0.094517484398
    H            1.034352426357    -1.432319148152    -0.414363738542
    C           -0.336763932494     0.747130037515    -1.242677104408
    H           -0.877429123177    -0.188533709263     0.464026853780
    C           -1.580181418160     1.626468176258    -1.333752624356
    H            0.523868279284     1.312794296132    -1.582993156331
    H           -0.437505008458    -0.087881818742    -1.943790204913
    C           -2.899132342054     0.860468755490    -1.287015892850
    H           -1.527297221912     2.205885029773    -2.249948590128
    H           -1.545480337546     2.344598359535    -0.521118070551
    H           -2.966680061278     0.147911522380    -2.102375433842
    H           -3.742271921063     1.536621746474    -1.367663942703
    H           -3.016038829778     0.312550561853    -0.358025749492

  Mulliken Charges: (a.u.)
   Center  Symbol    Alpha    Beta     Spin     Total
       1     H     0.44771  0.44771  0.00000  0.10459
       2     C     3.15329  3.15329  0.00000 -0.30658
       3     C     3.08052  3.08052  0.00000 -0.16104
       4     H     0.45465  0.45465  0.00000  0.09070
       5     H     0.45610  0.45610  0.00000  0.08781
       6     C     3.02186  3.02186  0.00000 -0.04372
       7     H     0.44916  0.44916  0.00000  0.10167
       8     H     0.45986  0.45986  0.00000  0.08029
       9     N     3.63714  3.63714  0.00000 -0.27429
      10     H     0.45924  0.45924  0.00000  0.08152
      11     H     0.47457  0.47457  0.00000  0.05086
      12     C     3.03305  3.03305  0.00000 -0.06610
      13     H     0.44440  0.44440  0.00000  0.11120
      14     C     3.08817  3.08817  0.00000 -0.17635
      15     H     0.45415  0.45415  0.00000  0.09169
      16     H     0.47369  0.47369  0.00000  0.05263
      17     C     3.14922  3.14922  0.00000 -0.29844
      18     H     0.45252  0.45252  0.00000  0.09497
      19     H     0.45079  0.45079  0.00000  0.09842
      20     H     0.45458  0.45458  0.00000  0.09083
      21     H     0.44648  0.44648  0.00000  0.10703
      22     H     0.45885  0.45885  0.00000  0.08231

   Total alpha = 29.00000, Total beta = 29.00000, Total charge =  0.00000
