                              Psi4 1.0.54 Driver

  ==> Input File <==

--------------------------------------------------------------------------
set {
	reference rhf
	basis cc-pvtz
}

set_num_threads( 4 )
memory 2 gb

molecule MOL {
0 1

H	 -2.483218	 1.445524	 -0.946672
O	 -1.655211	 0.991526	 -0.991463
C	 -1.605397	 0.107680	 0.001145
C	 -0.310616	 -0.658853	 0.000791
O	 -2.493097	 -0.024382	 0.770897
C	 0.926581	 0.227233	 0.000178
H	 -0.327628	 -1.313681	 -0.864448
H	 -0.327041	 -1.313334	 0.866298
C	 2.220156	 -0.582071	 -0.000088
H	 0.899945	 0.878221	 -0.866390
H	 0.900542	 0.878581	 0.866486
C	 3.466689	 0.296012	 -0.000457
H	 2.239073	 -1.234095	 -0.869382
H	 2.239505	 -1.233985	 0.869270
H	 3.493549	 0.935857	 -0.875887
H	 4.368821	 -0.304526	 -0.001199
H	 3.494559	 0.935166	 0.875458

	symmetry c1
}
set optking {
	frozen_dihedral = ("
		2 3 4 7
	")
}

ee,wfn = optimize('scf', return_wfn=True)
oeprop( wfn, 'DIPOLE', 'QUADRUPOLE', 'MULLIKEN_CHARGES')
f=open( 'psi4out.xyz', 'w' )
f.write( "17  " )
f.write( str(ee) + "\n" )
f.write( MOL.save_string_xyz() )
f.close()
--------------------------------------------------------------------------

    Molecular point group: c1
  Charge       = 0
  Multiplicity = 1
  Basis Set: CC-PVTZ
  Basis Set:
  @DF-RHF Final Energy:  -345.04709388179884
    Total Energy =                       -345.0470938817990145
    Molecular point group: c1
  Basis Set: CC-PVTZ
  Basis Set:
  Basis Set: CC-PVTZ
  Basis Set:
  @DF-RHF Final Energy:  -345.04722642414936
    Total Energy =                       -345.0472264241493576
  Basis Set: CC-PVTZ
  Basis Set:
  Basis Set: CC-PVTZ
  Basis Set:
  @DF-RHF Final Energy:  -345.04725287345923
    Total Energy =                       -345.0472528734590014
  Basis Set: CC-PVTZ
  Basis Set:
  Basis Set: CC-PVTZ
  Basis Set:
  @DF-RHF Final Energy:  -345.04736662393952
    Total Energy =                       -345.0473666239392969
  Basis Set: CC-PVTZ
  Basis Set:
  Basis Set: CC-PVTZ
  Basis Set:
  @DF-RHF Final Energy:  -345.04738464260311
    Total Energy =                       -345.0473846426033333
  Basis Set: CC-PVTZ
  Basis Set:
  Charge       = 0
  Multiplicity = 1
  Basis Set: CC-PVTZ
  Basis Set:

    Orbital Energies (a.u.)
    -----------------------

    Doubly Occupied:

       1A    -20.604765     2A    -20.539005     3A    -11.372805
       4A    -11.238422     5A    -11.228975     6A    -11.224221
       7A    -11.213974     8A     -1.477506     9A     -1.367923
      10A     -1.096133    11A     -1.020952    12A     -0.911357
      13A     -0.825334    14A     -0.808995    15A     -0.704710
      16A     -0.684351    17A     -0.658906    18A     -0.638309
      19A     -0.591426    20A     -0.585623    21A     -0.580247
      22A     -0.537708    23A     -0.515100    24A     -0.498977
      25A     -0.487450    26A     -0.477661    27A     -0.476178
      28A     -0.437370

  @DF-RHF Final Energy:  -345.04738526924712

   => Energetics <=

    Nuclear Repulsion Energy =            305.4292379032405051
    One-Electron Energy =               -1075.3444846794081968
    Two-Electron Energy =                 424.8678615069205193
    DFT Exchange-Correlation Energy =       0.0000000000000000
    Empirical Dispersion Energy =           0.0000000000000000
    PCM Polarization Energy =               0.0000000000000000
    EFP Energy =                            0.0000000000000000
    Total Energy =                       -345.0473852692471723
    Molecular point group: c1
  Basis Set: CC-PVTZ
  Basis Set:

  -Total Gradient:
     Atom            X                  Y                   Z
    ------   -----------------  -----------------  -----------------
       1       -0.000000757783    -0.000007563579     0.000010816011
       2        0.000279957109     0.000424152664     0.000294633265
       3       -0.000377165656    -0.000608974624    -0.000377112583
       4        0.000397793402     0.000652715261    -0.000277398887
       5       -0.000004061527    -0.000038420843     0.000021922495
       6       -0.000000249353     0.000018891453    -0.000070208600
       7       -0.000272669755    -0.000486796734     0.000361021815
       8       -0.000017070461     0.000012490597     0.000003661214
       9        0.000004777234    -0.000016214668     0.000051485206
      10        0.000014455555     0.000053965642    -0.000019302913
      11        0.000009827226    -0.000026790951     0.000015415341
      12       -0.000015030242     0.000017194604    -0.000015635418
      13       -0.000028100323     0.000004434161     0.000001141306
      14        0.000006337415    -0.000000714987     0.000007752946
      15        0.000006632821     0.000007731016    -0.000006539324
      16       -0.000005940799    -0.000005398356    -0.000005021700
      17        0.000001265132    -0.000000700657     0.000003369826

  **** Optimization is complete! (in 6 steps) ****
    Final optimized geometry and variables:
    Molecular point group: c1

    Geometry (in Angstrom), charge = 0, multiplicity = 1:

    H           -2.567417888963     1.382218601804    -0.843198180644
    O           -1.727714644822     0.952675847846    -0.907516982545
    C           -1.651840613131     0.036779970165     0.053833483980
    C           -0.355260920929    -0.726915155146     0.032741438353
    O           -2.534685384192    -0.140983011883     0.820734783847
    C            0.892540883738     0.157571889011     0.016144010306
    H           -0.372843919177    -1.359192086527    -0.850016506590
    H           -0.361850274485    -1.374125834474     0.897735408557
    C            2.179060220572    -0.662475040356     0.038986978236
    H            0.877217209302     0.789923432334    -0.863157409873
    H            0.873106738444     0.820390250166     0.876732287697
    C            3.433315684276     0.204370248895     0.025402703418
    H            2.192787989864    -1.330685261515    -0.817707374101
    H            2.187648972848    -1.296300876604     0.921052739833
    H            3.469753787885     0.825968765878    -0.862797156322
    H            4.329339270009    -0.404854849001     0.040072020381
    H            3.464924035662     0.860218719681     0.888846998740

  Mulliken Charges: (a.u.)
   Center  Symbol    Alpha    Beta     Spin     Total
       1     H     0.38074  0.38074  0.00000  0.23853
       2     O     4.16208  4.16208  0.00000 -0.32416
       3     C     2.81077  2.81077  0.00000  0.37847
       4     C     3.08718  3.08718  0.00000 -0.17436
       5     O     4.19370  4.19370  0.00000 -0.38740
       6     C     3.09687  3.09687  0.00000 -0.19374
       7     H     0.44499  0.44499  0.00000  0.11001
       8     H     0.43567  0.43567  0.00000  0.12867
       9     C     3.08752  3.08752  0.00000 -0.17504
      10     H     0.44182  0.44182  0.00000  0.11636
      11     H     0.44908  0.44908  0.00000  0.10183
      12     C     3.14906  3.14906  0.00000 -0.29812
      13     H     0.45350  0.45350  0.00000  0.09301
      14     H     0.45207  0.45207  0.00000  0.09586
      15     H     0.45400  0.45400  0.00000  0.09200
      16     H     0.44714  0.44714  0.00000  0.10571
      17     H     0.45381  0.45381  0.00000  0.09239

   Total alpha = 28.00000, Total beta = 28.00000, Total charge = -0.00000

*** Psi4 exiting successfully. Buy a developer a beer!
