                              Psi4 1.0.54 Driver

  ==> Input File <==

--------------------------------------------------------------------------
set {
	reference rhf
	basis cc-pvtz
}

set_num_threads( 4 )
memory 2 gb

molecule MOL {
0 1

H	 0.275396	 -3.197515	 -4.261306
C	 0.596360	 -2.655979	 -3.393069
C	 0.000575	 -2.883576	 -2.160562
C	 1.604743	 -1.724808	 -3.482277
H	 -0.788041	 -3.606556	 -2.071587
C	 0.408700	 -2.191984	 -1.045592
H	 2.077696	 -1.534994	 -4.427250
C	 2.029200	 -1.017412	 -2.366106
H	 -0.044998	 -2.360314	 -0.088778
C	 1.428999	 -1.251654	 -1.142600
H	 2.816350	 -0.299546	 -2.468705
O	 1.760432	 -0.625184	 0.000000
C	 2.773565	 0.334879	 0.000000
H	 2.728295	 0.960928	 -0.884150
H	 3.706387	 -0.206610	 0.000000
H	 2.728295	 0.960928	 0.884150

	symmetry c1
}
set optking {
	frozen_dihedral = ("
		10 12 13 14
	")
}

ee,wfn = optimize('scf', return_wfn=True)
oeprop( wfn, 'DIPOLE', 'QUADRUPOLE', 'MULLIKEN_CHARGES')
f=open( 'psi4out.xyz', 'w' )
f.write( "16  " )
f.write( str(ee) + "\n" )
f.write( MOL.save_string_xyz() )
f.close()
--------------------------------------------------------------------------

    Molecular point group: c1
  Charge       = 0
  Multiplicity = 1
  Basis Set: CC-PVTZ
  Basis Set:
  @DF-RHF Final Energy:  -344.70042916364855
    Total Energy =                       -344.7004291636484368
    Molecular point group: c1
  Basis Set: CC-PVTZ
  Basis Set:
  Basis Set: CC-PVTZ
  Basis Set:
  @DF-RHF Final Energy:  -344.47316809580070
    Total Energy =                       -344.4731680958007018
  Basis Set: CC-PVTZ
  Basis Set:
  Basis Set: CC-PVTZ
  Basis Set:
  @DF-RHF Final Energy:  -344.61801176193381
    Total Energy =                       -344.6180117619339285
  Basis Set: CC-PVTZ
  Basis Set:
  Basis Set: CC-PVTZ
  Basis Set:
  @DF-RHF Final Energy:  -344.69516604588779
    Total Energy =                       -344.6951660458879587
  Basis Set: CC-PVTZ
  Basis Set:
  @DF-RHF Final Energy:  -344.70078594590814
    Total Energy =                       -344.7007859459079668
  @DF-RHF Final Energy:  -344.70253952849475
    Total Energy =                       -344.7025395284948104
  Basis Set: CC-PVTZ
  Basis Set:
  @DF-RHF Final Energy:  -344.70275098109096
    Total Energy =                       -344.7027509810909578
  Basis Set: CC-PVTZ
  Basis Set:
  Basis Set: CC-PVTZ
  Basis Set:
  @DF-RHF Final Energy:  -344.70276422831870
    Total Energy =                       -344.7027642283189834
  Basis Set: CC-PVTZ
  Basis Set:
  Basis Set: CC-PVTZ
  Basis Set:
  @DF-RHF Final Energy:  -344.70276776385964
    Total Energy =                       -344.7027677638595833
  Basis Set: CC-PVTZ
  Basis Set:
  Charge       = 0
  Multiplicity = 1
  Basis Set: CC-PVTZ
  Basis Set:

    Orbital Energies (a.u.)
    -----------------------

    Doubly Occupied:

       1A    -20.579030     2A    -11.293451     3A    -11.278293
       4A    -11.231333     5A    -11.230032     6A    -11.222025
       7A    -11.218094     8A    -11.217199     9A     -1.418389
      10A     -1.151008    11A     -1.025415    12A     -1.016751
      13A     -0.943874    14A     -0.834842    15A     -0.808454
      16A     -0.725786    17A     -0.667825    18A     -0.666510
      19A     -0.658835    20A     -0.619217    21A     -0.590773
      22A     -0.580899    23A     -0.527781    24A     -0.522719
      25A     -0.512439    26A     -0.480834    27A     -0.464270
      28A     -0.339731    29A     -0.310528

  @DF-RHF Final Energy:  -344.70276799855429

   => Energetics <=

    Nuclear Repulsion Energy =            348.8030113625531499
    One-Electron Energy =               -1158.7388876099546451
    Two-Electron Energy =                 465.2331082488473157
    DFT Exchange-Correlation Energy =       0.0000000000000000
    Empirical Dispersion Energy =           0.0000000000000000
    PCM Polarization Energy =               0.0000000000000000
    EFP Energy =                            0.0000000000000000
    Total Energy =                       -344.7027679985541226
    Molecular point group: c1
  Basis Set: CC-PVTZ
  Basis Set:

  -Total Gradient:
     Atom            X                  Y                   Z
    ------   -----------------  -----------------  -----------------
       1        0.000000427853    -0.000003912294     0.000000478902
       2        0.000029841112     0.000063763629    -0.000039925399
       3        0.000012574689    -0.000003728086     0.000085917859
       4       -0.000039379383    -0.000041582851    -0.000046228198
       5        0.000000625534     0.000001462039    -0.000004465471
       6       -0.000039926735    -0.000066551851    -0.000038924758
       7        0.000001575337     0.000002579577    -0.000002662396
       8        0.000009469017    -0.000015198459     0.000047589387
       9        0.000003816993     0.000003833003     0.000008308070
      10       -0.001975561969     0.000703635295     0.000794321510
      11       -0.000003832345    -0.000006246224    -0.000007175627
      12        0.003351728196    -0.000968955915    -0.001816863074
      13       -0.002644542942     0.000445968721     0.003264322916
      14        0.001292651189    -0.000096429046    -0.002238335268
      15        0.000004664103    -0.000003762069     0.000003557226
      16       -0.000004130649    -0.000014875467    -0.000009915679

  **** Optimization is complete! (in 10 steps) ****
    Final optimized geometry and variables:
    Molecular point group: c1

    Geometry (in Angstrom), charge = 0, multiplicity = 1:

    H           -1.477824426822    -1.147349240914    -2.771044552862
    C           -1.007471941314    -0.820141095338    -1.864462984241
    C           -1.129579365883    -1.563893481176    -0.699947335213
    C           -0.271281530824     0.342170564150    -1.838134583948
    H           -1.699149720572    -2.473904039905    -0.702333266607
    C           -0.530713575205    -1.147035805781     0.465256005077
    H           -0.160815684276     0.927805461836    -2.731169834472
    C            0.342327924221     0.774698431417    -0.671612708235
    H           -0.620324861635    -1.713502434654     1.371205176275
    C            0.208098562447     0.030223717391     0.486158330419
    H            0.920643494435     1.675722927644    -0.684340346992
    O            0.775379517356     0.351966724794     1.662678935136
    C            1.259662282232     1.645090009487     1.878747744005
    H            0.599209744584     2.393989085732     1.459645992022
    H            2.245029794934     1.770885075036     1.442086360430
    H            1.329701301992     1.778194609115     2.946899563345

  Mulliken Charges: (a.u.)
   Center  Symbol    Alpha    Beta     Spin     Total
       1     H     0.42439  0.42439  0.00000  0.15123
       2     C     3.10026  3.10026  0.00000 -0.20052
       3     C     3.05848  3.05848  0.00000 -0.11697
       4     C     3.06220  3.06220  0.00000 -0.12440
       5     H     0.42296  0.42296  0.00000  0.15409
       6     C     3.11060  3.11060  0.00000 -0.22121
       7     H     0.42337  0.42337  0.00000  0.15326
       8     C     3.14049  3.14049  0.00000 -0.28097
       9     H     0.42053  0.42053  0.00000  0.15893
      10     C     2.85271  2.85271  0.00000  0.29457
      11     H     0.42291  0.42291  0.00000  0.15418
      12     O     4.15355  4.15355  0.00000 -0.30710
      13     C     3.04363  3.04363  0.00000 -0.08725
      14     H     0.46361  0.46361  0.00000  0.07278
      15     H     0.46014  0.46014  0.00000  0.07971
      16     H     0.44017  0.44017  0.00000  0.11967

   Total alpha = 29.00000, Total beta = 29.00000, Total charge = -0.00000

*** Psi4 exiting successfully. Buy a developer a beer!
