  ==> Input File <==

--------------------------------------------------------------------------
set {
	reference rhf
	basis 6-31G*
}

set_num_threads( 4 )
memory 2 gb

molecule MOL {
0 1

H	 2.866480	 -0.465706	 0.876907
C	 2.405773	 -0.024801	 0.000000
N	 0.988830	 -0.304158	 0.000000
H	 2.866480	 -0.465706	 -0.876907
H	 2.629928	 1.045948	 0.000000
C	 0.186450	 0.905038	 -0.000000
C	 0.597234	 -1.178522	 1.090004
H	 0.367953	 1.508710	 0.895062
H	 0.452021	 1.507012	 -0.863334
C	 -1.288068	 0.542775	 -0.067465
H	 1.163599	 -2.102225	 1.024820
H	 0.808670	 -0.726678	 2.064494
C	 -0.888178	 -1.485532	 0.993634
H	 -1.904422	 1.427792	 0.021234
H	 -1.502914	 0.064087	 -1.021231
O	 -1.643577	 -0.306855	 0.986905
H	 -1.216094	 -2.063517	 1.847695
H	 -1.084209	 -2.059649	 0.089791

	symmetry c1
}
set optking {
	frozen_dihedral = ("
		6 3 2 5
	")
}

ee = optimize('scf')
oeprop('DIPOLE', 'QUADRUPOLE', 'MULLIKEN_CHARGES')
f=open( 'psi4out.xyz', 'w' )
f.write( "18  " )
f.write( str(ee) + "\n" )
f.write( MOL.save_string_xyz() )
f.close()
--------------------------------------------------------------------------

    Molecular point group: c1
  Charge       = 0
  Multiplicity = 1
  Basis Set: 6-31G*
  Basis Set:
  @DF-RHF Final Energy:  -325.02156009671808
    Total Energy =                       -325.0215600967178489
    Molecular point group: c1
  Basis Set: 6-31G*
  Basis Set:
  Basis Set: 6-31G*
  Basis Set:
  @DF-RHF Final Energy:  -325.02227237425819
    Total Energy =                       -325.0222723742581366
  Basis Set: 6-31G*
  Basis Set:
  Basis Set: 6-31G*
  Basis Set:
  @DF-RHF Final Energy:  -325.02242695258894
    Total Energy =                       -325.0224269525889440
  Basis Set: 6-31G*
  Basis Set:
  Basis Set: 6-31G*
  Basis Set:
  @DF-RHF Final Energy:  -325.02243683099579
    Total Energy =                       -325.0224368309956162
  Basis Set: 6-31G*
  Basis Set:
  Charge       = 0
  Multiplicity = 1
  Basis Set: 6-31G*
  Basis Set:

    Orbital Energies (a.u.)
    -----------------------

    Doubly Occupied:

       1A    -20.553176     2A    -15.545157     3A    -11.265167
       4A    -11.265129     5A    -11.243856     6A    -11.243790
       7A    -11.240844     8A     -1.382471     9A     -1.226619
      10A     -1.037915    11A     -0.980040    12A     -0.882192
      13A     -0.869779    14A     -0.773307    15A     -0.682565
      16A     -0.643376    17A     -0.642847    18A     -0.630490
      19A     -0.625757    20A     -0.569578    21A     -0.558055
      22A     -0.547698    23A     -0.526831    24A     -0.499864
      25A     -0.483946    26A     -0.451534    27A     -0.406951
      28A     -0.345100

  @DF-RHF Final Energy:  -325.02243782809688

   => Energetics <=

    Nuclear Repulsion Energy =            340.8756127084714649
    One-Electron Energy =               -1117.5480367492539244
    Two-Electron Energy =                 451.6499862126853486
    DFT Exchange-Correlation Energy =       0.0000000000000000
    Empirical Dispersion Energy =           0.0000000000000000
    PCM Polarization Energy =               0.0000000000000000
    EFP Energy =                            0.0000000000000000
    Total Energy =                       -325.0224378280971678
    Molecular point group: c1
  Basis Set: 6-31G*
  Basis Set:

  -Total Gradient:
     Atom            X                  Y                   Z
    ------   -----------------  -----------------  -----------------
       1        0.000000454986     0.000002634025    -0.000000059520
       2        0.000022850234    -0.000053493413    -0.002147659838
       3       -0.000002048416     0.000067378441     0.001759849941
       4       -0.000038203295    -0.000002730952     0.000038644356
       5        0.000037103044     0.000057870202     0.001346487479
       6       -0.000011207326    -0.000013339273    -0.000996481778
       7       -0.000000063185    -0.000013186030    -0.000023977442
       8        0.000016890147    -0.000005731758     0.000000865806
       9       -0.000004390745    -0.000005765635     0.000000673847
      10       -0.000012438593    -0.000042866620    -0.000024104837
      11       -0.000006513759     0.000002894322     0.000001421691
      12       -0.000006393143    -0.000005184993    -0.000003320758
      13       -0.000018899151    -0.000012580287     0.000043109887
      14        0.000000783601    -0.000006436297     0.000008586247
      15        0.000002460212     0.000009841586    -0.000015945593
      16        0.000021401663     0.000020764909     0.000004616091
      17       -0.000022256457    -0.000003445395     0.000002416438
      18        0.000020470183     0.000003377167     0.000004877981

  **** Optimization is complete! (in 5 steps) ****
    Final optimized geometry and variables:
    Molecular point group: c1

    Geometry (in Angstrom), charge = 0, multiplicity = 1:

    H            2.878729577064    -0.158973208516     0.425353958439
    C            2.373278007030     0.221226948653    -0.458886126295
    N            0.940397238688    -0.022531758603    -0.400701761139
    H            2.817259355773    -0.254905792507    -1.327729534796
    H            2.587999451263     1.283816670917    -0.507232811452
    C            0.129846244538     1.179452439829    -0.419542937054
    C            0.539519487896    -0.918458252363     0.665751089381
    H            0.288977357189     1.794123195656     0.472392989146
    H            0.399424051499     1.776343658422    -1.284613022445
    C           -1.339897419415     0.802961320939    -0.509024748168
    H            1.106941393290    -1.840348572281     0.587680226771
    H            0.737649395389    -0.488794359627     1.653029240978
    C           -0.943108072902    -1.229722899931     0.544993400726
    H           -1.966575500449     1.681561181473    -0.427401051257
    H           -1.535142710696     0.324291157894    -1.466999599800
    O           -1.702578830894    -0.053675347299     0.537213454002
    H           -1.281934170390    -1.817142579561     1.388486422614
    H           -1.123257718686    -1.795387938386    -0.367395940155

  Mulliken Charges: (a.u.)
   Center  Symbol    Alpha    Beta     Spin     Total
       1     H     0.42314  0.42314  0.00000  0.15372
       2     C     3.13905  3.13905  0.00000 -0.27810
       3     N     3.79439  3.79439  0.00000 -0.58877
       4     H     0.41524  0.41524  0.00000  0.16952
       5     H     0.42082  0.42082  0.00000  0.15836
       6     C     3.06625  3.06625  0.00000 -0.13251
       7     C     3.06642  3.06642  0.00000 -0.13284
       8     H     0.42899  0.42899  0.00000  0.14203
       9     H     0.41664  0.41664  0.00000  0.16673
      10     C     2.99772  2.99772  0.00000  0.00457
      11     H     0.41658  0.41658  0.00000  0.16684
      12     H     0.42883  0.42883  0.00000  0.14234
      13     C     2.99763  2.99763  0.00000  0.00474
      14     H     0.41369  0.41369  0.00000  0.17261
      15     H     0.42437  0.42437  0.00000  0.15126
      16     O     4.31220  4.31220  0.00000 -0.62440
      17     H     0.41367  0.41367  0.00000  0.17265
      18     H     0.42437  0.42437  0.00000  0.15126

   Total alpha = 28.00000, Total beta = 28.00000, Total charge = -0.00000
