  ==> Input File <==

--------------------------------------------------------------------------
set {
	reference rhf
	basis 6-31G*
}

set_num_threads( 1 )
memory 2 gb

molecule MOL {
0 1

O	 0.749854	 1.307668	 -0.000040
C	 0.576249	 0.131685	 -0.000108
C	 -0.766779	 -0.556801	 -0.000461
O	 1.568443	 -0.749345	 -0.000005
C	 -1.945214	 0.412366	 0.000161
H	 -0.796911	 -1.211249	 -0.867467
H	 -0.796854	 -1.212390	 0.865687
C	 -3.287791	 -0.317055	 0.000105
H	 -1.876087	 1.060580	 -0.866812
H	 -1.875822	 1.059691	 0.867761
H	 -3.394745	 -0.949193	 -0.877058
H	 -4.111778	 0.388953	 0.000015
H	 -3.394954	 -0.949187	 0.877259
C	 1.762617	 -1.498726	 -1.185725
H	 0.882356	 -2.081893	 -1.415066
H	 2.601203	 -2.148588	 -0.989973
H	 1.981867	 -0.844445	 -2.017203

	symmetry c1
}
set optking {
	frozen_dihedral = ("
		1 2 3 6,
		9 5 3 6
	")
}

ee = energy('scf')
oeprop('DIPOLE', 'QUADRUPOLE', 'MULLIKEN_CHARGES')
f=open( 'psi4out.xyz', 'w' )
f.write( "17  " )
f.write( str(ee) + "\n" )
f.write( MOL.save_string_xyz() )
f.close()
--------------------------------------------------------------------------

    Molecular point group: c1

    Geometry (in Angstrom), charge = 0, multiplicity = 1:

       Center              X                  Y                   Z               Mass
    ------------   -----------------  -----------------  -----------------  -----------------
           O          0.923425853635     1.503161645110     0.183078187876    15.994914619560
           C          0.749820853635     0.327178645110     0.183010187876    12.000000000000
           C         -0.593207146365    -0.361307354890     0.182657187876    12.000000000000
           O          1.742014853635    -0.553851354890     0.183113187876    15.994914619560
           C         -1.771642146365     0.607859645110     0.183279187876    12.000000000000
           H         -0.623339146365    -1.015755354890    -0.684348812124     1.007825032070
           H         -0.623282146365    -1.016896354890     1.048805187876     1.007825032070
           C         -3.114219146365    -0.121561354890     0.183223187876    12.000000000000
           H         -1.702515146365     1.256073645110    -0.683693812124     1.007825032070
           H         -1.702250146365     1.255184645110     1.050879187876     1.007825032070
           H         -3.221173146365    -0.753699354890    -0.693939812124     1.007825032070
           H         -3.938206146365     0.584446645110     0.183133187876     1.007825032070
           H         -3.221382146365    -0.753693354890     1.060377187876     1.007825032070
           C          1.936188853635    -1.303232354890    -1.002606812124    12.000000000000
           H          1.055927853635    -1.886399354890    -1.231947812124     1.007825032070
           H          2.774774853635    -1.953094354890    -0.806854812124     1.007825032070
           H          2.155438853635    -0.648951354890    -1.834084812124     1.007825032070

  Charge       = 0
  Multiplicity = 1
  Basis Set: 6-31G*
  Basis Set:

    Orbital Energies (a.u.)
    -----------------------

    Doubly Occupied:

       1A    -20.590576     2A    -20.554802     3A    -11.374396
       4A    -11.297363     5A    -11.238512     6A    -11.223914
       7A    -11.216744     8A     -1.464855     9A     -1.369269
      10A     -1.080822    11A     -0.993509    12A     -0.961864
      13A     -0.836800    14A     -0.768228    15A     -0.699590
      16A     -0.682694    17A     -0.678862    18A     -0.638900
      19A     -0.617157    20A     -0.578161    21A     -0.567019
      22A     -0.550003    23A     -0.518252    24A     -0.492863
      25A     -0.488975    26A     -0.481062    27A     -0.456813
      28A     -0.433844

  @DF-RHF Final Energy:  -344.88249373166184

   => Energetics <=

    Nuclear Repulsion Energy =            314.7649542379115246
    One-Electron Energy =               -1093.5832703684129683
    Two-Electron Energy =                 433.9358223988405712
    DFT Exchange-Correlation Energy =       0.0000000000000000
    Empirical Dispersion Energy =           0.0000000000000000
    PCM Polarization Energy =               0.0000000000000000
    EFP Energy =                            0.0000000000000000
    Total Energy =                       -344.8824937316608725

  Mulliken Charges: (a.u.)
   Center  Symbol    Alpha    Beta     Spin     Total
       1     O     4.25808  4.25808  0.00000 -0.51615
       2     C     2.61255  2.61255  0.00000  0.77490
       3     C     3.21767  3.21767  0.00000 -0.43535
       4     O     4.30695  4.30695  0.00000 -0.61389
       5     C     3.15134  3.15134  0.00000 -0.30268
       6     H     0.40840  0.40840  0.00000  0.18320
       7     H     0.39892  0.39892  0.00000  0.20216
       8     C     3.24250  3.24250  0.00000 -0.48500
       9     H     0.41180  0.41180  0.00000  0.17640
      10     H     0.40910  0.40910  0.00000  0.18179
      11     H     0.42293  0.42293  0.00000  0.15413
      12     H     0.41470  0.41470  0.00000  0.17060
      13     H     0.42115  0.42115  0.00000  0.15770
      14     C     3.09560  3.09560  0.00000 -0.19119
      15     H     0.41935  0.41935  0.00000  0.16130
      16     H     0.39919  0.39919  0.00000  0.20163
      17     H     0.40977  0.40977  0.00000  0.18047

   Total alpha = 28.00000, Total beta = 28.00000, Total charge = -0.00000
