  ==> Input File <==

--------------------------------------------------------------------------
set {
	reference rhf
	basis 6-31G*
}

set_num_threads( 4 )
memory 2 gb

molecule MOL {
0 1

H	 -2.698709	 -0.000305	 0.034435
C	 -1.693833	 0.000034	 0.434417
O	 -0.828952	 -0.000968	 -0.659236
H	 -1.574200	 0.882896	 1.055746
H	 -1.574147	 -0.881698	 1.057355
C	 0.559449	 -0.000018	 -0.420814
C	 1.161544	 -1.403077	 -0.463503
C	 1.307561	 0.980413	 -1.321948
H	 0.634191	 0.362213	 0.597633
H	 0.576252	 -2.082325	 0.146910
H	 2.175090	 -1.383880	 -0.075441
H	 1.206287	 -1.800597	 -1.472533
H	 0.822942	 1.950649	 -1.306292
H	 2.327268	 1.103456	 -0.970490
H	 1.356457	 0.637934	 -2.350616

	symmetry c1
}
set optking {
	frozen_dihedral = ("
		9 6 3 2
	")
}

ee = optimize('scf')
oeprop('DIPOLE', 'QUADRUPOLE', 'MULLIKEN_CHARGES')
f=open( 'psi4out.xyz', 'w' )
f.write( "15  " )
f.write( str(ee) + "\n" )
f.write( MOL.save_string_xyz() )
f.close()
--------------------------------------------------------------------------

    Molecular point group: c1
  Charge       = 0
  Multiplicity = 1
  Basis Set: 6-31G*
  Basis Set:
  @DF-RHF Final Energy:  -232.13660533423234
    Total Energy =                       -232.1366053342323426
    Molecular point group: c1
  Basis Set: 6-31G*
  Basis Set:
  Basis Set: 6-31G*
  Basis Set:
  @DF-RHF Final Energy:  -232.14001364617198
    Total Energy =                       -232.1400136461720649
  Basis Set: 6-31G*
  Basis Set:
  Basis Set: 6-31G*
  Basis Set:
  @DF-RHF Final Energy:  -232.14073299398831
    Total Energy =                       -232.1407329939881379
  Basis Set: 6-31G*
  Basis Set:
  Basis Set: 6-31G*
  Basis Set:
  @DF-RHF Final Energy:  -232.14076562358011
    Total Energy =                       -232.1407656235803643
  Basis Set: 6-31G*
  Basis Set:
  Basis Set: 6-31G*
  Basis Set:
  @DF-RHF Final Energy:  -232.14077027459157
    Total Energy =                       -232.1407702745917163
  Basis Set: 6-31G*
  Basis Set:
  Charge       = 0
  Multiplicity = 1
  Basis Set: 6-31G*
  Basis Set:

    Orbital Energies (a.u.)
    -----------------------

    Doubly Occupied:

       1A    -20.548985     2A    -11.274062     3A    -11.264316
       4A    -11.207355     5A    -11.206507     6A     -1.373833
       7A     -1.052146     8A     -0.936972     9A     -0.917690
      10A     -0.794853    11A     -0.669422    12A     -0.640927
      13A     -0.636155    14A     -0.581419    15A     -0.552061
      16A     -0.540113    17A     -0.534812    18A     -0.497463
      19A     -0.487742    20A     -0.457239    21A     -0.404975

  @DF-RHF Final Energy:  -232.14077052400970

   => Energetics <=

    Nuclear Repulsion Energy =            196.9829602072812520
    One-Electron Energy =                -705.0893664532378580
    Two-Electron Energy =                 275.9656357219470806
    DFT Exchange-Correlation Energy =       0.0000000000000000
    Empirical Dispersion Energy =           0.0000000000000000
    PCM Polarization Energy =               0.0000000000000000
    EFP Energy =                            0.0000000000000000
    Total Energy =                       -232.1407705240094970
    Molecular point group: c1
  Basis Set: 6-31G*
  Basis Set:

  -Total Gradient:
     Atom            X                  Y                   Z
    ------   -----------------  -----------------  -----------------
       1        0.000006489937     0.000000211786    -0.000006121078
       2       -0.000044751365     0.001271904823     0.000006533241
       3       -0.000010714480    -0.002205427803     0.000181335989
       4        0.000008243709    -0.000002727270    -0.000009473197
       5        0.000006844168     0.000007508636    -0.000012532233
       6        0.000110480019     0.002374632630    -0.000718683697
       7        0.000019893326    -0.000004788131     0.000040473290
       8        0.000030488533     0.000020147837     0.000005618885
       9       -0.000091131154    -0.001474007517     0.000515606853
      10       -0.000003771003    -0.000019415675     0.000001937507
      11       -0.000013959335    -0.000003009846     0.000004011375
      12        0.000000193341     0.000034536818     0.000001306071
      13        0.000002728696     0.000009524679    -0.000000288759
      14       -0.000019811521    -0.000004864999    -0.000006023224
      15       -0.000001222872    -0.000004225967    -0.000003701024

  **** Optimization is complete! (in 6 steps) ****
    Final optimized geometry and variables:
    Molecular point group: c1

    Geometry (in Angstrom), charge = 0, multiplicity = 1:

    H           -2.769508472821     0.034926451784     0.418066713538
    C           -1.772873088684     0.071101351666     0.837029411928
    O           -0.873835948048     0.079349206101    -0.225639670311
    H           -1.681089310524     0.969511696036     1.444097457598
    H           -1.636886644969    -0.795056810137     1.481476272490
    C            0.491350371197     0.101270090831     0.122484699474
    C            1.064355143112    -1.309999395116     0.044217811168
    C            1.194969787471     1.066156183669    -0.819106533599
    H            0.594340677553     0.459370833238     1.145404124290
    H            0.527594583602    -1.982968219417     0.705062480177
    H            2.112026641844    -1.322207416335     0.329753461151
    H            0.977989679854    -1.692441272131    -0.967429378877
    H            0.772533713108     2.060567749234    -0.727395662335
    H            2.256893224464     1.119451913203    -0.599533215486
    H            1.071993092667     0.740517700012    -1.846739819174

  Mulliken Charges: (a.u.)
   Center  Symbol    Alpha    Beta     Spin     Total
       1     H     0.41282  0.41282  0.00000  0.17437
       2     C     3.07907  3.07907  0.00000 -0.15813
       3     O     4.30977  4.30977  0.00000 -0.61955
       4     H     0.42972  0.42972  0.00000  0.14055
       5     H     0.43127  0.43127  0.00000  0.13746
       6     C     2.91677  2.91677  0.00000  0.16646
       7     C     3.23991  3.23991  0.00000 -0.47981
       8     C     3.23760  3.23760  0.00000 -0.47521
       9     H     0.43059  0.43059  0.00000  0.13881
      10     H     0.41916  0.41916  0.00000  0.16168
      11     H     0.42382  0.42382  0.00000  0.15237
      12     H     0.41517  0.41517  0.00000  0.16966
      13     H     0.41566  0.41566  0.00000  0.16868
      14     H     0.42398  0.42398  0.00000  0.15205
      15     H     0.41469  0.41469  0.00000  0.17061

   Total alpha = 21.00000, Total beta = 21.00000, Total charge =  0.00000
