  ==> Input File <==

--------------------------------------------------------------------------
set {
	reference rhf
	basis 6-31G*
}

set_num_threads( 4 )
memory 2 gb

molecule MOL {
0 1

H	 -4.031818	 -0.453427	 -0.000094
C	 -2.967712	 -0.297022	 -0.000064
C	 -2.458620	 0.992929	 0.000032
C	 -2.109895	 -1.385637	 -0.000122
H	 -3.124998	 1.836319	 0.000077
C	 -1.090278	 1.193236	 0.000070
H	 -2.506361	 -2.384847	 -0.000198
C	 -0.739812	 -1.187531	 -0.000085
H	 -0.678594	 2.184290	 0.000146
C	 -0.226438	 0.104061	 0.000012
H	 -0.072310	 -2.027032	 -0.000131
C	 1.239129	 0.373821	 0.000060
O	 1.532427	 1.648120	 -0.211463
O	 2.069795	 -0.462505	 0.171558
C	 2.905922	 1.994423	 -0.227498
H	 3.365585	 1.762775	 0.722157
H	 2.938799	 3.057016	 -0.410990
H	 3.421388	 1.461321	 -1.013001

	symmetry c1
}
set optking {
	frozen_dihedral = ("
		13 12 10 6
	")
}

ee = optimize('scf')
oeprop('DIPOLE', 'QUADRUPOLE', 'MULLIKEN_CHARGES')
f=open( 'psi4out.xyz', 'w' )
f.write( "18  " )
f.write( str(ee) + "\n" )
f.write( MOL.save_string_xyz() )
f.close()
--------------------------------------------------------------------------

    Molecular point group: c1
  Charge       = 0
  Multiplicity = 1
  Basis Set: 6-31G*
  Basis Set:
  @DF-RHF Final Energy:  -457.34895391019580
    Total Energy =                       -457.3489539101955188
    Molecular point group: c1
  Basis Set: 6-31G*
  Basis Set:
  Basis Set: 6-31G*
  Basis Set:
  @DF-RHF Final Energy:  -457.35021320644131
    Total Energy =                       -457.3502132064414809
  Basis Set: 6-31G*
  Basis Set:
  Basis Set: 6-31G*
  Basis Set:
  @DF-RHF Final Energy:  -457.35028384675462
    Total Energy =                       -457.3502838467545644
  Basis Set: 6-31G*
  Basis Set:
  Basis Set: 6-31G*
  Basis Set:
  @DF-RHF Final Energy:  -457.35042104080418
    Total Energy =                       -457.3504210408043491
  Basis Set: 6-31G*
  Basis Set:
  Basis Set: 6-31G*
  Basis Set:
  @DF-RHF Final Energy:  -457.35042883110322
    Total Energy =                       -457.3504288311032724
  Basis Set: 6-31G*
  Basis Set:
  Charge       = 0
  Multiplicity = 1
  Basis Set: 6-31G*
  Basis Set:

    Orbital Energies (a.u.)
    -----------------------

    Doubly Occupied:

       1A    -20.607751     2A    -20.544574     3A    -11.377909
       4A    -11.282971     5A    -11.245687     6A    -11.245173
       7A    -11.244206     8A    -11.241795     9A    -11.237551
      10A    -11.236796    11A     -1.472859    12A     -1.363997
      13A     -1.165350    14A     -1.048144    15A     -1.024867
      16A     -0.978202    17A     -0.860191    18A     -0.834464
      19A     -0.777836    20A     -0.739818    21A     -0.683378
      22A     -0.677466    23A     -0.672086    24A     -0.631021
      25A     -0.624149    26A     -0.597767    27A     -0.584937
      28A     -0.561028    29A     -0.529574    30A     -0.516597
      31A     -0.503551    32A     -0.499141    33A     -0.459128
      34A     -0.444475    35A     -0.344791    36A     -0.341042

  @DF-RHF Final Energy:  -457.35043257957835

   => Energetics <=

    Nuclear Repulsion Energy =            492.9882020317120919
    One-Electron Energy =               -1600.2767258734634197
    Two-Electron Energy =                 649.9380912621725201
    DFT Exchange-Correlation Energy =       0.0000000000000000
    Empirical Dispersion Energy =           0.0000000000000000
    PCM Polarization Energy =               0.0000000000000000
    EFP Energy =                            0.0000000000000000
    Total Energy =                       -457.3504325795788645
    Molecular point group: c1
  Basis Set: 6-31G*
  Basis Set:

  -Total Gradient:
     Atom            X                  Y                   Z
    ------   -----------------  -----------------  -----------------
       1       -0.000001771585     0.000021616653     0.000007017688
       2        0.000019655700    -0.000105472360    -0.000025908468
       3        0.000081193677     0.000079808545     0.000013969674
       4       -0.000105170278     0.000053251034    -0.000000452168
       5       -0.000015214193    -0.000003076167    -0.000001405141
       6       -0.000141288748     0.000062957758     0.001219872269
       7        0.000022996506     0.000000242850    -0.000002780001
       8        0.000102515962     0.000123218322     0.000035868097
       9       -0.000006689874    -0.000020972999     0.000005955774
      10        0.000060686586    -0.000290709039    -0.002261488509
      11        0.000005873529    -0.000022351474    -0.000002578622
      12       -0.000034548195     0.000325915860     0.002200544750
      13        0.000038762773    -0.000186795923    -0.001185611365
      14       -0.000023810306    -0.000024855047    -0.000018472864
      15        0.000019983851    -0.000005746916     0.000032330026
      16        0.000001418675     0.000003079171    -0.000005511519
      17       -0.000017964788    -0.000005963542    -0.000004629542
      18       -0.000006629298    -0.000004146725    -0.000006720076

  **** Optimization is complete! (in 6 steps) ****
    Final optimized geometry and variables:
    Molecular point group: c1

    Geometry (in Angstrom), charge = 0, multiplicity = 1:

    H           -3.964410421867    -0.859995121006     0.056308597676
    C           -2.906330495674    -0.667562553537     0.045529565983
    C           -2.442421714785     0.638562611101     0.037979771695
    C           -2.010958736627    -1.726403828112     0.041771594092
    H           -3.138106963753     1.458050683982     0.045085059108
    C           -1.081253699043     0.889436549623     0.021118522765
    H           -2.371854826778    -2.738884695426     0.049554854751
    C           -0.650425742669    -1.478045044007     0.031888710589
    H           -0.717769359004     1.898520330579     0.012415853173
    C           -0.181299925126    -0.169877325661     0.014082529507
    H            0.056681341305    -2.285357575206     0.037544155858
    C            1.293333072098     0.045403519038     0.020976268067
    O            1.633522997432     1.309966183302    -0.177622348314
    O            2.092181503894    -0.824692173827     0.174706282287
    C            3.018521956425     1.607053604115    -0.180132561855
    H            3.463921736336     1.346617372450     0.768959627597
    H            3.090275861047     2.670044441904    -0.349380538763
    H            3.519444390830     1.066282690076    -0.969685706092

  Mulliken Charges: (a.u.)
   Center  Symbol    Alpha    Beta     Spin     Total
       1     H     0.39541  0.39541  0.00000  0.20917
       2     C     3.09014  3.09014  0.00000 -0.18027
       3     C     3.10706  3.10706  0.00000 -0.21412
       4     C     3.10701  3.10701  0.00000 -0.21402
       5     H     0.39624  0.39624  0.00000  0.20752
       6     C     3.08760  3.08760  0.00000 -0.17520
       7     H     0.39537  0.39537  0.00000  0.20926
       8     C     3.08668  3.08668  0.00000 -0.17337
       9     H     0.38082  0.38082  0.00000  0.23836
      10     C     3.07411  3.07411  0.00000 -0.14821
      11     H     0.37634  0.37634  0.00000  0.24731
      12     C     2.58258  2.58258  0.00000  0.83484
      13     O     4.31374  4.31374  0.00000 -0.62749
      14     O     4.29145  4.29145  0.00000 -0.58291
      15     C     3.09267  3.09267  0.00000 -0.18533
      16     H     0.40761  0.40761  0.00000  0.18478
      17     H     0.40792  0.40792  0.00000  0.18417
      18     H     0.40725  0.40725  0.00000  0.18551

   Total alpha = 36.00000, Total beta = 36.00000, Total charge =  0.00000
