  ==> Input File <==

--------------------------------------------------------------------------
set {
	reference rhf
	basis 6-31G*
}

set_num_threads( 4 )
memory 2 gb

molecule MOL {
0 1

O	 3.225979	 0.970355	 -0.599647
C	 2.701189	 0.057885	 -0.047330
C	 1.245376	 -0.013843	 0.345420
O	 3.347903	 -1.046386	 0.304773
C	 1.016650	 -0.736110	 1.671365
H	 0.870993	 1.004276	 0.366892
H	 0.715988	 -0.507732	 -0.465457
C	 -0.462533	 -0.909597	 2.032493
H	 1.528546	 -0.199871	 2.464794
H	 1.486283	 -1.712377	 1.618741
C	 -1.213035	 0.393270	 2.323001
H	 -0.522125	 -1.548048	 2.910874
H	 -0.970042	 -1.448197	 1.233522
C	 -2.653010	 0.160149	 2.784656
H	 -0.676309	 0.952277	 3.088020
H	 -1.226226	 1.023670	 1.436776
C	 -3.414320	 1.455324	 3.072860
H	 -2.647967	 -0.459499	 3.679779
H	 -3.187246	 -0.408092	 2.024792
C	 -4.850240	 1.213646	 3.537001
H	 -2.881301	 2.024859	 3.831254
H	 -3.424193	 2.074130	 2.178007
H	 -5.363537	 2.149952	 3.733126
H	 -4.873303	 0.626265	 4.450591
H	 -5.420105	 0.675380	 2.784806
C	 4.728119	 -1.109107	 -0.004993
H	 4.882018	 -1.033965	 -1.071845
H	 5.068212	 -2.067527	 0.355250
H	 5.265056	 -0.311663	 0.488280

	symmetry c1
}
set optking {
	frozen_dihedral = ("
		6 3 2 1
	")
}

ee = optimize('scf')
oeprop('DIPOLE', 'QUADRUPOLE', 'MULLIKEN_CHARGES')
f=open( 'psi4out.xyz', 'w' )
f.write( "29  " )
f.write( str(ee) + "\n" )
f.write( MOL.save_string_xyz() )
f.close()
--------------------------------------------------------------------------

    Molecular point group: c1
  Charge       = 0
  Multiplicity = 1
  Basis Set: 6-31G*
  Basis Set:
  @DF-RHF Final Energy:  -501.04131998546700
    Total Energy =                       -501.0413199854676805
    Molecular point group: c1
  Basis Set: 6-31G*
  Basis Set:
  Basis Set: 6-31G*
  Basis Set:
  @DF-RHF Final Energy:  -501.04014464606439
    Total Energy =                       -501.0401446460646184
  Basis Set: 6-31G*
  Basis Set:
  Basis Set: 6-31G*
  Basis Set:
  @DF-RHF Final Energy:  -501.04162443715882
    Total Energy =                       -501.0416244371587027
  Basis Set: 6-31G*
  Basis Set:
  Basis Set: 6-31G*
  Basis Set:
  @DF-RHF Final Energy:  -501.04216166401886
    Total Energy =                       -501.0421616640189768
  Basis Set: 6-31G*
  Basis Set:
  Basis Set: 6-31G*
  Basis Set:
  @DF-RHF Final Energy:  -501.04211835584988
    Total Energy =                       -501.0421183558498797
  Basis Set: 6-31G*
  Basis Set:
  Basis Set: 6-31G*
  Basis Set:
  @DF-RHF Final Energy:  -501.04216418753560
    Total Energy =                       -501.0421641875354908
  Basis Set: 6-31G*
  Basis Set:
  Basis Set: 6-31G*
  Basis Set:
  @DF-RHF Final Energy:  -501.04217552863258
    Total Energy =                       -501.0421755286325833
  Basis Set: 6-31G*
  Basis Set:
  Charge       = 0
  Multiplicity = 1
  Basis Set: 6-31G*
  Basis Set:

    Orbital Energies (a.u.)
    -----------------------

    Doubly Occupied:

       1A    -20.605016     2A    -20.542181     3A    -11.371436
       4A    -11.281134     5A    -11.234277     6A    -11.224868
       7A    -11.220370     8A    -11.216895     9A    -11.216059
      10A    -11.215149    11A    -11.209199    12A     -1.469325
      13A     -1.360867    14A     -1.100043    15A     -1.067974
      16A     -1.018838    17A     -0.973626    18A     -0.931862
      19A     -0.864783    20A     -0.799498    21A     -0.790887
      22A     -0.773043    23A     -0.697395    24A     -0.680264
      25A     -0.671869    26A     -0.651420    27A     -0.628224
      28A     -0.605206    29A     -0.592971    30A     -0.578594
      31A     -0.561474    32A     -0.554175    33A     -0.537548
      34A     -0.530824    35A     -0.519365    36A     -0.513517
      37A     -0.496690    38A     -0.482477    39A     -0.472398
      40A     -0.464627    41A     -0.462946    42A     -0.454157
      43A     -0.443354    44A     -0.426339

  @DF-RHF Final Energy:  -501.04217524199521

   => Energetics <=

    Nuclear Repulsion Energy =            611.9684223719691545
    One-Electron Energy =               -1894.9948649949869832
    Two-Electron Energy =                 781.9842673810230735
    DFT Exchange-Correlation Energy =       0.0000000000000000
    Empirical Dispersion Energy =           0.0000000000000000
    PCM Polarization Energy =               0.0000000000000000
    EFP Energy =                            0.0000000000000000
    Total Energy =                       -501.0421752419947552
    Molecular point group: c1
  Basis Set: 6-31G*
  Basis Set:

  -Total Gradient:
     Atom            X                  Y                   Z
    ------   -----------------  -----------------  -----------------
       1       -0.000272831750    -0.000446508545    -0.000951583598
       2        0.000377763147     0.000768459997     0.001539408064
       3       -0.000402220782    -0.000353895930    -0.001595713241
       4        0.000070165968    -0.000097322172     0.000014217871
       5       -0.000025849063    -0.000024999779     0.000007510031
       6        0.000275253543     0.000112186276     0.000987237333
       7        0.000004416358     0.000000919599    -0.000016255336
       8        0.000003076430     0.000004715935    -0.000060556216
       9       -0.000002280288     0.000022989193     0.000000630612
      10       -0.000027335467    -0.000002072369     0.000021380952
      11        0.000007191581     0.000006686396     0.000063553266
      12        0.000046066940     0.000000644302    -0.000013257277
      13       -0.000010799638    -0.000011420795    -0.000002224695
      14       -0.000003938989     0.000006962938    -0.000014375626
      15       -0.000004827166     0.000015028705     0.000024816522
      16       -0.000003112840    -0.000008332817     0.000010958764
      17       -0.000005599679     0.000002333354    -0.000020423476
      18        0.000003510774     0.000012140078     0.000000147311
      19        0.000000269843    -0.000011632490    -0.000000693959
      20        0.000000807561    -0.000001102667     0.000001319308
      21        0.000001505254    -0.000003740903    -0.000003272593
      22       -0.000002763645     0.000003813587    -0.000001265734
      23        0.000001419375    -0.000000309527     0.000001875248
      24       -0.000000819104    -0.000001820358     0.000000415848
      25        0.000000378686     0.000001701941    -0.000000054548
      26       -0.000024585126     0.000011434579     0.000003784272
      27        0.000001247597    -0.000000447077     0.000000743387
      28       -0.000008819662    -0.000004280300     0.000003835042
      29        0.000002710132    -0.000002131148    -0.000002157523

  **** Optimization is complete! (in 8 steps) ****
    Final optimized geometry and variables:
    Molecular point group: c1

    Geometry (in Angstrom), charge = 0, multiplicity = 1:

    O            2.781159882671     0.935363987023    -1.980746458454
    C            2.327880489821    -0.003877927914    -1.408825018254
    C            0.874402289914    -0.134860922696    -1.015706752442
    O            3.047503337639    -1.071654311159    -1.092329924673
    C            0.622723833160    -0.838038070408     0.322501621570
    H            0.471705503904     0.868530699478    -1.021427208771
    H            0.384603531127    -0.684115608250    -1.817367353057
    C           -0.863657212554    -0.976845637827     0.670939608870
    H            1.130175784440    -0.294944381247     1.116781138507
    H            1.070479248093    -1.824030500547     0.290251514286
    C           -1.588250407516     0.341534400047     0.957044269009
    H           -0.944948594551    -1.615104772645     1.547810318962
    H           -1.374185576140    -1.503690957195    -0.133819767122
    C           -3.039711487467     0.137844918116     1.396234923386
    H           -1.050602351514     0.884218085327     1.733056427737
    H           -1.574133124991     0.976736721700     0.074812986616
    C           -3.776766408157     1.448450090605     1.677616396625
    H           -3.061893720797    -0.484838907851     2.289063973774
    H           -3.574606780096    -0.415921522128     0.626226037198
    C           -5.224427357257     1.236561312706     2.119256735378
    H           -3.242935971292     2.003676978443     2.445952347800
    H           -3.759506421421     2.070177786400     0.785031021764
    H           -5.719925946770     2.183237834521     2.311145930902
    H           -5.274195160263     0.646676854106     3.030202000603
    H           -5.794531475381     0.713609172378     1.356524366636
    C            4.414588784775    -1.056592067612    -1.461969451949
    H            4.516424636183    -0.973873698434    -2.534384727274
    H            4.823268618047    -1.993914655924    -1.117912063484
    H            4.925681938500    -0.229151131126    -0.991635074646

  Mulliken Charges: (a.u.)
   Center  Symbol    Alpha    Beta     Spin     Total
       1     O     4.28794  4.28794  0.00000 -0.57589
       2     C     2.60739  2.60739  0.00000  0.78522
       3     C     3.20802  3.20802  0.00000 -0.41603
       4     O     4.30294  4.30294  0.00000 -0.60588
       5     C     3.15938  3.15938  0.00000 -0.31875
       6     H     0.39569  0.39569  0.00000  0.20862
       7     H     0.40244  0.40244  0.00000  0.19511
       8     C     3.15637  3.15637  0.00000 -0.31275
       9     H     0.41823  0.41823  0.00000  0.16353
      10     H     0.40570  0.40570  0.00000  0.18860
      11     C     3.15514  3.15514  0.00000 -0.31029
      12     H     0.41861  0.41861  0.00000  0.16279
      13     H     0.42285  0.42285  0.00000  0.15430
      14     C     3.15049  3.15049  0.00000 -0.30099
      15     H     0.42264  0.42264  0.00000  0.15471
      16     H     0.42151  0.42151  0.00000  0.15698
      17     C     3.15159  3.15159  0.00000 -0.30318
      18     H     0.42376  0.42376  0.00000  0.15247
      19     H     0.42382  0.42382  0.00000  0.15236
      20     C     3.23940  3.23940  0.00000 -0.47880
      21     H     0.42272  0.42272  0.00000  0.15456
      22     H     0.42261  0.42261  0.00000  0.15479
      23     H     0.41896  0.41896  0.00000  0.16209
      24     H     0.42181  0.42181  0.00000  0.15638
      25     H     0.42176  0.42176  0.00000  0.15648
      26     C     3.09227  3.09227  0.00000 -0.18455
      27     H     0.40872  0.40872  0.00000  0.18257
      28     H     0.40883  0.40883  0.00000  0.18233
      29     H     0.40839  0.40839  0.00000  0.18321

   Total alpha = 44.00000, Total beta = 44.00000, Total charge = -0.00000
