  ==> Input File <==

--------------------------------------------------------------------------
set {
	reference rhf
	basis 6-31G*
}

set_num_threads( 4 )
memory 2 gb

molecule MOL {
0 1

O	 -2.042549	 -1.228399	 -0.269030
C	 -1.653912	 -0.146171	 0.050137
C	 -0.332303	 0.024011	 0.778412
C	 -2.438579	 1.106236	 -0.272369
C	 0.845713	 -0.001731	 -0.208243
H	 -0.323783	 0.953829	 1.340327
H	 -0.235459	 -0.796807	 1.480410
C	 2.123994	 0.592255	 0.385230
H	 0.581544	 0.546085	 -1.111125
H	 1.023017	 -1.029993	 -0.508877
C	 3.299463	 0.559767	 -0.590692
H	 1.936903	 1.618871	 0.692610
H	 2.387326	 0.045152	 1.287396
H	 3.079077	 1.127711	 -1.490092
H	 3.531089	 -0.457903	 -0.890925
H	 4.192176	 0.984073	 -0.142301
H	 -3.277823	 0.863061	 -0.908988
H	 -1.806773	 1.843019	 -0.759671
H	 -2.802853	 1.554979	 0.648059

	symmetry c1
}
set optking {
	frozen_dihedral = ("
		9 5 3 2
	")
}

ee = optimize('scf')
oeprop('DIPOLE', 'QUADRUPOLE', 'MULLIKEN_CHARGES')
f=open( 'psi4out.xyz', 'w' )
f.write( "19  " )
f.write( str(ee) + "\n" )
f.write( MOL.save_string_xyz() )
f.close()
--------------------------------------------------------------------------

    Molecular point group: c1
  Charge       = 0
  Multiplicity = 1
  Basis Set: 6-31G*
  Basis Set:
  @DF-RHF Final Energy:  -309.06378797498070
    Total Energy =                       -309.0637879749805279
    Molecular point group: c1
  Basis Set: 6-31G*
  Basis Set:
  Basis Set: 6-31G*
  Basis Set:
  @DF-RHF Final Energy:  -309.06388147007317
    Total Energy =                       -309.0638814700733974
  Basis Set: 6-31G*
  Basis Set:
  Basis Set: 6-31G*
  Basis Set:
  @DF-RHF Final Energy:  -309.06274608823605
    Total Energy =                       -309.0627460882362243
  Basis Set: 6-31G*
  Basis Set:
  Basis Set: 6-31G*
  Basis Set:
  @DF-RHF Final Energy:  -309.06397765889267
    Total Energy =                       -309.0639776588924406
  Basis Set: 6-31G*
  Basis Set:
  @DF-RHF Final Energy:  -309.06399508843595
    Total Energy =                       -309.0639950884361724
  Basis Set: 6-31G*
  Basis Set:
  @DF-RHF Final Energy:  -309.06399961863428
    Total Energy =                       -309.0639996186341136
  Basis Set: 6-31G*
  Basis Set:
  Basis Set: 6-31G*
  Basis Set:
  @DF-RHF Final Energy:  -309.06400296568324
    Total Energy =                       -309.0640029656831871
  Basis Set: 6-31G*
  Basis Set:
  Basis Set: 6-31G*
  Basis Set:
  @DF-RHF Final Energy:  -309.06400422831621
    Total Energy =                       -309.0640042283161506
  Basis Set: 6-31G*
  Basis Set:
  Charge       = 0
  Multiplicity = 1
  Basis Set: 6-31G*
  Basis Set:

    Orbital Energies (a.u.)
    -----------------------

    Doubly Occupied:

       1A    -20.547383     2A    -11.324437     3A    -11.231755
       4A    -11.229585     5A    -11.228241     6A    -11.226226
       7A    -11.215881     8A     -1.392926     9A     -1.092177
      10A     -1.029875    11A     -0.983438    12A     -0.891175
      13A     -0.808434    14A     -0.733838    15A     -0.661292
      16A     -0.647061    17A     -0.622017    18A     -0.613475
      19A     -0.583273    20A     -0.574068    21A     -0.551963
      22A     -0.539316    23A     -0.508221    24A     -0.504600
      25A     -0.484109    26A     -0.475678    27A     -0.467506
      28A     -0.396733

  @DF-RHF Final Energy:  -309.06400446274415

   => Energetics <=

    Nuclear Repulsion Energy =            301.4133027830625906
    One-Electron Energy =               -1015.8252508315025580
    Two-Electron Energy =                 405.3479435856958162
    DFT Exchange-Correlation Energy =       0.0000000000000000
    Empirical Dispersion Energy =           0.0000000000000000
    PCM Polarization Energy =               0.0000000000000000
    EFP Energy =                            0.0000000000000000
    Total Energy =                       -309.0640044627441512
    Molecular point group: c1
  Basis Set: 6-31G*
  Basis Set:

  -Total Gradient:
     Atom            X                  Y                   Z
    ------   -----------------  -----------------  -----------------
       1       -0.000005786359     0.000012874785    -0.000002542889
       2       -0.000209581060     0.002307180086    -0.000168554337
       3       -0.000010514928    -0.003829807378    -0.000088511387
       4        0.000000490335     0.000013313550     0.000016339119
       5        0.001360020959     0.004235129864     0.001666194542
       6       -0.000003946094     0.000003364024     0.000002503108
       7       -0.000004802423     0.000004400670    -0.000014110476
       8        0.000002069299    -0.000002634650     0.000001144103
       9       -0.001132131503    -0.002740778491    -0.001398394245
      10        0.000003675777     0.000003891372    -0.000001088280
      11       -0.000002602414    -0.000000025501    -0.000004621938
      12       -0.000001007438     0.000002041399     0.000002107687
      13       -0.000003103760    -0.000002930560    -0.000001796286
      14       -0.000000661462    -0.000003283327    -0.000001924291
      15        0.000004179253    -0.000001534343     0.000000813460
      16       -0.000003449958     0.000002812242     0.000001470228
      17        0.000007190409    -0.000004620258    -0.000001705577
      18       -0.000002245160    -0.000000825293    -0.000004494908
      19        0.000002206528     0.000001431812    -0.000002827632

  **** Optimization is complete! (in 9 steps) ****
    Final optimized geometry and variables:
    Molecular point group: c1

    Geometry (in Angstrom), charge = 0, multiplicity = 1:

    O           -2.062745641313    -1.377060237173    -0.160570128765
    C           -1.633104785957    -0.294152807102     0.097928276019
    C           -0.304503478816    -0.122639548979     0.810332533234
    C           -2.378284410862     0.965980533281    -0.286266931863
    C            0.860827057713    -0.091970003643    -0.196308442588
    H           -0.315898196818     0.800654210291     1.384103427153
    H           -0.176441443150    -0.947412686615     1.500979446218
    C            2.152573149345     0.466355633372     0.399575207894
    H            0.579817415306     0.478997526593    -1.079370570278
    H            1.028353573588    -1.104999778277    -0.551231204108
    C            3.322133547824     0.431078308105    -0.583087258673
    H            1.984986844745     1.489916009739     0.727393704379
    H            2.410394636759    -0.101933797147     1.290467127972
    H            3.104128193914     1.013815725130    -1.473574719984
    H            3.538683874449    -0.585349234244    -0.898275681369
    H            4.222755387376     0.837641556466    -0.134113590860
    H           -3.200404445156     0.721572191081    -0.944421375615
    H           -1.718992682343     1.681505165468    -0.767692084625
    H           -2.767633266539     1.440927723708     0.610582992164

  Mulliken Charges: (a.u.)
   Center  Symbol    Alpha    Beta     Spin     Total
       1     O     4.26140  4.26140  0.00000 -0.52280
       2     C     2.73804  2.73804  0.00000  0.52392
       3     C     3.20032  3.20032  0.00000 -0.40064
       4     C     3.28965  3.28965  0.00000 -0.57930
       5     C     3.16103  3.16103  0.00000 -0.32205
       6     H     0.41712  0.41712  0.00000  0.16576
       7     H     0.39994  0.39994  0.00000  0.20012
       8     C     3.15226  3.15226  0.00000 -0.30453
       9     H     0.41960  0.41960  0.00000  0.16080
      10     H     0.40822  0.40822  0.00000  0.18357
      11     C     3.24055  3.24055  0.00000 -0.48111
      12     H     0.42216  0.42216  0.00000  0.15568
      13     H     0.41938  0.41938  0.00000  0.16124
      14     H     0.42077  0.42077  0.00000  0.15847
      15     H     0.41884  0.41884  0.00000  0.16233
      16     H     0.41730  0.41730  0.00000  0.16541
      17     H     0.39688  0.39688  0.00000  0.20624
      18     H     0.41035  0.41035  0.00000  0.17929
      19     H     0.40619  0.40619  0.00000  0.18762

   Total alpha = 28.00000, Total beta = 28.00000, Total charge = -0.00000
