                              Psi4 1.0.54 Driver

  ==> Input File <==

--------------------------------------------------------------------------
set {
	reference rhf
	basis cc-pvtz
}

set_num_threads( 4 )
memory 2 gb

molecule MOL {
0 1

H	 -1.637924	 2.709890	 -2.553008
O	 -0.833002	 2.215029	 -2.583508
C	 -0.626167	 1.673317	 -1.386552
C	 0.643635	 0.866846	 -1.351355
O	 -1.374229	 1.834826	 -0.485281
C	 0.926581	 0.227233	 0.000178
H	 1.450067	 1.528009	 -1.651783
H	 0.568406	 0.118916	 -2.134080
C	 2.220156	 -0.582071	 -0.000088
H	 0.976791	 1.000516	 0.758431
H	 0.094043	 -0.410316	 0.275556
C	 3.466689	 0.296012	 -0.000457
H	 2.239073	 -1.234095	 -0.869382
H	 2.239505	 -1.233985	 0.869270
H	 3.493549	 0.935857	 -0.875887
H	 4.368821	 -0.304526	 -0.001199
H	 3.494559	 0.935166	 0.875458

	symmetry c1
}
set optking {
	frozen_dihedral = ("
		10 6 9 13
	")
}

ee,wfn = optimize('scf', return_wfn=True)
oeprop( wfn, 'DIPOLE', 'QUADRUPOLE', 'MULLIKEN_CHARGES')
f=open( 'psi4out.xyz', 'w' )
f.write( "17  " )
f.write( str(ee) + "\n" )
f.write( MOL.save_string_xyz() )
f.close()
--------------------------------------------------------------------------

    Molecular point group: c1
  Charge       = 0
  Multiplicity = 1
  Basis Set: CC-PVTZ
  Basis Set:
  @DF-RHF Final Energy:  -345.04672060403897
    Total Energy =                       -345.0467206040388533
    Molecular point group: c1
  Basis Set: CC-PVTZ
  Basis Set:
  Basis Set: CC-PVTZ
  Basis Set:
  @DF-RHF Final Energy:  -345.04687187369808
    Total Energy =                       -345.0468718736977962
  Basis Set: CC-PVTZ
  Basis Set:
  Basis Set: CC-PVTZ
  Basis Set:
  @DF-RHF Final Energy:  -345.04676348282851
    Total Energy =                       -345.0467634828283394
  Basis Set: CC-PVTZ
  Basis Set:
  Basis Set: CC-PVTZ
  Basis Set:
  @DF-RHF Final Energy:  -345.04699669374230
    Total Energy =                       -345.0469966937424147
  Basis Set: CC-PVTZ
  Basis Set:
  Charge       = 0
  Multiplicity = 1
  Basis Set: CC-PVTZ
  Basis Set:

    Orbital Energies (a.u.)
    -----------------------

    Doubly Occupied:

       1A    -20.604002     2A    -20.540617     3A    -11.373586
       4A    -11.239001     5A    -11.221545     6A    -11.220925
       7A    -11.212622     8A     -1.477618     9A     -1.369091
      10A     -1.092744    11A     -1.017437    12A     -0.918886
      13A     -0.831013    14A     -0.782313    15A     -0.703746
      16A     -0.693063    17A     -0.667687    18A     -0.620558
      19A     -0.613535    20A     -0.586534    21A     -0.562771
      22A     -0.542530    23A     -0.519882    24A     -0.484874
      25A     -0.478815    26A     -0.476015    27A     -0.470638
      28A     -0.446841

  @DF-RHF Final Energy:  -345.04700025009708

   => Energetics <=

    Nuclear Repulsion Energy =            307.7542450075173974
    One-Electron Energy =               -1080.0647153768595672
    Two-Electron Energy =                 427.2634701192449711
    DFT Exchange-Correlation Energy =       0.0000000000000000
    Empirical Dispersion Energy =           0.0000000000000000
    PCM Polarization Energy =               0.0000000000000000
    EFP Energy =                            0.0000000000000000
    Total Energy =                       -345.0470002500971987
    Molecular point group: c1
  Basis Set: CC-PVTZ
  Basis Set:

  -Total Gradient:
     Atom            X                  Y                   Z
    ------   -----------------  -----------------  -----------------
       1       -0.000019103123     0.000022308308    -0.000022457936
       2       -0.000045410921    -0.000020712839     0.000095441818
       3        0.000090855938    -0.000023620032     0.000010275134
       4        0.000015193292    -0.000032303007     0.000023144153
       5       -0.000046948723     0.000032871706    -0.000062718218
       6       -0.000580812687    -0.000941028305     0.001089426910
       7        0.000024398571     0.000003272985    -0.000019732485
       8        0.000011831732    -0.000002249150    -0.000001150724
       9       -0.000687257047    -0.001159687095     0.000808517699
      10        0.000622788378     0.000979468866    -0.001037085055
      11        0.000013115099    -0.000008716873    -0.000007767889
      12       -0.000033807749     0.000025294683    -0.000022207286
      13        0.000681311871     0.001114807139    -0.000851551013
      14       -0.000023333408     0.000014964204    -0.000001404510
      15        0.000011627556     0.000005786442    -0.000004654533
      16       -0.000024596674    -0.000009262035    -0.000006345756
      17       -0.000009852108    -0.000001194994     0.000010269689

  **** Optimization is complete! (in 5 steps) ****
    Final optimized geometry and variables:
    Molecular point group: c1

    Geometry (in Angstrom), charge = 0, multiplicity = 1:

    H           -2.303789085475     1.670554435427    -1.714706069267
    O           -1.483584445789     1.201355994938    -1.744408274936
    C           -1.252862822092     0.680977127362    -0.542233829422
    C            0.041425926102    -0.085821102877    -0.506051896240
    O           -2.002087817341     0.828321538137     0.360509247913
    C            0.340837627451    -0.709796877455     0.851740593867
    H            0.820728901728     0.599662548875    -0.818716957085
    H           -0.015743968906    -0.843002497171    -1.281466641796
    C            1.649698292261    -1.502330120380     0.875142480236
    H            0.374575186799     0.075951306266     1.598004667895
    H           -0.482960558976    -1.357364875033     1.124572887434
    C            2.906801774069    -0.634880364708     0.884538914704
    H            1.686100822946    -2.168284899941     0.016977906702
    H            1.655757363423    -2.134245017166     1.756438170948
    H            2.983112998001    -0.018886516258    -0.004298933055
    H            3.798472002494    -1.249295912071     0.929073792880
    H            2.916505299489     0.024864179870     1.745607310445

  Mulliken Charges: (a.u.)
   Center  Symbol    Alpha    Beta     Spin     Total
       1     H     0.38236  0.38236  0.00000  0.23527
       2     O     4.16028  4.16028  0.00000 -0.32055
       3     C     2.80340  2.80340  0.00000  0.39321
       4     C     3.11145  3.11145  0.00000 -0.22290
       5     O     4.19125  4.19125  0.00000 -0.38249
       6     C     3.08828  3.08828  0.00000 -0.17655
       7     H     0.43808  0.43808  0.00000  0.12383
       8     H     0.43809  0.43809  0.00000  0.12383
       9     C     3.09359  3.09359  0.00000 -0.18718
      10     H     0.44666  0.44666  0.00000  0.10668
      11     H     0.44067  0.44067  0.00000  0.11866
      12     C     3.15038  3.15038  0.00000 -0.30076
      13     H     0.45604  0.45604  0.00000  0.08791
      14     H     0.44460  0.44460  0.00000  0.11081
      15     H     0.45605  0.45605  0.00000  0.08790
      16     H     0.44586  0.44586  0.00000  0.10829
      17     H     0.45298  0.45298  0.00000  0.09405

   Total alpha = 28.00000, Total beta = 28.00000, Total charge = -0.00000

*** Psi4 exiting successfully. Buy a developer a beer!
