                              Psi4 1.0.54 Driver

  ==> Input File <==

--------------------------------------------------------------------------
set {
	reference rhf
	basis cc-pvtz
}

set_num_threads( 4 )
memory 2 gb

molecule MOL {
0 1

O	 0.625980	 0.313948	 -4.782506
C	 0.131559	 0.688379	 -3.769204
C	 0.199608	 -0.151413	 -2.508980
C	 -0.571002	 2.022007	 -3.676399
C	 1.524488	 0.072412	 -1.769090
H	 0.118618	 -1.190287	 -2.802735
H	 -0.632800	 0.084158	 -1.854404
C	 1.630207	 -0.772146	 -0.501001
H	 2.335723	 -0.158987	 -2.447751
H	 1.625129	 1.122937	 -1.507237
C	 2.907848	 -0.545876	 0.309149
H	 1.554896	 -1.823915	 -0.765746
H	 0.775455	 -0.556507	 0.134217
C	 3.373802	 0.906639	 0.372125
H	 3.699140	 -1.146831	 -0.127906
H	 2.764321	 -0.923458	 1.318191
H	 3.519798	 1.311927	 -0.623875
H	 4.316899	 0.983758	 0.900700
H	 2.661122	 1.540651	 0.885346
H	 -1.632453	 1.856070	 -3.522176
H	 -0.422743	 2.584649	 -4.585256
H	 -0.208398	 2.587435	 -2.825282

	symmetry c1
}
set optking {
	frozen_dihedral = ("
		12 8 11 15
	")
}

ee,wfn = optimize('scf', return_wfn=True)
oeprop( wfn, 'DIPOLE', 'QUADRUPOLE', 'MULLIKEN_CHARGES')
f=open( 'psi4out.xyz', 'w' )
f.write( "22  " )
f.write( str(ee) + "\n" )
f.write( MOL.save_string_xyz() )
f.close()
--------------------------------------------------------------------------

    Molecular point group: c1
  Charge       = 0
  Multiplicity = 1
  Basis Set: CC-PVTZ
  Basis Set:
  @DF-RHF Final Energy:  -348.21952406630868
    Total Energy =                       -348.2195240663087930
    Molecular point group: c1
  Basis Set: CC-PVTZ
  Basis Set:
  Basis Set: CC-PVTZ
  Basis Set:
  @DF-RHF Final Energy:  -348.22016629179853
    Total Energy =                       -348.2201662917985914
  Basis Set: CC-PVTZ
  Basis Set:
  Basis Set: CC-PVTZ
  Basis Set:
  @DF-RHF Final Energy:  -348.22140127682019
    Total Energy =                       -348.2214012768201314
  Basis Set: CC-PVTZ
  Basis Set:
  Basis Set: CC-PVTZ
  Basis Set:
  @DF-RHF Final Energy:  -348.22145366936354
    Total Energy =                       -348.2214536693630862
  Basis Set: CC-PVTZ
  Basis Set:
  Basis Set: CC-PVTZ
  Basis Set:
  @DF-RHF Final Energy:  -348.22147232321021
    Total Energy =                       -348.2214723232103779
  Basis Set: CC-PVTZ
  Basis Set:
  Basis Set: CC-PVTZ
  Basis Set:
  @DF-RHF Final Energy:  -348.22139589923660
    Total Energy =                       -348.2213958992367111
  Basis Set: CC-PVTZ
  Basis Set:
  Basis Set: CC-PVTZ
  Basis Set:
  @DF-RHF Final Energy:  -348.22149269174088
    Total Energy =                       -348.2214926917409343
  Basis Set: CC-PVTZ
  Basis Set:
  Charge       = 0
  Multiplicity = 1
  Basis Set: CC-PVTZ
  Basis Set:

    Orbital Energies (a.u.)
    -----------------------

    Doubly Occupied:

       1A    -20.536547     2A    -11.319040     3A    -11.227729
       4A    -11.227135     5A    -11.226745     6A    -11.221024
       7A    -11.219182     8A    -11.211623     9A     -1.396608
      10A     -1.097101    11A     -1.045347    12A     -0.999986
      13A     -0.939366    14A     -0.862607    15A     -0.782869
      16A     -0.734401    17A     -0.664088    18A     -0.649770
      19A     -0.629453    20A     -0.617859    21A     -0.597538
      22A     -0.589567    23A     -0.556514    24A     -0.548567
      25A     -0.531397    26A     -0.525739    27A     -0.503064
      28A     -0.487933    29A     -0.468569    30A     -0.464060
      31A     -0.463587    32A     -0.398159

  @DF-RHF Final Energy:  -348.22149253454575

   => Energetics <=

    Nuclear Repulsion Energy =            374.5581528047842994
    One-Electron Energy =               -1214.0729459499059431
    Two-Electron Energy =                 491.2933006105756704
    DFT Exchange-Correlation Energy =       0.0000000000000000
    Empirical Dispersion Energy =           0.0000000000000000
    PCM Polarization Energy =               0.0000000000000000
    EFP Energy =                            0.0000000000000000
    Total Energy =                       -348.2214925345459733
    Molecular point group: c1
  Basis Set: CC-PVTZ
  Basis Set:

  -Total Gradient:
     Atom            X                  Y                   Z
    ------   -----------------  -----------------  -----------------
       1        0.000011837383    -0.000048743872    -0.000089767152
       2        0.000115966070     0.000097791828     0.000087037588
       3       -0.000008421157    -0.000010743323    -0.000015056182
       4       -0.000070896448    -0.000040001144    -0.000036279577
       5       -0.000058553122     0.000159710060     0.000031043797
       6       -0.000029790005    -0.000062796920    -0.000054715920
       7       -0.000001132178    -0.000015988256     0.000036547204
       8       -0.002761446240    -0.001851395735     0.005443026351
       9       -0.000017237379    -0.000048711573     0.000039400974
      10       -0.000036079744     0.000046900499    -0.000012796559
      11        0.001826436995     0.004561670319    -0.004277780793
      12        0.002101564800     0.000786625284    -0.004017514797
      13        0.000038616931    -0.000015529756     0.000014004309
      14       -0.000053610698    -0.000028172700     0.000029141877
      15       -0.001159329874    -0.003601413869     0.002734572545
      16       -0.000001171623     0.000004561768     0.000108294675
      17        0.000045831514     0.000043402022    -0.000120274052
      18        0.000061771889    -0.000006295629     0.000049224737
      19       -0.000008796215     0.000016028293     0.000013009977
      20       -0.000040374351     0.000003872387     0.000019228239
      21        0.000017313399    -0.000004637937    -0.000010882842
      22        0.000027500054     0.000013868256     0.000030535598

  **** Optimization is complete! (in 8 steps) ****
    Final optimized geometry and variables:
    Molecular point group: c1

    Geometry (in Angstrom), charge = 0, multiplicity = 1:

    O           -0.612182355554    -0.005969581433    -2.748983416045
    C           -1.128387292216     0.347270924919    -1.738925761479
    C           -1.037591982462    -0.491059180924    -0.479433308998
    C           -1.885649324643     1.651031604628    -1.651048806887
    C            0.259494885190    -0.197814214454     0.285293323547
    H           -1.059790276637    -1.531828565904    -0.776326067156
    H           -1.892536459056    -0.300398657610     0.161075363207
    C            0.374225454459    -1.029993674689     1.563124190511
    H            1.099979159968    -0.408051044914    -0.367914061665
    H            0.306202327000     0.859484692655     0.523940667504
    C            1.715346102300    -0.904516820618     2.297221030154
    H            0.240681429128    -2.069625238528     1.279976060753
    H           -0.439119033049    -0.768049240004     2.233727177665
    C            2.248215336230     0.513409914754     2.475709921831
    H            2.454191007022    -1.528120947680     1.802595236983
    H            1.592521026729    -1.350451426022     3.280492313485
    H            2.509189586449     0.973062304473     1.530213047867
    H            3.139757621193     0.507665402067     3.091890076505
    H            1.516238151755     1.149480122245     2.963844802838
    H           -2.941438279783     1.440706169976    -1.512546860490
    H           -1.748230678079     2.222383892955    -2.556177240907
    H           -1.558866271589     2.228136906612    -0.793313952949

  Mulliken Charges: (a.u.)
   Center  Symbol    Alpha    Beta     Spin     Total
       1     O     4.17820  4.17820  0.00000 -0.35640
       2     C     2.85789  2.85789  0.00000  0.28422
       3     C     3.09813  3.09813  0.00000 -0.19626
       4     C     3.15519  3.15519  0.00000 -0.31038
       5     C     3.10468  3.10468  0.00000 -0.20935
       6     H     0.43860  0.43860  0.00000  0.12280
       7     H     0.44945  0.44945  0.00000  0.10110
       8     C     3.09753  3.09753  0.00000 -0.19506
       9     H     0.44009  0.44009  0.00000  0.11981
      10     H     0.44886  0.44886  0.00000  0.10227
      11     C     3.08925  3.08925  0.00000 -0.17849
      12     H     0.44850  0.44850  0.00000  0.10301
      13     H     0.45125  0.45125  0.00000  0.09750
      14     C     3.15735  3.15735  0.00000 -0.31470
      15     H     0.45053  0.45053  0.00000  0.09895
      16     H     0.44985  0.44985  0.00000  0.10029
      17     H     0.45102  0.45102  0.00000  0.09796
      18     H     0.44366  0.44366  0.00000  0.11267
      19     H     0.45441  0.45441  0.00000  0.09118
      20     H     0.44837  0.44837  0.00000  0.10327
      21     H     0.43607  0.43607  0.00000  0.12785
      22     H     0.45112  0.45112  0.00000  0.09777

   Total alpha = 32.00000, Total beta = 32.00000, Total charge = -0.00000

*** Psi4 exiting successfully. Buy a developer a beer!
