  ==> Input File <==

--------------------------------------------------------------------------
set {
	reference rhf
	basis 6-31G*
}

set_num_threads( 1 )
memory 2 gb

molecule MOL {
0 1

O	 -0.291628	 1.323815	 -0.000732
C	 -0.449655	 0.146360	 0.000961
C	 -1.783294	 -0.549321	 -0.000296
O	 0.550821	 -0.724572	 0.000672
H	 -1.863538	 -1.185371	 -0.874187
H	 -2.574672	 0.185258	 -0.002793
H	 -1.866414	 -1.182381	 0.875436
C	 0.892625	 -1.309774	 1.244453
H	 1.194431	 -0.550200	 1.951076
H	 1.714211	 -1.978264	 1.039842
H	 0.054336	 -1.858677	 1.648581

	symmetry c1
}
set optking {
	frozen_dihedral = ("
		2 4 8 9
	")
}

ee = energy('scf')
oeprop('DIPOLE', 'QUADRUPOLE', 'MULLIKEN_CHARGES')
f=open( 'psi4out.xyz', 'w' )
f.write( "11  " )
f.write( str(ee) + "\n" )
f.write( MOL.save_string_xyz() )
f.close()
--------------------------------------------------------------------------

    Molecular point group: c1

    Geometry (in Angstrom), charge = 0, multiplicity = 1:

       Center              X                  Y                   Z               Mass
    ------------   -----------------  -----------------  -----------------  -----------------
           O         -0.084894094235     1.561386408673    -0.265663883887    15.994914619560
           C         -0.242921094235     0.383931408673    -0.263970883887    12.000000000000
           C         -1.576560094235    -0.311749591327    -0.265227883887    12.000000000000
           O          0.757554905765    -0.487000591327    -0.264259883887    15.994914619560
           H         -1.656804094235    -0.947799591327    -1.139118883887     1.007825032070
           H         -2.367938094235     0.422829408673    -0.267724883887     1.007825032070
           H         -1.659680094235    -0.944809591327     0.610504116113     1.007825032070
           C          1.099358905765    -1.072202591327     0.979521116113    12.000000000000
           H          1.401164905765    -0.312628591327     1.686144116113     1.007825032070
           H          1.920944905765    -1.740692591327     0.774910116113     1.007825032070
           H          0.261069905765    -1.621105591327     1.383649116113     1.007825032070

  Charge       = 0
  Multiplicity = 1
  Basis Set: 6-31G*
  Basis Set:

    Orbital Energies (a.u.)
    -----------------------

    Doubly Occupied:

       1A    -20.590309     2A    -20.556331     3A    -11.378017
       4A    -11.298313     5A    -11.236504     6A     -1.466120
       7A     -1.370041     8A     -1.026289     9A     -0.973909
      10A     -0.782868    11A     -0.694543    12A     -0.687527
      13A     -0.674259    14A     -0.617329    15A     -0.587519
      16A     -0.577189    17A     -0.548362    18A     -0.489429
      19A     -0.463661    20A     -0.440821

  @DF-RHF Final Energy:  -266.81333756315428

   => Energetics <=

    Nuclear Repulsion Energy =            183.4376891503077616
    One-Electron Energy =                -727.5833617104365203
    Two-Electron Energy =                 277.3323349969742253
    DFT Exchange-Correlation Energy =       0.0000000000000000
    Empirical Dispersion Energy =           0.0000000000000000
    PCM Polarization Energy =               0.0000000000000000
    EFP Energy =                            0.0000000000000000
    Total Energy =                       -266.8133375631545618

  Mulliken Charges: (a.u.)
   Center  Symbol    Alpha    Beta     Spin     Total
       1     O     4.25295  4.25295  0.00000 -0.50591
       2     C     2.63221  2.63221  0.00000  0.73559
       3     C     3.28894  3.28894  0.00000 -0.57789
       4     O     4.30128  4.30128  0.00000 -0.60256
       5     H     0.39786  0.39786  0.00000  0.20428
       6     H     0.39701  0.39701  0.00000  0.20597
       7     H     0.40786  0.40786  0.00000  0.18429
       8     C     3.09361  3.09361  0.00000 -0.18721
       9     H     0.40801  0.40801  0.00000  0.18397
      10     H     0.39951  0.39951  0.00000  0.20098
      11     H     0.42076  0.42076  0.00000  0.15848

   Total alpha = 20.00000, Total beta = 20.00000, Total charge = -0.00000
