  ==> Input File <==

--------------------------------------------------------------------------
set {
	reference rhf
	basis 6-31G*
}

set_num_threads( 4 )
memory 2 gb

molecule MOL {
0 1

H	 -1.836216	 1.387520	 -0.000064
C	 -1.301823	 0.443321	 -0.000031
O	 -0.003969	 0.658512	 0.000451
O	 -1.829879	 -0.616434	 -0.000857
C	 0.847329	 -0.465876	 0.220067
C	 2.276169	 0.030792	 0.174732
H	 0.654105	 -1.204262	 -0.545941
H	 0.604753	 -0.905564	 1.177734
H	 2.498788	 0.475051	 -0.788652
H	 2.958765	 -0.796731	 0.337525
H	 2.449360	 0.775216	 0.943318

	symmetry c1
}
set optking {
	frozen_dihedral = ("
		5 3 2 4
	")
}

ee = optimize('scf')
oeprop('DIPOLE', 'QUADRUPOLE', 'MULLIKEN_CHARGES')
f=open( 'psi4out.xyz', 'w' )
f.write( "11  " )
f.write( str(ee) + "\n" )
f.write( MOL.save_string_xyz() )
f.close()
--------------------------------------------------------------------------

    Molecular point group: c1
  Charge       = 0
  Multiplicity = 1
  Basis Set: 6-31G*
  Basis Set:
  @DF-RHF Final Energy:  -266.82831913485688
    Total Energy =                       -266.8283191348569403
    Molecular point group: c1
  Basis Set: 6-31G*
  Basis Set:
  Basis Set: 6-31G*
  Basis Set:
  @DF-RHF Final Energy:  -266.82623258405607
    Total Energy =                       -266.8262325840559015
  Basis Set: 6-31G*
  Basis Set:
  Basis Set: 6-31G*
  Basis Set:
  @DF-RHF Final Energy:  -266.82837810547284
    Total Energy =                       -266.8283781054727228
  Basis Set: 6-31G*
  Basis Set:
  Basis Set: 6-31G*
  Basis Set:
  @DF-RHF Final Energy:  -266.82840447949707
    Total Energy =                       -266.8284044794968963
  Basis Set: 6-31G*
  Basis Set:
  Charge       = 0
  Multiplicity = 1
  Basis Set: 6-31G*
  Basis Set:

    Orbital Energies (a.u.)
    -----------------------

    Doubly Occupied:

       1A    -20.612411     2A    -20.557349     3A    -11.378415
       4A    -11.292119     5A    -11.226883     6A     -1.476151
       7A     -1.374062     8A     -1.052751     9A     -0.902353
      10A     -0.805932    11A     -0.737484    12A     -0.690401
      13A     -0.677746    14A     -0.592168    15A     -0.574844
      16A     -0.557203    17A     -0.517780    18A     -0.515157
      19A     -0.460088    20A     -0.454327

  @DF-RHF Final Energy:  -266.82840791232326

   => Energetics <=

    Nuclear Repulsion Energy =            179.2642588589930597
    One-Electron Energy =                -719.2740912613242017
    Two-Electron Energy =                 273.1814244900078847
    DFT Exchange-Correlation Energy =       0.0000000000000000
    Empirical Dispersion Energy =           0.0000000000000000
    PCM Polarization Energy =               0.0000000000000000
    EFP Energy =                            0.0000000000000000
    Total Energy =                       -266.8284079123232004
    Molecular point group: c1
  Basis Set: 6-31G*
  Basis Set:

  -Total Gradient:
     Atom            X                  Y                   Z
    ------   -----------------  -----------------  -----------------
       1        0.000086391168     0.000021930911     0.000010876142
       2        0.000194778568     0.000505246981     0.007011869193
       3       -0.000200581722    -0.000973479373    -0.006066169104
       4       -0.000006354905    -0.000153784060    -0.003699896374
       5       -0.000018458176     0.000536296663     0.002738050786
       6       -0.000014956792     0.000043296023     0.000017463115
       7       -0.000027966069    -0.000003254522    -0.000018558191
       8       -0.000004719062     0.000022716713     0.000000518819
       9       -0.000006759949    -0.000004432267     0.000003124956
      10       -0.000019207279    -0.000004152591     0.000000606297
      11        0.000017834220     0.000009615522     0.000002114361

  **** Optimization is complete! (in 5 steps) ****
    Final optimized geometry and variables:
    Molecular point group: c1

    Geometry (in Angstrom), charge = 0, multiplicity = 1:

    H           -1.829882255497     1.385014923201    -0.112669671356
    C           -1.300159637855     0.439224742288    -0.068231421369
    O           -0.001309309446     0.644902127266    -0.119564462338
    O           -1.833621905857    -0.616346583406    -0.014991310363
    C            0.850757868497    -0.477306795843     0.108719627012
    C            2.277977287711     0.025832811848     0.092569813168
    H            0.676393126233    -1.213923423222    -0.663247837375
    H            0.592069396548    -0.921481855962     1.060340266607
    H            2.515740149696     0.475643044168    -0.864496861480
    H            2.961069983369    -0.799713000191     0.263384056695
    H            2.433764131059     0.767112731196     0.867888769408

  Mulliken Charges: (a.u.)
   Center  Symbol    Alpha    Beta     Spin     Total
       1     H     0.41051  0.41051  0.00000  0.17897
       2     C     2.72771  2.72771  0.00000  0.54458
       3     O     4.29141  4.29141  0.00000 -0.58282
       4     O     4.26248  4.26248  0.00000 -0.52496
       5     C     3.00629  3.00629  0.00000 -0.01258
       6     C     3.24937  3.24937  0.00000 -0.49875
       7     H     0.40709  0.40709  0.00000  0.18582
       8     H     0.40938  0.40938  0.00000  0.18125
       9     H     0.40996  0.40996  0.00000  0.18008
      10     H     0.41504  0.41504  0.00000  0.16992
      11     H     0.41075  0.41075  0.00000  0.17849

   Total alpha = 20.00000, Total beta = 20.00000, Total charge = -0.00000
