  ==> Input File <==

--------------------------------------------------------------------------
set {
	reference rhf
	basis cc-pvtz
}

set_num_threads( 4 )
memory 2 gb

molecule MOL {
0 1

H	 1.199958	 -1.507899	 0.584503
C	 0.591985	 -0.612442	 0.725836
N	 -0.537714	 -0.645117	 0.000000
O	 0.931765	 0.267873	 1.451310
C	 -1.522613	 0.412524	 0.000000
H	 -0.693735	 -1.444172	 -0.563162
H	 -2.150256	 0.356137	 -0.880771
H	 -1.005621	 1.357208	 0.000000
H	 -2.150256	 0.356137	 0.880771

	symmetry c1
}
set optking {
	frozen_dihedral = ("
		6 3 5 7
	")
}

ee = optimize('scf')
oeprop('DIPOLE', 'QUADRUPOLE', 'MULLIKEN_CHARGES')
f=open( 'psi4out.xyz', 'w' )
f.write( "9  " )
f.write( str(ee) + "\n" )
f.write( MOL.save_string_xyz() )
f.close()
--------------------------------------------------------------------------

    Molecular point group: c1
  Charge       = 0
  Multiplicity = 1
  Basis Set: CC-PVTZ
  Basis Set:
  @DF-RHF Final Energy:  -208.04327574142752
    Total Energy =                       -208.0432757414275784
    Molecular point group: c1
  Basis Set: CC-PVTZ
  Basis Set:
  Basis Set: CC-PVTZ
  Basis Set:
  @DF-RHF Final Energy:  -208.04358317873016
    Total Energy =                       -208.0435831787301595
  Basis Set: CC-PVTZ
  Basis Set:
  Basis Set: CC-PVTZ
  Basis Set:
  @DF-RHF Final Energy:  -208.04361371101299
    Total Energy =                       -208.0436137110129380
  Basis Set: CC-PVTZ
  Basis Set:
  Basis Set: CC-PVTZ
  Basis Set:
  @DF-RHF Final Energy:  -208.04365143983989
    Total Energy =                       -208.0436514398398913
  Basis Set: CC-PVTZ
  Basis Set:
  Basis Set: CC-PVTZ
  Basis Set:
  @DF-RHF Final Energy:  -208.04367176550312
    Total Energy =                       -208.0436717655031487
  Basis Set: CC-PVTZ
  Basis Set:
  Basis Set: CC-PVTZ
  Basis Set:
  @DF-RHF Final Energy:  -208.04367983989744
    Total Energy =                       -208.0436798398974361
  Basis Set: CC-PVTZ
  Basis Set:
  Charge       = 0
  Multiplicity = 1
  Basis Set: CC-PVTZ
  Basis Set:

    Orbital Energies (a.u.)
    -----------------------

    Doubly Occupied:

       1A    -20.516762     2A    -15.584455     3A    -11.336240
       4A    -11.260328     5A     -1.394057     6A     -1.239428
       7A     -0.969791     8A     -0.809035     9A     -0.749032
      10A     -0.645970    11A     -0.629949    12A     -0.596167
      13A     -0.558981    14A     -0.537633    15A     -0.428446
      16A     -0.396772

  @DF-RHF Final Energy:  -208.04368043253837

   => Energetics <=

    Nuclear Repulsion Energy =            122.9065150418646510
    One-Electron Energy =                -526.5942965833112339
    Two-Electron Energy =                 195.6441011089081883
    DFT Exchange-Correlation Energy =       0.0000000000000000
    Empirical Dispersion Energy =           0.0000000000000000
    PCM Polarization Energy =               0.0000000000000000
    EFP Energy =                            0.0000000000000000
    Total Energy =                       -208.0436804325384230
    Molecular point group: c1
  Basis Set: CC-PVTZ
  Basis Set:

  -Total Gradient:
     Atom            X                  Y                   Z
    ------   -----------------  -----------------  -----------------
       1        0.000012777829     0.000005015638     0.000007525900
       2       -0.000073197138    -0.000060929225    -0.000077328959
       3        0.000037805414    -0.000028932763     0.000060368096
       4        0.000020926356     0.000047402056     0.000040414954
       5       -0.000000226897     0.000059528445    -0.000027245887
       6        0.000010527699     0.000014314360    -0.000015856984
       7       -0.000014723593    -0.000013173942     0.000013041082
       8        0.000000751868    -0.000013235678     0.000000613297
       9        0.000005358462    -0.000009988889    -0.000001531499

  **** Optimization is complete! (in 7 steps) ****
    Final optimized geometry and variables:
    Molecular point group: c1

    Geometry (in Angstrom), charge = 0, multiplicity = 1:

    H            1.357630601784    -1.369844112141     0.052926783098
    C            0.735364053931    -0.483153366172     0.187998557502
    N           -0.362022118858    -0.494951227984    -0.584473399105
    O            1.031966218091     0.388818836101     0.942064084303
    C           -1.352209320744     0.557772797018    -0.537390806828
    H           -0.541134472902    -1.304369523857    -1.124370016755
    H           -2.011530465508     0.455440309690    -1.387303688131
    H           -0.868003561447     1.521516206673    -0.582658860726
    H           -1.940281821871     0.514964979628     0.371196911384

  Mulliken Charges: (a.u.)
   Center  Symbol    Alpha    Beta     Spin     Total
       1     H     0.46421  0.46421  0.00000  0.07158
       2     C     2.87986  2.87986  0.00000  0.24027
       3     N     3.60580  3.60580  0.00000 -0.21160
       4     O     4.21416  4.21416  0.00000 -0.42832
       5     C     3.07597  3.07597  0.00000 -0.15194
       6     H     0.41029  0.41029  0.00000  0.17942
       7     H     0.45428  0.45428  0.00000  0.09145
       8     H     0.44225  0.44225  0.00000  0.11551
       9     H     0.45319  0.45319  0.00000  0.09363

   Total alpha = 16.00000, Total beta = 16.00000, Total charge = -0.00000
