  ==> Input File <==

--------------------------------------------------------------------------
set {
	reference rhf
	basis 6-31G*
}

set_num_threads( 1 )
memory 2 gb

molecule MOL {
0 1

H	 0.098452	 4.087074	 -1.081636
O	 -0.305574	 3.378431	 -1.562237
C	 -0.231284	 2.196238	 -0.811312
C	 1.175733	 1.625364	 -0.819823
H	 -0.556839	 2.350848	 0.213612
H	 -0.909896	 1.490259	 -1.269057
O	 1.171513	 0.459272	 -0.058250
H	 1.877256	 2.351817	 -0.404959
H	 1.482410	 1.424813	 -1.844671
C	 2.397842	 -0.198080	 -0.002151
H	 2.508049	 -0.905315	 -0.822092
H	 3.173794	 0.550865	 -0.078850
H	 2.517602	 -0.735921	 0.936026

	symmetry c1
}
set optking {
	frozen_dihedral = ("
		8 4 3 5,
		1 2 3 5,
		10 7 4 8
	")
}

ee = energy('scf')
oeprop('DIPOLE', 'QUADRUPOLE', 'MULLIKEN_CHARGES')
f=open( 'psi4out.xyz', 'w' )
f.write( "13  " )
f.write( str(ee) + "\n" )
f.write( MOL.save_string_xyz() )
f.close()
--------------------------------------------------------------------------

    Molecular point group: c1

    Geometry (in Angstrom), charge = 0, multiplicity = 1:

       Center              X                  Y                   Z               Mass
    ------------   -----------------  -----------------  -----------------  -----------------
           H         -0.746079652080     2.567549970065    -0.425448391545     1.007825032070
           O         -1.150105652080     1.858906970065    -0.906049391545    15.994914619560
           C         -1.075815652080     0.676713970065    -0.155124391545    12.000000000000
           C          0.331201347920     0.105839970065    -0.163635391545    12.000000000000
           H         -1.401370652080     0.831323970065     0.869799608455     1.007825032070
           H         -1.754427652080    -0.029265029935    -0.612869391545     1.007825032070
           O          0.326981347920    -1.060252029935     0.597937608455    15.994914619560
           H          1.032724347920     0.832292970065     0.251228608455     1.007825032070
           H          0.637878347920    -0.094711029935    -1.188483391545     1.007825032070
           C          1.553310347920    -1.717604029935     0.654036608455    12.000000000000
           H          1.663517347920    -2.424839029935    -0.165904391545     1.007825032070
           H          2.329262347920    -0.968659029935     0.577337608455     1.007825032070
           H          1.673070347920    -2.255445029935     1.592213608455     1.007825032070

  Charge       = 0
  Multiplicity = 1
  Basis Set: 6-31G*
  Basis Set:

    Orbital Energies (a.u.)
    -----------------------

    Doubly Occupied:

       1A    -20.560321     2A    -20.560257     3A    -11.271743
       4A    -11.270221     5A    -11.269073     6A     -1.388321
       7A     -1.365306     8A     -1.018023     9A     -0.913213
      10A     -0.843268    11A     -0.709243    12A     -0.674108
      13A     -0.659716    14A     -0.637464    15A     -0.597135
      16A     -0.568373    17A     -0.548501    18A     -0.487747
      19A     -0.482118    20A     -0.438864    21A     -0.419445

  @DF-RHF Final Energy:  -267.94759661259172

   => Energetics <=

    Nuclear Repulsion Energy =            190.3229125471783050
    One-Electron Energy =                -743.1761061998887499
    Two-Electron Energy =                 284.9055970401185505
    DFT Exchange-Correlation Energy =       0.0000000000000000
    Empirical Dispersion Energy =           0.0000000000000000
    PCM Polarization Energy =               0.0000000000000000
    EFP Energy =                            0.0000000000000000
    Total Energy =                       -267.9475966125918376

  Mulliken Charges: (a.u.)
   Center  Symbol    Alpha    Beta     Spin     Total
       1     H     0.28128  0.28128  0.00000  0.43743
       2     O     4.37077  4.37077  0.00000 -0.74154
       3     C     3.00478  3.00478  0.00000 -0.00957
       4     C     2.99789  2.99789  0.00000  0.00422
       5     H     0.42218  0.42218  0.00000  0.15564
       6     H     0.40823  0.40823  0.00000  0.18353
       7     O     4.30904  4.30904  0.00000 -0.61808
       8     H     0.43679  0.43679  0.00000  0.12642
       9     H     0.42314  0.42314  0.00000  0.15372
      10     C     3.07703  3.07703  0.00000 -0.15406
      11     H     0.42452  0.42452  0.00000  0.15097
      12     H     0.43036  0.43036  0.00000  0.13928
      13     H     0.41399  0.41399  0.00000  0.17203

   Total alpha = 21.00000, Total beta = 21.00000, Total charge =  0.00000
