  ==> Input File <==

--------------------------------------------------------------------------
set {
	reference rhf
	basis 6-31G*
}

set_num_threads( 1 )
memory 2 gb

molecule MOL {
0 1

O	 3.225979	 0.970355	 -0.599647
C	 2.701189	 0.057885	 -0.047330
C	 1.245376	 -0.013843	 0.345420
O	 3.347903	 -1.046386	 0.304773
C	 1.038277	 -0.277272	 1.835329
H	 0.784115	 0.915733	 0.028688
H	 0.786253	 -0.793441	 -0.257184
C	 -0.431041	 -0.457187	 2.231850
H	 1.476878	 0.534781	 2.407447
H	 1.591756	 -1.169027	 2.108931
C	 -1.299829	 0.794032	 2.074472
H	 -0.462900	 -0.773618	 3.271840
H	 -0.864896	 -1.272880	 1.655287
C	 -2.728117	 0.594752	 2.585626
H	 -0.837574	 1.620412	 2.612279
H	 -1.339506	 1.093637	 1.029659
C	 -3.606932	 1.836992	 2.428605
H	 -2.697760	 0.307433	 3.635274
H	 -3.187259	 -0.238380	 2.055740
C	 -5.030523	 1.630861	 2.944937
H	 -3.149068	 2.670746	 2.956674
H	 -3.642034	 2.123166	 1.379485
H	 -5.628539	 2.528278	 2.819929
H	 -5.031516	 1.377365	 4.001315
H	 -5.527968	 0.825154	 2.412340
C	 4.728119	 -1.109107	 -0.004993
H	 4.882018	 -1.033965	 -1.071845
H	 5.068212	 -2.067527	 0.355250
H	 5.265056	 -0.311663	 0.488280

	symmetry c1
}
set optking {
	frozen_dihedral = ("
		21 17 14 11,
		17 14 11 15,
		15 11 8 5,
		6 3 5 9,
		11 8 5 9,
		2 4 26 27,
		1 2 4 26
	")
}

ee = energy('scf')
oeprop('DIPOLE', 'QUADRUPOLE', 'MULLIKEN_CHARGES')
f=open( 'psi4out.xyz', 'w' )
f.write( "29  " )
f.write( str(ee) + "\n" )
f.write( MOL.save_string_xyz() )
f.close()
--------------------------------------------------------------------------

    Molecular point group: c1

    Geometry (in Angstrom), charge = 0, multiplicity = 1:

       Center              X                  Y                   Z               Mass
    ------------   -----------------  -----------------  -----------------  -----------------
           O          2.897552857836     0.705668655170    -1.865368694680    15.994914619560
           C          2.372762857836    -0.206801344830    -1.313051694680    12.000000000000
           C          0.916949857836    -0.278529344830    -0.920301694680    12.000000000000
           O          3.019476857836    -1.311072344830    -0.960948694680    15.994914619560
           C          0.709850857836    -0.541958344830     0.569607305320    12.000000000000
           H          0.455688857836     0.651046655170    -1.237033694680     1.007825032070
           H          0.457826857836    -1.058127344830    -1.522905694680     1.007825032070
           C         -0.759467142164    -0.721873344830     0.966128305320    12.000000000000
           H          1.148451857836     0.270094655170     1.141725305320     1.007825032070
           H          1.263329857836    -1.433713344830     0.843209305320     1.007825032070
           C         -1.628255142164     0.529345655170     0.808750305320    12.000000000000
           H         -0.791326142164    -1.038304344830     2.006118305320     1.007825032070
           H         -1.193322142164    -1.537566344830     0.389565305320     1.007825032070
           C         -3.056543142164     0.330065655170     1.319904305320    12.000000000000
           H         -1.166000142164     1.355725655170     1.346557305320     1.007825032070
           H         -1.667932142164     0.828950655170    -0.236062694680     1.007825032070
           C         -3.935358142164     1.572305655170     1.162883305320    12.000000000000
           H         -3.026186142164     0.042746655170     2.369552305320     1.007825032070
           H         -3.515685142164    -0.503066344830     0.790018305320     1.007825032070
           C         -5.358949142164     1.366174655170     1.679215305320    12.000000000000
           H         -3.477494142164     2.406059655170     1.690952305320     1.007825032070
           H         -3.970460142164     1.858479655170     0.113763305320     1.007825032070
           H         -5.956965142164     2.263591655170     1.554207305320     1.007825032070
           H         -5.359942142164     1.112678655170     2.735593305320     1.007825032070
           H         -5.856394142164     0.560467655170     1.146618305320     1.007825032070
           C          4.399692857836    -1.373793344830    -1.270714694680    12.000000000000
           H          4.553591857836    -1.298651344830    -2.337566694680     1.007825032070
           H          4.739785857836    -2.332213344830    -0.910471694680     1.007825032070
           H          4.936629857836    -0.576349344830    -0.777441694680     1.007825032070

  Charge       = 0
  Multiplicity = 1
  Basis Set: 6-31G*
  Basis Set:

    Orbital Energies (a.u.)
    -----------------------

    Doubly Occupied:

       1A    -20.603896     2A    -20.544095     3A    -11.371008
       4A    -11.280789     5A    -11.233260     6A    -11.226364
       7A    -11.221064     8A    -11.217076     9A    -11.216196
      10A    -11.215309    11A    -11.209313    12A     -1.468919
      13A     -1.361542    14A     -1.101044    15A     -1.068893
      16A     -1.019551    17A     -0.973903    18A     -0.931038
      19A     -0.864844    20A     -0.800133    21A     -0.791066
      22A     -0.772926    23A     -0.697852    24A     -0.678988
      25A     -0.673080    26A     -0.651919    27A     -0.625644
      28A     -0.604038    29A     -0.595142    30A     -0.579198
      31A     -0.563159    32A     -0.554055    33A     -0.538885
      34A     -0.529954    35A     -0.518660    36A     -0.515417
      37A     -0.496603    38A     -0.482253    39A     -0.472551
      40A     -0.464441    41A     -0.463051    42A     -0.456029
      43A     -0.443109    44A     -0.426857

  @DF-RHF Final Energy:  -501.04238625354060

   => Energetics <=

    Nuclear Repulsion Energy =            612.3657858590916021
    One-Electron Energy =               -1895.7700966714362494
    Two-Electron Energy =                 782.3619245588034801
    DFT Exchange-Correlation Energy =       0.0000000000000000
    Empirical Dispersion Energy =           0.0000000000000000
    PCM Polarization Energy =               0.0000000000000000
    EFP Energy =                            0.0000000000000000
    Total Energy =                       -501.0423862535411672

  Mulliken Charges: (a.u.)
   Center  Symbol    Alpha    Beta     Spin     Total
       1     O     4.28543  4.28543  0.00000 -0.57086
       2     C     2.61332  2.61332  0.00000  0.77337
       3     C     3.20160  3.20160  0.00000 -0.40320
       4     O     4.30206  4.30206  0.00000 -0.60413
       5     C     3.16490  3.16490  0.00000 -0.32979
       6     H     0.39724  0.39724  0.00000  0.20552
       7     H     0.40462  0.40462  0.00000  0.19075
       8     C     3.15561  3.15561  0.00000 -0.31122
       9     H     0.41566  0.41566  0.00000  0.16868
      10     H     0.40412  0.40412  0.00000  0.19176
      11     C     3.15506  3.15506  0.00000 -0.31011
      12     H     0.41865  0.41865  0.00000  0.16269
      13     H     0.42197  0.42197  0.00000  0.15606
      14     C     3.15060  3.15060  0.00000 -0.30119
      15     H     0.42219  0.42219  0.00000  0.15561
      16     H     0.42165  0.42165  0.00000  0.15671
      17     C     3.15158  3.15158  0.00000 -0.30316
      18     H     0.42373  0.42373  0.00000  0.15254
      19     H     0.42392  0.42392  0.00000  0.15216
      20     C     3.23942  3.23942  0.00000 -0.47885
      21     H     0.42254  0.42254  0.00000  0.15493
      22     H     0.42271  0.42271  0.00000  0.15458
      23     H     0.41891  0.41891  0.00000  0.16217
      24     H     0.42176  0.42176  0.00000  0.15648
      25     H     0.42181  0.42181  0.00000  0.15639
      26     C     3.09225  3.09225  0.00000 -0.18449
      27     H     0.40886  0.40886  0.00000  0.18229
      28     H     0.40893  0.40893  0.00000  0.18215
      29     H     0.40891  0.40891  0.00000  0.18218

   Total alpha = 44.00000, Total beta = 44.00000, Total charge =  0.00000
