  ==> Input File <==

--------------------------------------------------------------------------
set {
	reference rhf
	basis 6-31G*
}

set_num_threads( 4 )
memory 2 gb

molecule MOL {
0 1

H	 3.463771	 0.168298	 -0.756243
C	 2.752674	 -0.045734	 0.033351
C	 1.322923	 0.120767	 -0.479465
H	 2.934561	 -1.059086	 0.377456
H	 2.958358	 0.631174	 0.856809
C	 0.306652	 -0.176050	 0.621399
H	 1.144658	 -0.551717	 -1.312180
H	 1.166477	 1.131798	 -0.836680
N	 -1.068537	 -0.011044	 0.085269
H	 0.372515	 -1.192590	 0.973735
H	 0.391664	 0.520566	 1.441230
O	 -1.973671	 -0.382382	 0.766600
O	 -1.170418	 0.454533	 -1.008753

	symmetry c1
}
set optking {
	frozen_dihedral = ("
		12 9 6 3
	")
}

ee = optimize('scf')
oeprop('DIPOLE', 'QUADRUPOLE', 'MULLIKEN_CHARGES')
f=open( 'psi4out.xyz', 'w' )
f.write( "13  " )
f.write( str(ee) + "\n" )
f.write( MOL.save_string_xyz() )
f.close()
--------------------------------------------------------------------------

    Molecular point group: c1
  Charge       = 0
  Multiplicity = 1
  Basis Set: 6-31G*
  Basis Set:
  @DF-RHF Final Energy:  -321.73289581991105
    Total Energy =                       -321.7328958199108229
    Molecular point group: c1
  Basis Set: 6-31G*
  Basis Set:
  Basis Set: 6-31G*
  Basis Set:
  @DF-RHF Final Energy:  -321.73077980242516
    Total Energy =                       -321.7307798024251042
  Basis Set: 6-31G*
  Basis Set:
  Basis Set: 6-31G*
  Basis Set:
  @DF-RHF Final Energy:  -321.73196707990638
    Total Energy =                       -321.7319670799064397
  Basis Set: 6-31G*
  Basis Set:
  Basis Set: 6-31G*
  Basis Set:
  @DF-RHF Final Energy:  -321.73466678838201
    Total Energy =                       -321.7346667883821283
  Basis Set: 6-31G*
  Basis Set:
  @DF-RHF Final Energy:  -321.73472338278322
    Total Energy =                       -321.7347233827831019
  @DF-RHF Final Energy:  -321.73496479823541
    Total Energy =                       -321.7349647982354099
  Basis Set: 6-31G*
  Basis Set:
  @DF-RHF Final Energy:  -321.73499746721592
    Total Energy =                       -321.7349974672158623
  Basis Set: 6-31G*
  Basis Set:
  Basis Set: 6-31G*
  Basis Set:
  @DF-RHF Final Energy:  -321.73500882443648
    Total Energy =                       -321.7350088244365907
  Basis Set: 6-31G*
  Basis Set:
  Basis Set: 6-31G*
  Basis Set:
  @DF-RHF Final Energy:  -321.73500989069436
    Total Energy =                       -321.7350098906945277
  Basis Set: 6-31G*
  Basis Set:
  Charge       = 0
  Multiplicity = 1
  Basis Set: 6-31G*
  Basis Set:

    Orbital Energies (a.u.)
    -----------------------

    Doubly Occupied:

       1A    -20.604352     2A    -20.598282     3A    -15.848925
       4A    -11.301198     5A    -11.249831     6A    -11.237538
       7A     -1.632067     8A     -1.417375     9A     -1.132930
      10A     -1.027304    11A     -0.884792    12A     -0.825544
      13A     -0.760041    14A     -0.749681    15A     -0.725773
      16A     -0.656327    17A     -0.607665    18A     -0.576462
      19A     -0.553660    20A     -0.522856    21A     -0.509994
      22A     -0.485543    23A     -0.473011    24A     -0.448754

  @DF-RHF Final Energy:  -321.73500992216884

   => Energetics <=

    Nuclear Repulsion Energy =            247.0407067824938565
    One-Electron Energy =                -927.8916182994249766
    Two-Electron Energy =                 359.1159015947622493
    DFT Exchange-Correlation Energy =       0.0000000000000000
    Empirical Dispersion Energy =           0.0000000000000000
    PCM Polarization Energy =               0.0000000000000000
    EFP Energy =                            0.0000000000000000
    Total Energy =                       -321.7350099221688424
    Molecular point group: c1
  Basis Set: 6-31G*
  Basis Set:

  -Total Gradient:
     Atom            X                  Y                   Z
    ------   -----------------  -----------------  -----------------
       1        0.000001604943    -0.000003569996     0.000000558885
       2        0.000005368561    -0.000018636175    -0.000004080728
       3       -0.000015164487     0.000139647720     0.000035861980
       4        0.000003680962     0.000000488622     0.000006334054
       5       -0.000001847284     0.000003696556    -0.000004865099
       6       -0.000003912402    -0.000116291540    -0.000025370776
       7        0.000000025607    -0.000004065949    -0.000001135358
       8       -0.000008470157    -0.000002714964     0.000003155204
       9        0.000030547186    -0.000149625567    -0.000062569245
      10       -0.000008086824     0.000001261248     0.000003767073
      11        0.000006835939     0.000012899370    -0.000005884663
      12       -0.000007551211     0.000134368302     0.000034433838
      13       -0.000003030823     0.000002542375     0.000019794835

  **** Optimization is complete! (in 10 steps) ****
    Final optimized geometry and variables:
    Molecular point group: c1

    Geometry (in Angstrom), charge = 0, multiplicity = 1:

    H            3.514393372156     0.155540488238    -0.729033626096
    C            2.776458483763    -0.048295258495     0.038264102959
    C            1.364410016631     0.134832822993    -0.520785723851
    H            2.938023814590    -1.062583428647     0.390646306227
    H            2.967172912638     0.627200079547     0.866891689103
    C            0.327692739892    -0.150685473448     0.551444672305
    H            1.207149866300    -0.530506701625    -1.361685904914
    H            1.235379586543     1.143872557878    -0.890357464762
    N           -1.080261742105    -0.013891630678     0.078199159336
    H            0.389620246893    -1.156211871545     0.940494218034
    H            0.397962827859     0.533860818284     1.386616015854
    O           -1.922696488853    -0.405564704171     0.826636990941
    O           -1.281099088602     0.484051436759    -0.984837237090

  Mulliken Charges: (a.u.)
   Center  Symbol    Alpha    Beta     Spin     Total
       1     H     0.40757  0.40757  0.00000  0.18486
       2     C     3.25017  3.25017  0.00000 -0.50033
       3     C     3.16501  3.16501  0.00000 -0.33003
       4     H     0.41635  0.41635  0.00000  0.16729
       5     H     0.41650  0.41650  0.00000  0.16700
       6     C     3.08861  3.08861  0.00000 -0.17722
       7     H     0.40339  0.40339  0.00000  0.19322
       8     H     0.39951  0.39951  0.00000  0.20099
       9     N     3.22478  3.22478  0.00000  0.55045
      10     H     0.38585  0.38585  0.00000  0.22830
      11     H     0.38529  0.38529  0.00000  0.22943
      12     O     4.22923  4.22923  0.00000 -0.45846
      13     O     4.22775  4.22775  0.00000 -0.45549

   Total alpha = 24.00000, Total beta = 24.00000, Total charge =  0.00000
