  ==> Input File <==

--------------------------------------------------------------------------
set {
	reference rhf
	basis cc-pvtz
}

set_num_threads( 4 )
memory 2 gb

molecule MOL {
0 1

H	 -2.644180	 -0.653737	 1.272255
C	 -2.092774	 -0.380414	 0.391915
O	 -0.808934	 -0.154049	 0.752536
F	 -2.163230	 -1.351640	 -0.507133
F	 -2.627232	 0.691260	 -0.169301
C	 0.085006	 0.250800	 -0.215074
C	 1.370439	 -0.548013	 -0.012993
Cl	 0.421658	 1.987697	 -0.091007
H	 -0.272219	 0.063284	 -1.212508
F	 2.341084	 -0.043595	 -0.731626
F	 1.172869	 -1.782666	 -0.410378
F	 1.744934	 -0.575237	 1.236512

	symmetry c1
}
set optking {
	frozen_dihedral = ("
		10 7 6 9
	")
}

ee = optimize('scf')
oeprop('DIPOLE', 'QUADRUPOLE', 'MULLIKEN_CHARGES')
f=open( 'psi4out.xyz', 'w' )
f.write( "12  " )
f.write( str(ee) + "\n" )
f.write( MOL.save_string_xyz() )
f.close()
--------------------------------------------------------------------------

    Molecular point group: c1
  Charge       = 0
  Multiplicity = 1
  Basis Set: CC-PVTZ
  Basis Set:
  @DF-RHF Final Energy: -1146.61929893529214
    Total Energy =                      -1146.6192989352919085
    Molecular point group: c1
  Basis Set: CC-PVTZ
  Basis Set:
  Basis Set: CC-PVTZ
  Basis Set:
  @DF-RHF Final Energy: -1146.61945794410713
    Total Energy =                      -1146.6194579441068981
  Basis Set: CC-PVTZ
  Basis Set:
  Basis Set: CC-PVTZ
  Basis Set:
  @DF-RHF Final Energy: -1146.61957880879436
    Total Energy =                      -1146.6195788087934488
  Basis Set: CC-PVTZ
  Basis Set:
  Basis Set: CC-PVTZ
  Basis Set:
  @DF-RHF Final Energy: -1146.61958352258921
    Total Energy =                      -1146.6195835225894371
  Basis Set: CC-PVTZ
  Basis Set:
  Basis Set: CC-PVTZ
  Basis Set:
  @DF-RHF Final Energy: -1146.61958480365638
    Total Energy =                      -1146.6195848036561529
  Basis Set: CC-PVTZ
  Basis Set:
  Charge       = 0
  Multiplicity = 1
  Basis Set: CC-PVTZ
  Basis Set:

    Orbital Energies (a.u.)
    -----------------------

    Doubly Occupied:

       1A   -104.857219     2A    -26.355237     3A    -26.354711
       4A    -26.351648     5A    -26.343001     6A    -26.342873
       7A    -20.640491     8A    -11.520302     9A    -11.483446
      10A    -11.400953    11A    -10.582759    12A     -8.049565
      13A     -8.047563    14A     -8.047495    15A     -1.767937
      16A     -1.724425    17A     -1.662979    18A     -1.661001
      19A     -1.644494    20A     -1.486362    21A     -1.178573
      22A     -1.053538    23A     -0.990190    24A     -0.924274
      25A     -0.864323    26A     -0.857985    27A     -0.852911
      28A     -0.829132    29A     -0.817591    30A     -0.794099
      31A     -0.733437    32A     -0.731639    33A     -0.712214
      34A     -0.708413    35A     -0.685510    36A     -0.680608
      37A     -0.665108    38A     -0.663989    39A     -0.649304
      40A     -0.638674    41A     -0.598567    42A     -0.581679
      43A     -0.526165    44A     -0.478280    45A     -0.470404

  @DF-RHF Final Energy: -1146.61958520642270

   => Energetics <=

    Nuclear Repulsion Energy =            738.3370285460689502
    One-Electron Energy =               -3059.8910956312020062
    Two-Electron Energy =                1174.9344818787103577
    DFT Exchange-Correlation Energy =       0.0000000000000000
    Empirical Dispersion Energy =           0.0000000000000000
    PCM Polarization Energy =               0.0000000000000000
    EFP Energy =                            0.0000000000000000
    Total Energy =                      -1146.6195852064229257
    Molecular point group: c1
  Basis Set: CC-PVTZ
  Basis Set:

  -Total Gradient:
     Atom            X                  Y                   Z
    ------   -----------------  -----------------  -----------------
       1       -0.000010754289    -0.000003006185    -0.000001483309
       2        0.000060866094    -0.000012997316     0.000008612313
       3       -0.000064299006     0.000022031917     0.000123508967
       4       -0.000013554397     0.000001687853    -0.000007178171
       5       -0.000048361698    -0.000005820631    -0.000008382888
       6        0.002961983365     0.004444134021    -0.001063840968
       7       -0.001622309642    -0.003372238554    -0.003085981574
       8        0.000007814898    -0.000101957257    -0.000010637108
       9       -0.002134747082    -0.003039599361     0.001413452182
      10        0.000839928382     0.002046129422     0.002530041617
      11        0.000013418419     0.000036179363    -0.000003830073
      12        0.000010014995    -0.000014543076     0.000105719012

  **** Optimization is complete! (in 6 steps) ****
    Final optimized geometry and variables:
    Molecular point group: c1

    Geometry (in Angstrom), charge = 0, multiplicity = 1:

    H           -2.636055147996    -0.676517714652     1.261379303668
    C           -2.087450421521    -0.386242611843     0.384615667541
    O           -0.802117229539    -0.170275797237     0.744136985161
    F           -2.164073505045    -1.339431962634    -0.533755867210
    F           -2.623217261741     0.697061819948    -0.152913712609
    C            0.090238680184     0.256238607557    -0.220585981667
    C            1.373628968027    -0.550584033993    -0.018965084450
    CL           0.406948877585     1.990911077911    -0.075535729209
    H           -0.280307261758     0.055459888459    -1.210661104707
    F            2.349902190647    -0.078991702399    -0.749575273547
    F            1.154725081729    -1.793916798982    -0.375025753804
    F            1.757515905134    -0.543049710155     1.229490132610

  Mulliken Charges: (a.u.)
   Center  Symbol    Alpha    Beta     Spin     Total
       1     H     0.45195  0.45195  0.00000  0.09609
       2     C     2.74031  2.74031  0.00000  0.51938
       3     O     4.15619  4.15619  0.00000 -0.31239
       4     F     4.61834  4.61834  0.00000 -0.23667
       5     F     4.61518  4.61518  0.00000 -0.23036
       6     C     2.93957  2.93957  0.00000  0.12086
       7     C     2.66990  2.66990  0.00000  0.66021
       8    CL     8.57182  8.57182  0.00000 -0.14364
       9     H     0.43050  0.43050  0.00000  0.13900
      10     F     4.60052  4.60052  0.00000 -0.20105
      11     F     4.60476  4.60476  0.00000 -0.20953
      12     F     4.60095  4.60095  0.00000 -0.20191

   Total alpha = 45.00000, Total beta = 45.00000, Total charge = -0.00000
