  ==> Input File <==

--------------------------------------------------------------------------
set {
	reference rhf
	basis cc-pvtz
}

set_num_threads( 4 )
memory 2 gb

molecule MOL {
0 1

H	 -0.000105	 1.988529	 0.748933
O	 -0.000098	 1.879786	 -0.188206
C	 -0.000014	 0.545691	 -0.532416
C	 1.315375	 -0.109299	 -0.107541
C	 -0.337917	 0.382826	 -2.015343
H	 -0.787372	 0.059203	 0.024412
F	 1.458757	 0.008469	 1.189545
F	 1.354458	 -1.384206	 -0.402154
F	 2.347249	 0.474989	 -0.677820
F	 -1.520959	 0.895404	 -2.248864
F	 -0.363780	 -0.872744	 -2.384922
F	 0.528767	 1.016296	 -2.776230

	symmetry c1
}
set optking {
	frozen_dihedral = ("
		6 3 2 1
	")
}

ee = optimize('scf')
oeprop('DIPOLE', 'QUADRUPOLE', 'MULLIKEN_CHARGES')
f=open( 'psi4out.xyz', 'w' )
f.write( "12  " )
f.write( str(ee) + "\n" )
f.write( MOL.save_string_xyz() )
f.close()
--------------------------------------------------------------------------

    Molecular point group: c1
  Charge       = 0
  Multiplicity = 1
  Basis Set: CC-PVTZ
  Basis Set:
  @DF-RHF Final Energy:  -786.58591661818389
    Total Energy =                       -786.5859166181846831
    Molecular point group: c1
  Basis Set: CC-PVTZ
  Basis Set:
  Basis Set: CC-PVTZ
  Basis Set:
  @DF-RHF Final Energy:  -786.58771462511345
    Total Energy =                       -786.5877146251129943
  Basis Set: CC-PVTZ
  Basis Set:
  Basis Set: CC-PVTZ
  Basis Set:
  @DF-RHF Final Energy:  -786.58812143999785
    Total Energy =                       -786.5881214399978489
  Basis Set: CC-PVTZ
  Basis Set:
  Basis Set: CC-PVTZ
  Basis Set:
  @DF-RHF Final Energy:  -786.58817023315839
    Total Energy =                       -786.5881702331578254
  Basis Set: CC-PVTZ
  Basis Set:
  Basis Set: CC-PVTZ
  Basis Set:
  @DF-RHF Final Energy:  -786.58817828048723
    Total Energy =                       -786.5881782804872273
  Basis Set: CC-PVTZ
  Basis Set:
  Basis Set: CC-PVTZ
  Basis Set:
  @DF-RHF Final Energy:  -786.58817990585646
    Total Energy =                       -786.5881799058569186
  Basis Set: CC-PVTZ
  Basis Set:
  Charge       = 0
  Multiplicity = 1
  Basis Set: CC-PVTZ
  Basis Set:

    Orbital Energies (a.u.)
    -----------------------

    Doubly Occupied:

       1A    -26.357970     2A    -26.355820     3A    -26.353875
       4A    -26.351864     5A    -26.348580     6A    -26.348089
       7A    -20.609422     8A    -11.518336     9A    -11.516226
      10A    -11.351592    11A     -1.769439    12A     -1.762037
      13A     -1.664065    14A     -1.663060    15A     -1.657497
      16A     -1.656038    17A     -1.439738    18A     -1.103865
      19A     -0.999465    20A     -0.940505    21A     -0.871990
      22A     -0.863141    23A     -0.858958    24A     -0.848143
      25A     -0.837497    26A     -0.788597    27A     -0.763913
      28A     -0.735354    29A     -0.727975    30A     -0.723618
      31A     -0.721343    32A     -0.688777    33A     -0.685241
      34A     -0.674104    35A     -0.673989    36A     -0.666106
      37A     -0.658738    38A     -0.637037    39A     -0.622778
      40A     -0.553443    41A     -0.509907

  @DF-RHF Final Energy:  -786.58818047049363

   => Energetics <=

    Nuclear Repulsion Energy =            670.7387826515041525
    One-Electron Energy =               -2428.8976596323318518
    Two-Electron Energy =                 971.5706965103343009
    DFT Exchange-Correlation Energy =       0.0000000000000000
    Empirical Dispersion Energy =           0.0000000000000000
    PCM Polarization Energy =               0.0000000000000000
    EFP Energy =                            0.0000000000000000
    Total Energy =                       -786.5881804704933984
    Molecular point group: c1
  Basis Set: CC-PVTZ
  Basis Set:

  -Total Gradient:
     Atom            X                  Y                   Z
    ------   -----------------  -----------------  -----------------
       1       -0.000010434571     0.000019695436     0.000026484997
       2        0.000037047712     0.000031547912     0.000029411053
       3       -0.000017809733    -0.000030741987    -0.000085875654
       4        0.000003476321     0.000051264929    -0.000038418757
       5        0.000018778309    -0.000010195123    -0.000004388493
       6        0.000020177696    -0.000006190788    -0.000000657070
       7       -0.000045697982    -0.000031565294     0.000014443601
       8        0.000023344493     0.000005836180     0.000033796413
       9       -0.000011448026    -0.000022124467    -0.000025755850
      10       -0.000023387244    -0.000021677242     0.000015560913
      11       -0.000017531779     0.000000018459     0.000018699765
      12        0.000023484808     0.000014131981     0.000016699075

  **** Optimization is complete! (in 7 steps) ****
    Final optimized geometry and variables:
    Molecular point group: c1

    Geometry (in Angstrom), charge = 0, multiplicity = 1:

    H           -0.529065778807     1.714200910427     1.757085545362
    O           -0.509402122184     1.591054455635     0.824423594089
    C           -0.507411897244     0.250284410273     0.504340120674
    C            0.817916063375    -0.396152574733     0.910862291284
    C           -0.820161543837     0.152957443141    -0.986832833851
    H           -1.286724339908    -0.303911647414     1.015566000540
    F            1.019846245067    -0.146944700684     2.191534469165
    F            0.786339600937    -1.697641576861     0.763289678916
    F            1.842333691866     0.069714762756     0.248288838125
    F           -2.031571145625     0.605037078437    -1.204503143539
    F           -0.779765810024    -1.095524023082    -1.391626510293
    F            0.009927068454     0.846545729698    -1.718727688952

  Mulliken Charges: (a.u.)
   Center  Symbol    Alpha    Beta     Spin     Total
       1     H     0.38330  0.38330  0.00000  0.23341
       2     O     4.18471  4.18471  0.00000 -0.36942
       3     C     2.99944  2.99944  0.00000  0.00111
       4     C     2.68250  2.68250  0.00000  0.63500
       5     C     2.67641  2.67641  0.00000  0.64719
       6     H     0.44462  0.44462  0.00000  0.11075
       7     F     4.61369  4.61369  0.00000 -0.22737
       8     F     4.60407  4.60407  0.00000 -0.20814
       9     F     4.59993  4.59993  0.00000 -0.19987
      10     F     4.60426  4.60426  0.00000 -0.20853
      11     F     4.60574  4.60574  0.00000 -0.21148
      12     F     4.60132  4.60132  0.00000 -0.20265

   Total alpha = 41.00000, Total beta = 41.00000, Total charge = -0.00000
