  ==> Input File <==

--------------------------------------------------------------------------
set {
	reference rhf
	basis cc-pvtz
}

set_num_threads( 4 )
memory 2 gb

molecule MOL {
0 1

H	 3.273419	 0.176595	 -0.102789
N	 2.433987	 -0.362316	 -0.080024
C	 1.263552	 0.494993	 0.021953
H	 2.497638	 -0.973615	 0.707122
C	 -0.016533	 -0.325589	 -0.026925
H	 1.280915	 1.180773	 -0.818522
H	 1.263064	 1.106893	 0.925038
C	 -1.280353	 0.525521	 0.047747
H	 -0.016686	 -0.912532	 -0.939714
H	 -0.014099	 -1.037598	 0.796369
C	 -2.230148	 0.087247	 1.157610
H	 -1.799213	 0.481904	 -0.906113
H	 -1.008397	 1.566749	 0.198609
H	 -2.547650	 -0.940436	 1.016933
H	 -3.118610	 0.707706	 1.182410
H	 -1.752997	 0.153950	 2.129751

	symmetry c1
}
set optking {
	frozen_dihedral = ("
		12 8 5 9
	")
}

ee = optimize('scf')
oeprop('DIPOLE', 'QUADRUPOLE', 'MULLIKEN_CHARGES')
f=open( 'psi4out.xyz', 'w' )
f.write( "16  " )
f.write( str(ee) + "\n" )
f.write( MOL.save_string_xyz() )
f.close()
--------------------------------------------------------------------------

    Molecular point group: c1
  Charge       = 0
  Multiplicity = 1
  Basis Set: CC-PVTZ
  Basis Set:
  @DF-RHF Final Energy:  -212.39502258705735
    Total Energy =                       -212.3950225870572694
    Molecular point group: c1
  Basis Set: CC-PVTZ
  Basis Set:
  Basis Set: CC-PVTZ
  Basis Set:
  @DF-RHF Final Energy:  -212.39524921740076
    Total Energy =                       -212.3952492174006466
  Basis Set: CC-PVTZ
  Basis Set:
  Basis Set: CC-PVTZ
  Basis Set:
  @DF-RHF Final Energy:  -212.39530724959150
    Total Energy =                       -212.3953072495915535
  Basis Set: CC-PVTZ
  Basis Set:
  Charge       = 0
  Multiplicity = 1
  Basis Set: CC-PVTZ
  Basis Set:

    Orbital Energies (a.u.)
    -----------------------

    Doubly Occupied:

       1A    -15.526574     2A    -11.238633     3A    -11.212891
       4A    -11.207715     5A    -11.206727     6A     -1.178544
       7A     -1.058243     8A     -0.959600     9A     -0.845627
      10A     -0.792303    11A     -0.662238    12A     -0.639408
      13A     -0.600458    14A     -0.588046    15A     -0.564149
      16A     -0.518678    17A     -0.509387    18A     -0.469469
      19A     -0.460698    20A     -0.459851    21A     -0.384179

  @DF-RHF Final Energy:  -212.39530788165479

   => Energetics <=

    Nuclear Repulsion Energy =            186.8513400023151689
    One-Electron Energy =                -656.3264540837107006
    Two-Electron Energy =                 257.0798061997406307
    DFT Exchange-Correlation Energy =       0.0000000000000000
    Empirical Dispersion Energy =           0.0000000000000000
    PCM Polarization Energy =               0.0000000000000000
    EFP Energy =                            0.0000000000000000
    Total Energy =                       -212.3953078816549009
    Molecular point group: c1
  Basis Set: CC-PVTZ
  Basis Set:

  -Total Gradient:
     Atom            X                  Y                   Z
    ------   -----------------  -----------------  -----------------
       1        0.000039212529    -0.000012624219     0.000004690742
       2        0.000076211258    -0.000018133563    -0.000001579401
       3       -0.000077407732    -0.000034965376    -0.000022513307
       4        0.000012718943    -0.000002725357     0.000006414507
       5       -0.001137628465    -0.001689494276     0.001024421131
       6       -0.000003972728     0.000000383390     0.000006168270
       7       -0.000014559561     0.000010525463    -0.000005640951
       8        0.001150026028     0.001780828233    -0.000741940941
       9        0.000768160970     0.001185504846    -0.000748448820
      10       -0.000001493734    -0.000005381444     0.000001928825
      11       -0.000004581861     0.000025776557    -0.000021300080
      12       -0.000816621905    -0.001246766731     0.000499109831
      13        0.000006832894     0.000004734414     0.000003201394
      14        0.000005037313    -0.000000219407     0.000000871631
      15       -0.000008579311     0.000002009097     0.000000070472
      16        0.000006645363     0.000000548373    -0.000005453302

  **** Optimization is complete! (in 4 steps) ****
    Final optimized geometry and variables:
    Molecular point group: c1

    Geometry (in Angstrom), charge = 0, multiplicity = 1:

    H            3.213108435250     0.102601637464    -0.362191393251
    N            2.375627166560    -0.439187948700    -0.334822606453
    C            1.202955632993     0.411324110518    -0.217476114258
    H            2.448838098696    -1.056283461921     0.447005622073
    C           -0.076342082792    -0.414091650059    -0.253740197167
    H            1.205946122542     1.100351656859    -1.055701850438
    H            1.207274008864     1.021051390140     0.687580901575
    C           -1.351551465457     0.447825280605    -0.182840237491
    H           -0.062814036188    -1.003893345089    -1.162311174876
    H           -0.059277533511    -1.118847841965     0.573378300127
    C           -2.320240253156     0.013384512221     0.913958018362
    H           -1.869622872530     0.409992511729    -1.134696047196
    H           -1.084482618144     1.487848199859    -0.022689965743
    H           -2.638001469033    -1.013794063891     0.768834063202
    H           -3.207701815741     0.636179002923     0.925597951469
    H           -1.856061858599     0.078432135538     1.892733893561

  Mulliken Charges: (a.u.)
   Center  Symbol    Alpha    Beta     Spin     Total
       1     H     0.43008  0.43008  0.00000  0.13983
       2     N     3.69009  3.69009  0.00000 -0.38018
       3     C     3.02465  3.02465  0.00000 -0.04929
       4     H     0.43069  0.43069  0.00000  0.13862
       5     C     3.08549  3.08549  0.00000 -0.17099
       6     H     0.45628  0.45628  0.00000  0.08744
       7     H     0.46912  0.46912  0.00000  0.06176
       8     C     3.09323  3.09323  0.00000 -0.18645
       9     H     0.44634  0.44634  0.00000  0.10731
      10     H     0.46017  0.46017  0.00000  0.07966
      11     C     3.14762  3.14762  0.00000 -0.29525
      12     H     0.44983  0.44983  0.00000  0.10034
      13     H     0.45607  0.45607  0.00000  0.08785
      14     H     0.45397  0.45397  0.00000  0.09206
      15     H     0.44984  0.44984  0.00000  0.10032
      16     H     0.45652  0.45652  0.00000  0.08697

   Total alpha = 21.00000, Total beta = 21.00000, Total charge = -0.00000
