  ==> Input File <==

--------------------------------------------------------------------------
set {
	reference rhf
	basis 6-31G*
}

set_num_threads( 4 )
memory 2 gb

molecule MOL {
0 1

H	 -1.079765	 0.922670	 0.032619
N	 -0.712432	 0.000013	 -0.096310
C	 0.734192	 -0.000004	 0.040609
H	 -0.980620	 -0.293721	 -1.015360
H	 1.139899	 -0.873598	 -0.456463
H	 1.139939	 0.873831	 -0.456100
H	 1.096456	 -0.000300	 1.069655

	symmetry c1
}
set optking {
	frozen_dihedral = ("
		1 2 3 7
	")
}

ee = optimize('scf')
oeprop('DIPOLE', 'QUADRUPOLE', 'MULLIKEN_CHARGES')
f=open( 'psi4out.xyz', 'w' )
f.write( "7  " )
f.write( str(ee) + "\n" )
f.write( MOL.save_string_xyz() )
f.close()
--------------------------------------------------------------------------

    Molecular point group: c1
  Charge       = 0
  Multiplicity = 1
  Basis Set: 6-31G*
  Basis Set:
  @DF-RHF Final Energy:   -95.20702646510856
    Total Energy =                        -95.2070264651086546
    Molecular point group: c1
  Basis Set: 6-31G*
  Basis Set:
  Basis Set: 6-31G*
  Basis Set:
  @DF-RHF Final Energy:   -95.20885837111172
    Total Energy =                        -95.2088583711118304
  Basis Set: 6-31G*
  Basis Set:
  Basis Set: 6-31G*
  Basis Set:
  @DF-RHF Final Energy:   -95.20907475189848
    Total Energy =                        -95.2090747518984699
  Basis Set: 6-31G*
  Basis Set:
  Charge       = 0
  Multiplicity = 1
  Basis Set: 6-31G*
  Basis Set:

    Orbital Energies (a.u.)
    -----------------------

    Doubly Occupied:

       1A    -15.535221     2A    -11.237530     3A     -1.171074
       4A     -0.896986     5A     -0.663074     6A     -0.603610
       7A     -0.557597     8A     -0.515858     9A     -0.385275

  @DF-RHF Final Energy:   -95.20907640911491

   => Energetics <=

    Nuclear Repulsion Energy =             42.3139456973228789
    One-Electron Energy =                -211.9135930784636344
    Two-Electron Energy =                  74.3905709720258272
    DFT Exchange-Correlation Energy =       0.0000000000000000
    Empirical Dispersion Energy =           0.0000000000000000
    PCM Polarization Energy =               0.0000000000000000
    EFP Energy =                            0.0000000000000000
    Total Energy =                        -95.2090764091149282
    Molecular point group: c1
  Basis Set: 6-31G*
  Basis Set:

  -Total Gradient:
     Atom            X                  Y                   Z
    ------   -----------------  -----------------  -----------------
       1        0.000141222138     0.000473311415    -0.002429827769
       2        0.000034922306    -0.001083702007     0.003092460081
       3       -0.000259323905     0.002890733132    -0.000649899470
       4        0.000086751562    -0.000020546553     0.000034608633
       5        0.000016274017    -0.000010474291    -0.000004135413
       6       -0.000007614006     0.000045642894    -0.000016689348
       7       -0.000012232114    -0.002294964591    -0.000026516714

  **** Optimization is complete! (in 4 steps) ****
    Final optimized geometry and variables:
    Molecular point group: c1

    Geometry (in Angstrom), charge = 0, multiplicity = 1:

    H           -1.105294518951     0.875372071184     0.129125861665
    N           -0.718971026800    -0.035849388276    -0.025401257021
    C            0.732575690671    -0.001460546155     0.071601383192
    H           -0.995907954433    -0.300087695907    -0.950927685171
    H            1.137156302114    -0.901414883631    -0.377554093594
    H            1.202076410804     0.853499724566    -0.414736149847
    H            1.028951792954    -0.011874785754     1.114480626077

  Mulliken Charges: (a.u.)
   Center  Symbol    Alpha    Beta     Spin     Total
       1     H     0.33386  0.33386  0.00000  0.33228
       2     N     3.91638  3.91638  0.00000 -0.83277
       3     C     3.14854  3.14854  0.00000 -0.29709
       4     H     0.33412  0.33412  0.00000  0.33175
       5     H     0.41883  0.41883  0.00000  0.16234
       6     H     0.43223  0.43223  0.00000  0.13555
       7     H     0.41603  0.41603  0.00000  0.16793

   Total alpha =  9.00000, Total beta =  9.00000, Total charge = -0.00000
