                              Psi4 1.0.54 Driver

  ==> Input File <==

--------------------------------------------------------------------------
set {
	reference rhf
	basis cc-pvtz
}

set_num_threads( 4 )
memory 2 gb

molecule MOL {
0 1

H	 2.631016	 -0.346546	 0.596152
O	 2.063695	 -0.083403	 -0.105237
C	 0.742924	 0.005675	 0.350750
H	 0.731380	 0.039219	 1.440080
C	 -0.064076	 -1.193495	 -0.124425
C	 -0.047832	 1.190568	 -0.194462
H	 0.194729	 -1.376165	 -1.161308
H	 0.163013	 -2.094508	 0.429933
C	 -1.533112	 -0.752002	 0.006102
H	 0.148003	 1.266545	 -1.259275
H	 0.226235	 2.136493	 0.259722
C	 -1.506634	 0.799189	 0.067162
H	 -2.124360	 -1.110499	 -0.826089
H	 -1.983103	 -1.158030	 0.903403
H	 -2.183808	 1.252169	 -0.644677
H	 -1.813926	 1.138698	 1.049457

	symmetry c1
}
set optking {
	frozen_dihedral = ("
		1 2 3 6
	")
}

ee,wfn = optimize('scf', return_wfn=True)
oeprop( wfn, 'DIPOLE', 'QUADRUPOLE', 'MULLIKEN_CHARGES')
f=open( 'psi4out.xyz', 'w' )
f.write( "16  " )
f.write( str(ee) + "\n" )
f.write( MOL.save_string_xyz() )
f.close()
--------------------------------------------------------------------------

    Molecular point group: c1
  Charge       = 0
  Multiplicity = 1
  Basis Set: CC-PVTZ
  Basis Set:
  @DF-RHF Final Energy:  -270.11481849893414
    Total Energy =                       -270.1148184989341416
    Molecular point group: c1
  Basis Set: CC-PVTZ
  Basis Set:
  Basis Set: CC-PVTZ
  Basis Set:
  @DF-RHF Final Energy:  -270.11570035683326
    Total Energy =                       -270.1157003568333721
  Basis Set: CC-PVTZ
  Basis Set:
  Basis Set: CC-PVTZ
  Basis Set:
  @DF-RHF Final Energy:  -270.11577762253967
    Total Energy =                       -270.1157776225398379
  Basis Set: CC-PVTZ
  Basis Set:
  Basis Set: CC-PVTZ
  Basis Set:
  @DF-RHF Final Energy:  -270.11578095119967
    Total Energy =                       -270.1157809511995538
  Basis Set: CC-PVTZ
  Basis Set:
  Charge       = 0
  Multiplicity = 1
  Basis Set: CC-PVTZ
  Basis Set:

    Orbital Energies (a.u.)
    -----------------------

    Doubly Occupied:

       1A    -20.545175     2A    -11.268058     3A    -11.212891
       4A    -11.212286     5A    -11.206466     6A    -11.206158
       7A     -1.364822     8A     -1.113594     9A     -0.964582
      10A     -0.949193    11A     -0.781167    12A     -0.779910
      13A     -0.716280    14A     -0.654012    15A     -0.622260
      16A     -0.580367    17A     -0.553533    18A     -0.529159
      19A     -0.521030    20A     -0.479479    21A     -0.469464
      22A     -0.455630    23A     -0.452875    24A     -0.414283

  @DF-RHF Final Energy:  -270.11578191754563

   => Energetics <=

    Nuclear Repulsion Energy =            255.3238094619769925
    One-Electron Energy =                -872.7738342077936977
    Two-Electron Energy =                 347.3342428282712717
    DFT Exchange-Correlation Energy =       0.0000000000000000
    Empirical Dispersion Energy =           0.0000000000000000
    PCM Polarization Energy =               0.0000000000000000
    EFP Energy =                            0.0000000000000000
    Total Energy =                       -270.1157819175454051
    Molecular point group: c1
  Basis Set: CC-PVTZ
  Basis Set:

  -Total Gradient:
     Atom            X                  Y                   Z
    ------   -----------------  -----------------  -----------------
       1        0.000175871797     0.001134292829     0.000269814473
       2       -0.000138496379    -0.001268776322    -0.000082785139
       3       -0.000296466243    -0.000272960824    -0.000749921239
       4        0.000017970668    -0.000011578792    -0.000015310563
       5        0.000114444379     0.000008564471    -0.000048720958
       6        0.000134902582     0.000479970746     0.000579092347
       7       -0.000014296341    -0.000028966995     0.000019068251
       8       -0.000021269852     0.000016053486     0.000007688141
       9       -0.000062565440     0.000018190269     0.000092420214
      10        0.000014820105    -0.000028549059     0.000017055693
      11        0.000033061010     0.000009949256    -0.000000266024
      12        0.000053638653    -0.000013095796    -0.000060591671
      13        0.000012961901    -0.000003692132    -0.000032190811
      14       -0.000034783939    -0.000021199510    -0.000034044954
      15       -0.000015195266    -0.000019744093     0.000029543079
      16        0.000025402364     0.000001542468     0.000009149163

  **** Optimization is complete! (in 5 steps) ****
    Final optimized geometry and variables:
    Molecular point group: c1

    Geometry (in Angstrom), charge = 0, multiplicity = 1:

    H            2.659815003906    -0.305735626636     0.525450594363
    O            2.062121098476    -0.065650311800    -0.156189622880
    C            0.749025003002    -0.005398721109     0.334648182719
    H            0.765913070310     0.084884622432     1.419307957902
    C           -0.106915426236    -1.204848702437    -0.063237602666
    C           -0.015531965636     1.174644638069    -0.246608523256
    H            0.126089786758    -1.446984795467    -1.094007138156
    H            0.099057357343    -2.086961760708     0.531000299006
    C           -1.558608500026    -0.711400220709     0.070356499390
    H            0.172916505515     1.201847261793    -1.314977694342
    H            0.300441189535     2.124586232206     0.165320381879
    C           -1.482241908251     0.839826734169     0.044144925498
    H           -2.177862033444    -1.096401014382    -0.729069699508
    H           -2.002849449932    -1.052586668893     0.997213027400
    H           -2.151831561110     1.271525380472    -0.687729326770
    H           -1.772715554786     1.242508231844     1.007671565879

  Mulliken Charges: (a.u.)
   Center  Symbol    Alpha    Beta     Spin     Total
       1     H     0.39271  0.39271  0.00000  0.21458
       2     O     4.20316  4.20316  0.00000 -0.40633
       3     C     2.92141  2.92141  0.00000  0.15718
       4     H     0.46976  0.46976  0.00000  0.06047
       5     C     3.10124  3.10124  0.00000 -0.20247
       6     C     3.09550  3.09550  0.00000 -0.19099
       7     H     0.45249  0.45249  0.00000  0.09502
       8     H     0.44905  0.44905  0.00000  0.10190
       9     C     3.11266  3.11266  0.00000 -0.22532
      10     H     0.45294  0.45294  0.00000  0.09412
      11     H     0.44700  0.44700  0.00000  0.10600
      12     C     3.11258  3.11258  0.00000 -0.22517
      13     H     0.44529  0.44529  0.00000  0.10942
      14     H     0.44911  0.44911  0.00000  0.10177
      15     H     0.44386  0.44386  0.00000  0.11227
      16     H     0.45122  0.45122  0.00000  0.09755

   Total alpha = 24.00000, Total beta = 24.00000, Total charge =  0.00000

*** Psi4 exiting successfully. Buy a developer a beer!
