  ==> Input File <==

--------------------------------------------------------------------------
set {
	reference rhf
	basis cc-pvtz
}

set_num_threads( 4 )
memory 2 gb

molecule MOL {
0 1

H	 1.176158	 -0.230630	 -0.803905
C	 0.848385	 0.440008	 0.000011
C	 -0.623497	 0.751021	 0.000090
O	 1.631169	 0.858560	 0.780592
C	 -1.523725	 -0.474323	 -0.000013
H	 -0.813143	 1.382932	 -0.864897
H	 -0.813071	 1.382716	 0.865253
H	 -1.342980	 -1.087348	 -0.873016
H	 -2.565269	 -0.177464	 0.000070
H	 -1.342898	 -1.087564	 0.872820

	symmetry c1
}
set optking {
	frozen_dihedral = ("
		4 2 3 6
	")
}

ee = optimize('scf')
oeprop('DIPOLE', 'QUADRUPOLE', 'MULLIKEN_CHARGES')
f=open( 'psi4out.xyz', 'w' )
f.write( "10  " )
f.write( str(ee) + "\n" )
f.write( MOL.save_string_xyz() )
f.close()
--------------------------------------------------------------------------

    Molecular point group: c1
  Charge       = 0
  Multiplicity = 1
  Basis Set: CC-PVTZ
  Basis Set:
  @DF-RHF Final Energy:  -192.02275674845760
    Total Energy =                       -192.0227567484576525
    Molecular point group: c1
  Basis Set: CC-PVTZ
  Basis Set:
  Basis Set: CC-PVTZ
  Basis Set:
  @DF-RHF Final Energy:  -192.02308576237061
    Total Energy =                       -192.0230857623706697
  Basis Set: CC-PVTZ
  Basis Set:
  Basis Set: CC-PVTZ
  Basis Set:
  @DF-RHF Final Energy:  -192.02203784287371
    Total Energy =                       -192.0220378428736865
  Basis Set: CC-PVTZ
  Basis Set:
  Basis Set: CC-PVTZ
  Basis Set:
  @DF-RHF Final Energy:  -192.02330885746474
    Total Energy =                       -192.0233088574646843
  Basis Set: CC-PVTZ
  Basis Set:
  Charge       = 0
  Multiplicity = 1
  Basis Set: CC-PVTZ
  Basis Set:

    Orbital Energies (a.u.)
    -----------------------

    Doubly Occupied:

       1A    -20.553488     2A    -11.322823     3A    -11.238327
       4A    -11.232300     5A     -1.408452     6A     -1.068379
       7A     -0.905065     8A     -0.795255     9A     -0.675467
      10A     -0.644054    11A     -0.620326    12A     -0.567116
      13A     -0.545621    14A     -0.517951    15A     -0.498493
      16A     -0.415121

  @DF-RHF Final Energy:  -192.02331638432190

   => Energetics <=

    Nuclear Repulsion Energy =            117.5027417741504365
    One-Electron Energy =                -493.0356385910048402
    Two-Electron Energy =                 183.5095804325324877
    DFT Exchange-Correlation Energy =       0.0000000000000000
    Empirical Dispersion Energy =           0.0000000000000000
    PCM Polarization Energy =               0.0000000000000000
    EFP Energy =                            0.0000000000000000
    Total Energy =                       -192.0233163843219302
    Molecular point group: c1
  Basis Set: CC-PVTZ
  Basis Set:

  -Total Gradient:
     Atom            X                  Y                   Z
    ------   -----------------  -----------------  -----------------
       1       -0.000042626188    -0.000009319396     0.000001077046
       2       -0.000080213245    -0.000270442431     0.000170371932
       3       -0.000018634605    -0.000231349583    -0.000259060103
       4        0.000027566438     0.000303560036    -0.000093237505
       5        0.000026786398     0.000062339578     0.000080630950
       6        0.000111316543     0.000258447633     0.000137795535
       7        0.000035929967    -0.000041000711    -0.000023510154
       8       -0.000006528652    -0.000008854262    -0.000001093919
       9       -0.000013777714     0.000000391572    -0.000004965009
      10       -0.000039818939    -0.000063772435    -0.000008008773

  **** Optimization is complete! (in 5 steps) ****
    Final optimized geometry and variables:
    Molecular point group: c1

    Geometry (in Angstrom), charge = 0, multiplicity = 1:

    H            1.055785122985    -0.658387439784    -0.989677257645
    C            0.753496568121     0.040104952120    -0.197935756790
    C           -0.711443751060     0.382067026233    -0.173879969722
    O            1.559069240983     0.470355541831     0.552304228900
    C           -1.596708686566    -0.863355439590    -0.199406080543
    H           -0.909921332486     0.989026907804    -1.054285443021
    H           -0.904845545992     0.991382876001     0.698334379288
    H           -1.392073520989    -1.475440212060    -1.070811842209
    H           -2.641998398872    -0.585063031305    -0.230003322114
    H           -1.439485467427    -1.473306987093     0.682414772736

  Mulliken Charges: (a.u.)
   Center  Symbol    Alpha    Beta     Spin     Total
       1     H     0.46678  0.46678  0.00000  0.06644
       2     C     2.89997  2.89997  0.00000  0.20006
       3     C     3.08087  3.08087  0.00000 -0.16173
       4     O     4.16346  4.16346  0.00000 -0.32691
       5     C     3.15134  3.15134  0.00000 -0.30269
       6     H     0.45027  0.45027  0.00000  0.09946
       7     H     0.44157  0.44157  0.00000  0.11685
       8     H     0.45357  0.45357  0.00000  0.09286
       9     H     0.44416  0.44416  0.00000  0.11168
      10     H     0.44800  0.44800  0.00000  0.10399

   Total alpha = 16.00000, Total beta = 16.00000, Total charge = -0.00000
