                              Psi4 1.0.54 Driver

  ==> Input File <==

--------------------------------------------------------------------------
set {
	reference rhf
	basis cc-pvtz
}

set_num_threads( 4 )
memory 2 gb

molecule MOL {
0 1

H	 -4.494563	 -0.723102	 4.224321
O	 -4.028730	 -0.826271	 5.033138
C	 -3.190161	 -1.949736	 4.970691
C	 -1.971007	 -1.747955	 4.083205
H	 -2.870848	 -2.136840	 5.987063
H	 -3.750167	 -2.823498	 4.642998
C	 -2.296703	 -1.561016	 2.603061
H	 -1.417247	 -0.887790	 4.447382
H	 -1.323946	 -2.613674	 4.202539
C	 -1.047273	 -1.394446	 1.739339
H	 -2.936866	 -0.693310	 2.483554
H	 -2.863878	 -2.419751	 2.247852
C	 -1.311023	 -1.277304	 0.237018
H	 -0.494691	 -0.520567	 2.075815
H	 -0.395232	 -2.247043	 1.907828
C	 -2.041121	 -0.006551	 -0.194127
H	 -0.356835	 -1.319902	 -0.280899
H	 -1.873751	 -2.146180	 -0.096969
C	 -3.489218	 0.042606	 0.286507
H	 -2.022185	 0.066287	 -1.279394
H	 -1.518764	 0.869305	 0.178730
C	 -4.219984	 1.311773	 -0.139038
H	 -4.022855	 -0.824300	 -0.093339
H	 -3.510372	 -0.038577	 1.370031
H	 -4.244251	 1.405725	 -1.219696
H	 -5.244345	 1.313233	 0.215630
H	 -3.732090	 2.196311	 0.257073

	symmetry c1
}
set optking {
	frozen_dihedral = ("
		10 13 16 20
	")
}

ee,wfn = optimize('scf', return_wfn=True)
oeprop( wfn, 'DIPOLE', 'QUADRUPOLE', 'MULLIKEN_CHARGES')
f=open( 'psi4out.xyz', 'w' )
f.write( "27  " )
f.write( str(ee) + "\n" )
f.write( MOL.save_string_xyz() )
f.close()
--------------------------------------------------------------------------

    Molecular point group: c1
  Charge       = 0
  Multiplicity = 1
  Basis Set: CC-PVTZ
  Basis Set:
  @DF-RHF Final Energy:  -388.40860485579805
    Total Energy =                       -388.4086048557982167
    Molecular point group: c1
  Basis Set: CC-PVTZ
  Basis Set:
  Basis Set: CC-PVTZ
  Basis Set:
  @DF-RHF Final Energy:  -388.41986365559836
    Total Energy =                       -388.4198636555986468
  Basis Set: CC-PVTZ
  Basis Set:
  Basis Set: CC-PVTZ
  Basis Set:
  @DF-RHF Final Energy:  -388.42134307158454
    Total Energy =                       -388.4213430715847153
  Basis Set: CC-PVTZ
  Basis Set:
  Basis Set: CC-PVTZ
  Basis Set:
  @DF-RHF Final Energy:  -388.42229141911736
    Total Energy =                       -388.4222914191177551
  Basis Set: CC-PVTZ
  Basis Set:
  @DF-RHF Final Energy:  -388.42191208987811
    Total Energy =                       -388.4219120898784467
  @DF-RHF Final Energy:  -388.42293680481123
    Total Energy =                       -388.4229368048102060
  @DF-RHF Final Energy:  -388.42313709635357
    Total Energy =                       -388.4231370963537984
  @DF-RHF Final Energy:  -388.42256634038625
    Total Energy =                       -388.4225663403852877
  @DF-RHF Final Energy:  -388.42323245517696
    Total Energy =                       -388.4232324551771853
  Basis Set: CC-PVTZ
  Basis Set:
  @DF-RHF Final Energy:  -388.42324454798745
    Total Energy =                       -388.4232445479871103
  Basis Set: CC-PVTZ
  Basis Set:
  Basis Set: CC-PVTZ
  Basis Set:
  @DF-RHF Final Energy:  -388.42325259924360
    Total Energy =                       -388.4232525992442788
  Basis Set: CC-PVTZ
  Basis Set:
  Basis Set: CC-PVTZ
  Basis Set:
  @DF-RHF Final Energy:  -388.42325564922720
    Total Energy =                       -388.4232556492272579
  Basis Set: CC-PVTZ
  Basis Set:
  Charge       = 0
  Multiplicity = 1
  Basis Set: CC-PVTZ
  Basis Set:

    Orbital Energies (a.u.)
    -----------------------

    Doubly Occupied:

       1A    -20.545358     2A    -11.264958     3A    -11.216283
       4A    -11.214594     5A    -11.214000     6A    -11.213473
       7A    -11.212991     8A    -11.212358     9A    -11.207087
      10A     -1.363199    11A     -1.094797    12A     -1.061385
      13A     -1.011190    14A     -0.951620    15A     -0.886223
      16A     -0.830534    17A     -0.794698    18A     -0.777146
      19A     -0.696532    20A     -0.654068    21A     -0.628150
      22A     -0.620438    23A     -0.602254    24A     -0.589722
      25A     -0.576489    26A     -0.561283    27A     -0.541106
      28A     -0.518719    29A     -0.505748    30A     -0.500603
      31A     -0.489653    32A     -0.477587    33A     -0.469499
      34A     -0.460124    35A     -0.445542    36A     -0.442195
      37A     -0.424764

  @DF-RHF Final Energy:  -388.42325663567817

   => Energetics <=

    Nuclear Repulsion Energy =            469.0615647530626120
    One-Electron Energy =               -1456.4168937782528701
    Two-Electron Energy =                 598.9320723895124274
    DFT Exchange-Correlation Energy =       0.0000000000000000
    Empirical Dispersion Energy =           0.0000000000000000
    PCM Polarization Energy =               0.0000000000000000
    EFP Energy =                            0.0000000000000000
    Total Energy =                       -388.4232566356778307
    Molecular point group: c1
  Basis Set: CC-PVTZ
  Basis Set:

  -Total Gradient:
     Atom            X                  Y                   Z
    ------   -----------------  -----------------  -----------------
       1        0.000003099328     0.000001969846    -0.000015991632
       2       -0.000030649282    -0.000006995392     0.000015995364
       3        0.000036625268     0.000049591757     0.000004234735
       4       -0.000031321558    -0.000044180715    -0.000002531288
       5       -0.000013063526    -0.000002496862     0.000008577860
       6        0.000000963023    -0.000002527038    -0.000001845080
       7        0.000126185306    -0.000040942727     0.000047816135
       8        0.000008950972     0.000008020305     0.000008861034
       9        0.000017831039    -0.000009784925    -0.000010959238
      10        0.000599903760     0.000282913603    -0.000083294644
      11       -0.000050477346     0.000029506971    -0.000036593675
      12       -0.000025890567    -0.000014778870     0.000009166238
      13       -0.000729464855    -0.000297840424     0.000151877581
      14       -0.000002050681    -0.000000656199    -0.000000924727
      15       -0.000004676059     0.000012204348    -0.000017488520
      16       -0.000720452352    -0.000430839280    -0.000015828087
      17       -0.000014962453     0.000006337327     0.000006393642
      18       -0.000001825015     0.000023042513     0.000008707542
      19       -0.000075895496     0.000016638778    -0.000074709559
      20        0.000814055974     0.000470174497    -0.000049749153
      21       -0.000010205049    -0.000014628553     0.000001017841
      22        0.000038290133    -0.000026388738     0.000004101046
      23        0.000035977300     0.000022809534     0.000015455168
      24        0.000006753465    -0.000007914330    -0.000007589778
      25        0.000006411275     0.000011915934     0.000048475996
      26        0.000028737879    -0.000017517419     0.000001754337
      27       -0.000012850484    -0.000017633943    -0.000014929132

  **** Optimization is complete! (in 13 steps) ****
    Final optimized geometry and variables:
    Molecular point group: c1

    Geometry (in Angstrom), charge = 0, multiplicity = 1:

    H           -1.856143232043    -1.110273290117     2.209703179507
    O           -1.413301160110    -0.900864794087     3.010771197439
    C           -0.126525221588    -1.460858376740     3.014909752379
    C            0.844117325842    -0.755210722133     2.079845420754
    H            0.227755065363    -1.379766156131     4.033663752200
    H           -0.173584378720    -2.520982009988     2.773590791423
    C            0.483314036262    -0.868515716994     0.600773594244
    H            0.898259733244     0.291361416598     2.364321124142
    H            1.832826879673    -1.177845045616     2.242717237473
    C            1.511926440584    -0.202801515352    -0.314263287920
    H           -0.494030760461    -0.431223649981     0.430932647975
    H            0.402761737718    -1.919557366281     0.330305846950
    C            1.185061324370    -0.263106815445    -1.816571600643
    H            1.646308740951     0.832961115461    -0.013569459468
    H            2.468557676480    -0.687373918597    -0.144724143316
    C            0.470473413187     0.959846419467    -2.399720440469
    H            2.115126237557    -0.378230415626    -2.363284345836
    H            0.604855950709    -1.157900486863    -2.028140524023
    C           -0.959975328366     1.199108366402    -1.922394252689
    H            0.463940940208     0.861142520430    -3.482171083397
    H            1.065380822675     1.845667734540    -2.188503903784
    C           -1.632046975694     2.361743035143    -2.646014453669
    H           -1.546111857769     0.295897518532    -2.070916330759
    H           -0.966427240327     1.398900539321    -0.856310560341
    H           -1.686359605113     2.179354679256    -3.714009052827
    H           -2.642044642691     2.518337017200    -2.285053731861
    H           -1.081592821060     3.284846975941    -2.497554537964

  Mulliken Charges: (a.u.)
   Center  Symbol    Alpha    Beta     Spin     Total
       1     H     0.39203  0.39203  0.00000  0.21595
       2     O     4.20566  4.20566  0.00000 -0.41131
       3     C     2.97969  2.97969  0.00000  0.04062
       4     C     3.09074  3.09074  0.00000 -0.18149
       5     H     0.44865  0.44865  0.00000  0.10269
       6     H     0.46930  0.46930  0.00000  0.06140
       7     C     3.10237  3.10237  0.00000 -0.20474
       8     H     0.45081  0.45081  0.00000  0.09838
       9     H     0.45482  0.45482  0.00000  0.09036
      10     C     3.10286  3.10286  0.00000 -0.20572
      11     H     0.45526  0.45526  0.00000  0.08948
      12     H     0.45247  0.45247  0.00000  0.09506
      13     C     3.10526  3.10526  0.00000 -0.21053
      14     H     0.45072  0.45072  0.00000  0.09856
      15     H     0.44543  0.44543  0.00000  0.10914
      16     C     3.08914  3.08914  0.00000 -0.17829
      17     H     0.44290  0.44290  0.00000  0.11419
      18     H     0.45461  0.45461  0.00000  0.09077
      19     C     3.09214  3.09214  0.00000 -0.18429
      20     H     0.44922  0.44922  0.00000  0.10157
      21     H     0.45418  0.45418  0.00000  0.09164
      22     C     3.14969  3.14969  0.00000 -0.29938
      23     H     0.45350  0.45350  0.00000  0.09301
      24     H     0.45129  0.45129  0.00000  0.09742
      25     H     0.45439  0.45439  0.00000  0.09121
      26     H     0.44821  0.44821  0.00000  0.10357
      27     H     0.45464  0.45464  0.00000  0.09071

   Total alpha = 37.00000, Total beta = 37.00000, Total charge = -0.00000

*** Psi4 exiting successfully. Buy a developer a beer!
