  ==> Input File <==

--------------------------------------------------------------------------
set {
	reference rhf
	basis 6-31G*
}

set_num_threads( 1 )
memory 2 gb

molecule MOL {
0 1

H	 2.882030	 0.308445	 0.085953
C	 1.951159	 -0.223429	 0.317018
C	 0.692068	 0.589600	 0.160137
O	 1.983251	 -1.359919	 0.662691
C	 -0.558097	 -0.297372	 0.091132
H	 0.791645	 1.202255	 -0.728243
H	 0.616171	 1.253469	 1.020572
C	 -1.850991	 0.512573	 -0.019058
H	 -0.476753	 -0.965681	 -0.762987
H	 -0.604799	 -0.930658	 0.975228
C	 -3.096943	 -0.368295	 -0.099594
H	 -1.800724	 1.150330	 -0.898172
H	 -1.931651	 1.177355	 0.838044
H	 -3.060452	 -1.020287	 -0.967456
H	 -3.996858	 0.233488	 -0.175704
H	 -3.191959	 -0.995686	 0.782074

	symmetry c1
}
set optking {
	frozen_dihedral = ("
		9 5 8 12,
		6 3 5 9
	")
}

ee = energy('scf')
oeprop('DIPOLE', 'QUADRUPOLE', 'MULLIKEN_CHARGES')
f=open( 'psi4out.xyz', 'w' )
f.write( "16  " )
f.write( str(ee) + "\n" )
f.write( MOL.save_string_xyz() )
f.close()
--------------------------------------------------------------------------

    Molecular point group: c1

    Geometry (in Angstrom), charge = 0, multiplicity = 1:

       Center              X                  Y                   Z               Mass
    ------------   -----------------  -----------------  -----------------  -----------------
           H          3.038749802327     0.514906297221    -0.101863258688     1.007825032070
           C          2.107878802327    -0.016967702779     0.129201741312    12.000000000000
           C          0.848787802327     0.796061297221    -0.027679258688    12.000000000000
           O          2.139970802327    -1.153457702779     0.474874741312    15.994914619560
           C         -0.401377197673    -0.090910702779    -0.096684258688    12.000000000000
           H          0.948364802327     1.408716297221    -0.916059258688     1.007825032070
           H          0.772890802327     1.459930297221     0.832755741312     1.007825032070
           C         -1.694271197673     0.719034297221    -0.206874258688    12.000000000000
           H         -0.320033197673    -0.759219702779    -0.950803258688     1.007825032070
           H         -0.448079197673    -0.724196702779     0.787411741312     1.007825032070
           C         -2.940223197673    -0.161833702779    -0.287410258688    12.000000000000
           H         -1.644004197673     1.356791297221    -1.085988258688     1.007825032070
           H         -1.774931197673     1.383816297221     0.650227741312     1.007825032070
           H         -2.903732197673    -0.813825702779    -1.155272258688     1.007825032070
           H         -3.840138197673     0.439949297221    -0.363520258688     1.007825032070
           H         -3.035239197673    -0.789224702779     0.594257741312     1.007825032070

  Charge       = 0
  Multiplicity = 1
  Basis Set: 6-31G*
  Basis Set:

    Orbital Energies (a.u.)
    -----------------------

    Doubly Occupied:

       1A    -20.564090     2A    -11.328325     3A    -11.237075
       4A    -11.222327     5A    -11.221315     6A    -11.212012
       7A     -1.404496     8A     -1.087711     9A     -1.014906
      10A     -0.907083    11A     -0.812790    12A     -0.771469
      13A     -0.676236    14A     -0.655499    15A     -0.628989
      16A     -0.599328    17A     -0.583113    18A     -0.535337
      19A     -0.527209    20A     -0.499405    21A     -0.481281
      22A     -0.476050    23A     -0.471634    24A     -0.410872

  @DF-RHF Final Energy:  -270.02041485303653

   => Energetics <=

    Nuclear Repulsion Energy =            232.1354333605193858
    One-Electron Energy =                -825.6545920172469550
    Two-Electron Energy =                 323.4987438036909566
    DFT Exchange-Correlation Energy =       0.0000000000000000
    Empirical Dispersion Energy =           0.0000000000000000
    PCM Polarization Energy =               0.0000000000000000
    EFP Energy =                            0.0000000000000000
    Total Energy =                       -270.0204148530365842

  Mulliken Charges: (a.u.)
   Center  Symbol    Alpha    Beta     Spin     Total
       1     H     0.42739  0.42739  0.00000  0.14521
       2     C     2.83639  2.83639  0.00000  0.32723
       3     C     3.21318  3.21318  0.00000 -0.42636
       4     O     4.23688  4.23688  0.00000 -0.47376
       5     C     3.15054  3.15054  0.00000 -0.30108
       6     H     0.40983  0.40983  0.00000  0.18034
       7     H     0.40395  0.40395  0.00000  0.19211
       8     C     3.15291  3.15291  0.00000 -0.30583
       9     H     0.41608  0.41608  0.00000  0.16784
      10     H     0.40776  0.40776  0.00000  0.18447
      11     C     3.23955  3.23955  0.00000 -0.47910
      12     H     0.42390  0.42390  0.00000  0.15221
      13     H     0.42337  0.42337  0.00000  0.15326
      14     H     0.42016  0.42016  0.00000  0.15968
      15     H     0.41863  0.41863  0.00000  0.16274
      16     H     0.41949  0.41949  0.00000  0.16103

   Total alpha = 24.00000, Total beta = 24.00000, Total charge = -0.00000
