  ==> Input File <==

--------------------------------------------------------------------------
set {
	reference rhf
	basis 6-31G*
}

set_num_threads( 1 )
memory 2 gb

molecule MOL {
0 1

H	 -2.189604	 0.743646	 2.369166
C	 -1.642376	 0.159036	 3.105992
O	 -0.422035	 -0.280173	 2.602801
H	 -1.435557	 0.783072	 3.964448
H	 -2.269563	 -0.674254	 3.420144
C	 -0.529519	 -1.107745	 1.487982
C	 0.852516	 -1.428663	 0.969139
H	 -1.037135	 -2.035892	 1.753626
H	 -1.104646	 -0.624201	 0.700951
O	 1.392611	 -0.295398	 0.366430
H	 1.477051	 -1.762605	 1.795242
H	 0.784263	 -2.244221	 0.248099
C	 2.706965	 -0.449871	 -0.062409
H	 2.756559	 -0.644779	 -1.131878
H	 3.305899	 0.433456	 0.155466
H	 3.125548	 -1.294566	 0.467107

	symmetry c1
}
set optking {
	frozen_dihedral = ("
		3 6 7 11,
		2 3 6 7
	")
}

ee = energy('scf')
oeprop('DIPOLE', 'QUADRUPOLE', 'MULLIKEN_CHARGES')
f=open( 'psi4out.xyz', 'w' )
f.write( "16  " )
f.write( str(ee) + "\n" )
f.write( MOL.save_string_xyz() )
f.close()
--------------------------------------------------------------------------

    Molecular point group: c1

    Geometry (in Angstrom), charge = 0, multiplicity = 1:

       Center              X                  Y                   Z               Mass
    ------------   -----------------  -----------------  -----------------  -----------------
           H         -2.585025250377     1.304452349774     0.955225007287     1.007825032070
           C         -2.037797250377     0.719842349774     1.692051007287    12.000000000000
           O         -0.817456250377     0.280633349774     1.188860007287    15.994914619560
           H         -1.830978250377     1.343878349774     2.550507007287     1.007825032070
           H         -2.664984250377    -0.113447650226     2.006203007287     1.007825032070
           C         -0.924940250377    -0.546938650226     0.074041007287    12.000000000000
           C          0.457094749623    -0.867856650226    -0.444801992713    12.000000000000
           H         -1.432556250377    -1.475085650226     0.339685007287     1.007825032070
           H         -1.500067250377    -0.063394650226    -0.712989992713     1.007825032070
           O          0.997189749623     0.265408349774    -1.047510992713    15.994914619560
           H          1.081629749623    -1.201798650226     0.381301007287     1.007825032070
           H          0.388841749623    -1.683414650226    -1.165841992713     1.007825032070
           C          2.311543749623     0.110935349774    -1.476349992713    12.000000000000
           H          2.361137749623    -0.083972650226    -2.545818992713     1.007825032070
           H          2.910477749623     0.994262349774    -1.258474992713     1.007825032070
           H          2.730126749623    -0.733759650226    -0.946833992713     1.007825032070

  Charge       = 0
  Multiplicity = 1
  Basis Set: 6-31G*
  Basis Set:

    Orbital Energies (a.u.)
    -----------------------

    Doubly Occupied:

       1A    -20.553582     2A    -20.550751     3A    -11.269817
       4A    -11.268579     5A    -11.263521     6A    -11.263070
       7A     -1.387886     8A     -1.370219     9A     -1.030419
      10A     -0.935198    11A     -0.892525    12A     -0.825648
      13A     -0.683091    14A     -0.679515    15A     -0.658634
      16A     -0.634964    17A     -0.627783    18A     -0.598312
      19A     -0.553408    20A     -0.536157    21A     -0.507864
      22A     -0.476588    23A     -0.463132    24A     -0.418390
      25A     -0.408183

  @DF-RHF Final Energy:  -306.97335392835430

   => Energetics <=

    Nuclear Repulsion Energy =            258.9258811156005322
    One-Electron Energy =                -932.0839104736129457
    Two-Electron Energy =                 366.1846754296590802
    DFT Exchange-Correlation Energy =       0.0000000000000000
    Empirical Dispersion Energy =           0.0000000000000000
    PCM Polarization Energy =               0.0000000000000000
    EFP Energy =                            0.0000000000000000
    Total Energy =                       -306.9733539283533332

  Mulliken Charges: (a.u.)
   Center  Symbol    Alpha    Beta     Spin     Total
       1     H     0.42801  0.42801  0.00000  0.14399
       2     C     3.07950  3.07950  0.00000 -0.15901
       3     O     4.30089  4.30089  0.00000 -0.60178
       4     H     0.41130  0.41130  0.00000  0.17739
       5     H     0.43192  0.43192  0.00000  0.13616
       6     C     2.99327  2.99327  0.00000  0.01347
       7     C     2.99560  2.99560  0.00000  0.00880
       8     H     0.43232  0.43232  0.00000  0.13537
       9     H     0.42251  0.42251  0.00000  0.15499
      10     O     4.30310  4.30310  0.00000 -0.60619
      11     H     0.42140  0.42140  0.00000  0.15719
      12     H     0.43206  0.43206  0.00000  0.13588
      13     C     3.07505  3.07505  0.00000 -0.15009
      14     H     0.42611  0.42611  0.00000  0.14777
      15     H     0.41564  0.41564  0.00000  0.16871
      16     H     0.43132  0.43132  0.00000  0.13737

   Total alpha = 25.00000, Total beta = 25.00000, Total charge = -0.00000
