  ==> Input File <==

--------------------------------------------------------------------------
set {
	reference rhf
	basis cc-pvtz
}

set_num_threads( 4 )
memory 2 gb

molecule MOL {
0 1

H	 1.364746	 0.067629	 1.625988
C	 0.776521	 -0.484975	 0.925167
C	 0.771634	 -1.865075	 0.919320
C	 0.000000	 0.179985	 0.000046
H	 1.368704	 -2.400834	 1.630646
C	 -0.000002	 -2.552036	 -0.000008
N	 0.000000	 1.644631	 0.000076
C	 -0.776520	 -0.484937	 -0.925103
H	 -0.000000	 -3.625035	 -0.000032
C	 -0.771636	 -1.865038	 -0.919311
O	 1.050559	 2.194174	 -0.000073
O	 -1.050559	 2.194174	 -0.000074
H	 -1.364752	 0.067696	 -1.625896
H	 -1.368703	 -2.400767	 -1.630661

	symmetry c1
}
set optking {
	frozen_dihedral = ("
		2 4 7 11
	")
}

ee = optimize('scf')
oeprop('DIPOLE', 'QUADRUPOLE', 'MULLIKEN_CHARGES')
f=open( 'psi4out.xyz', 'w' )
f.write( "14  " )
f.write( str(ee) + "\n" )
f.write( MOL.save_string_xyz() )
f.close()
--------------------------------------------------------------------------

    Molecular point group: c1
  Charge       = 0
  Multiplicity = 1
  Basis Set: CC-PVTZ
  Basis Set:
  @DF-RHF Final Energy:  -434.32486762558653
    Total Energy =                       -434.3248676255863074
    Molecular point group: c1
  Basis Set: CC-PVTZ
  Basis Set:
  Basis Set: CC-PVTZ
  Basis Set:
  @DF-RHF Final Energy:  -434.31865251096559
    Total Energy =                       -434.3186525109656486
  Basis Set: CC-PVTZ
  Basis Set:
  Basis Set: CC-PVTZ
  Basis Set:
  @DF-RHF Final Energy:  -434.32511058359285
    Total Energy =                       -434.3251105835928456
  Basis Set: CC-PVTZ
  Basis Set:
  Basis Set: CC-PVTZ
  Basis Set:
  @DF-RHF Final Energy:  -434.32532905732523
    Total Energy =                       -434.3253290573247796
  Basis Set: CC-PVTZ
  Basis Set:
  Basis Set: CC-PVTZ
  Basis Set:
  @DF-RHF Final Energy:  -434.32533025368065
    Total Energy =                       -434.3253302536803631
  Basis Set: CC-PVTZ
  Basis Set:
  Charge       = 0
  Multiplicity = 1
  Basis Set: CC-PVTZ
  Basis Set:

    Orbital Energies (a.u.)
    -----------------------

    Doubly Occupied:

       1A    -20.595220     2A    -20.595136     3A    -15.847556
       4A    -11.305248     5A    -11.267991     6A    -11.267708
       7A    -11.261983     8A    -11.259717     9A    -11.259344
      10A     -1.642988    11A     -1.425975    12A     -1.206107
      13A     -1.096811    14A     -1.056456    15A     -0.959495
      16A     -0.872131    17A     -0.830155    18A     -0.786953
      19A     -0.740362    20A     -0.736382    21A     -0.715965
      22A     -0.655342    23A     -0.651242    24A     -0.626228
      25A     -0.559531    26A     -0.547954    27A     -0.533300
      28A     -0.497222    29A     -0.488989    30A     -0.457201
      31A     -0.374134    32A     -0.370317

  @DF-RHF Final Energy:  -434.32533075001635

   => Energetics <=

    Nuclear Repulsion Energy =            417.9087818290700511
    One-Electron Energy =               -1419.4859416225715449
    Two-Electron Energy =                 567.2518290434854862
    DFT Exchange-Correlation Energy =       0.0000000000000000
    Empirical Dispersion Energy =           0.0000000000000000
    PCM Polarization Energy =               0.0000000000000000
    EFP Energy =                            0.0000000000000000
    Total Energy =                       -434.3253307500160645
    Molecular point group: c1
  Basis Set: CC-PVTZ
  Basis Set:

  -Total Gradient:
     Atom            X                  Y                   Z
    ------   -----------------  -----------------  -----------------
       1        0.000005422322     0.000006539200     0.000008097251
       2       -0.003634636743    -0.000141475585     0.002896501486
       3       -0.000026019700     0.000033867639     0.000031262508
       4        0.005238791578     0.000196818668    -0.006228584053
       5        0.000003884444     0.000000149227    -0.000004627865
       6       -0.000013891874    -0.000001715852    -0.000030972911
       7       -0.001782582649    -0.000206334592     0.008766912963
       8        0.000052062612     0.000035156138     0.000021709046
       9        0.000000081597    -0.000000449987     0.000003626624
      10        0.000044947906    -0.000019582122     0.000000346612
      11        0.000142547632     0.000091079446    -0.005442181575
      12       -0.000022223818    -0.000005926179    -0.000010319366
      13       -0.000004991407     0.000004947135    -0.000013904492
      14       -0.000003391900     0.000006926866     0.000002133770

  **** Optimization is complete! (in 6 steps) ****
    Final optimized geometry and variables:
    Molecular point group: c1

    Geometry (in Angstrom), charge = 0, multiplicity = 1:

    H            1.389786843036     0.072860081035     1.609399194593
    C            0.789764878036    -0.480504679011     0.916132452925
    C            0.767894016921    -1.861216353931     0.922660563188
    C            0.023411126383     0.179507985925    -0.016169979398
    H            1.351143879965    -2.398305535898     1.644464543968
    C           -0.001938441128    -2.546372057502     0.000943939990
    N           -0.002192982969     1.640987534302     0.010321329005
    C           -0.778145600724    -0.477017010062    -0.921287504741
    H           -0.008557189542    -3.619123701380     0.004362888173
    C           -0.768557660828    -1.857602289724    -0.921348332854
    O            1.042183965527     2.201094857863     0.045351499177
    O           -1.063213456334     2.166732407396    -0.041429646880
    H           -1.386806936011     0.078323848099    -1.604987725111
    H           -1.367461678876    -2.392570406920    -1.631840044202

  Mulliken Charges: (a.u.)
   Center  Symbol    Alpha    Beta     Spin     Total
       1     H     0.40792  0.40792  0.00000  0.18416
       2     C     3.08676  3.08676  0.00000 -0.17353
       3     C     3.06870  3.06870  0.00000 -0.13740
       4     C     2.93748  2.93748  0.00000  0.12504
       5     H     0.41723  0.41723  0.00000  0.16555
       6     C     3.07033  3.07033  0.00000 -0.14067
       7     N     3.27735  3.27735  0.00000  0.44529
       8     C     3.08542  3.08542  0.00000 -0.17083
       9     H     0.41754  0.41754  0.00000  0.16492
      10     C     3.06802  3.06802  0.00000 -0.13604
      11     O     4.16905  4.16905  0.00000 -0.33810
      12     O     4.16887  4.16887  0.00000 -0.33773
      13     H     0.40815  0.40815  0.00000  0.18371
      14     H     0.41719  0.41719  0.00000  0.16562

   Total alpha = 32.00000, Total beta = 32.00000, Total charge = -0.00000
