  ==> Input File <==

--------------------------------------------------------------------------
set {
	reference rhf
	basis 6-31G*
}

set_num_threads( 1 )
memory 2 gb

molecule MOL {
0 1

O	 -2.385144	 0.431799	 -1.076175
C	 -1.921153	 0.064240	 -0.045697
C	 -2.704128	 -0.550292	 1.082863
O	 -0.632575	 0.154573	 0.251549
H	 -2.588152	 0.049516	 1.978255
H	 -3.747148	 -0.609996	 0.810133
H	 -2.319375	 -1.540273	 1.298868
C	 0.160891	 -1.019931	 0.106212
C	 1.589627	 -0.672828	 0.480843
H	 0.089836	 -1.367806	 -0.916050
H	 -0.238459	 -1.792301	 0.749618
C	 2.246377	 0.346236	 -0.452210
H	 2.163194	 -1.597435	 0.473358
H	 1.604769	 -0.303424	 1.502885
C	 3.691736	 0.652107	 -0.061850
H	 2.219579	 -0.032311	 -1.472055
H	 1.666466	 1.263317	 -0.447249
H	 4.134505	 1.377213	 -0.737283
H	 4.305508	 -0.243868	 -0.089969
H	 3.748266	 1.059562	 0.943567

	symmetry c1
}
set optking {
	frozen_dihedral = ("
		16 12 9 8,
		2 4 8 10,
		12 9 8 10
	")
}

ee = energy('scf')
oeprop('DIPOLE', 'QUADRUPOLE', 'MULLIKEN_CHARGES')
f=open( 'psi4out.xyz', 'w' )
f.write( "20  " )
f.write( str(ee) + "\n" )
f.write( MOL.save_string_xyz() )
f.close()
--------------------------------------------------------------------------

    Molecular point group: c1

    Geometry (in Angstrom), charge = 0, multiplicity = 1:

       Center              X                  Y                   Z               Mass
    ------------   -----------------  -----------------  -----------------  -----------------
           O         -2.381848203861     0.505484609553    -1.112857348529    15.994914619560
           C         -1.917857203861     0.137925609553    -0.082379348529    12.000000000000
           C         -2.700832203861    -0.476606390447     1.046180651471    12.000000000000
           O         -0.629279203861     0.228258609553     0.214866651471    15.994914619560
           H         -2.584856203861     0.123201609553     1.941572651471     1.007825032070
           H         -3.743852203861    -0.536310390447     0.773450651471     1.007825032070
           H         -2.316079203861    -1.466587390447     1.262185651471     1.007825032070
           C          0.164186796139    -0.946245390447     0.069529651471    12.000000000000
           C          1.592922796139    -0.599142390447     0.444160651471    12.000000000000
           H          0.093131796139    -1.294120390447    -0.952732348529     1.007825032070
           H         -0.235163203861    -1.718615390447     0.712935651471     1.007825032070
           C          2.249672796139     0.419921609553    -0.488892348529    12.000000000000
           H          2.166489796139    -1.523749390447     0.436675651471     1.007825032070
           H          1.608064796139    -0.229738390447     1.466202651471     1.007825032070
           C          3.695031796139     0.725792609553    -0.098532348529    12.000000000000
           H          2.222874796139     0.041374609553    -1.508737348529     1.007825032070
           H          1.669761796139     1.337002609553    -0.483931348529     1.007825032070
           H          4.137800796139     1.450898609553    -0.773965348529     1.007825032070
           H          4.308803796139    -0.170182390447    -0.126651348529     1.007825032070
           H          3.751561796139     1.133247609553     0.906884651471     1.007825032070

  Charge       = 0
  Multiplicity = 1
  Basis Set: 6-31G*
  Basis Set:

    Orbital Energies (a.u.)
    -----------------------

    Doubly Occupied:

       1A    -20.585779     2A    -20.553596     3A    -11.375631
       4A    -11.297773     5A    -11.234321     6A    -11.230865
       7A    -11.220020     8A    -11.213190     9A     -1.462585
      10A     -1.367285    11A     -1.086789    12A     -1.020867
      13A     -0.992791    14A     -0.886864    15A     -0.811632
      16A     -0.781125    17A     -0.696217    18A     -0.686357
      19A     -0.653800    20A     -0.637266    21A     -0.615065
      22A     -0.589435    23A     -0.579045    24A     -0.566736
      25A     -0.544561    26A     -0.529599    27A     -0.492766
      28A     -0.486929    29A     -0.479389    30A     -0.474396
      31A     -0.451533    32A     -0.436185

  @DF-RHF Final Energy:  -383.92364310462659

   => Energetics <=

    Nuclear Repulsion Energy =            385.2798982312692146
    One-Electron Energy =               -1286.3260212967820735
    Two-Electron Energy =                 517.1224799608867215
    DFT Exchange-Correlation Energy =       0.0000000000000000
    Empirical Dispersion Energy =           0.0000000000000000
    PCM Polarization Energy =               0.0000000000000000
    EFP Energy =                            0.0000000000000000
    Total Energy =                       -383.9236431046260805

  Mulliken Charges: (a.u.)
   Center  Symbol    Alpha    Beta     Spin     Total
       1     O     4.25476  4.25476  0.00000 -0.50951
       2     C     2.62828  2.62828  0.00000  0.74344
       3     C     3.28969  3.28969  0.00000 -0.57938
       4     O     4.31053  4.31053  0.00000 -0.62105
       5     H     0.39885  0.39885  0.00000  0.20230
       6     H     0.39763  0.39763  0.00000  0.20475
       7     H     0.40760  0.40760  0.00000  0.18479
       8     C     3.00500  3.00500  0.00000 -0.01000
       9     C     3.16226  3.16226  0.00000 -0.32453
      10     H     0.41100  0.41100  0.00000  0.17800
      11     H     0.42015  0.42015  0.00000  0.15969
      12     C     3.15522  3.15522  0.00000 -0.31044
      13     H     0.41912  0.41912  0.00000  0.16175
      14     H     0.41271  0.41271  0.00000  0.17459
      15     C     3.24112  3.24112  0.00000 -0.48223
      16     H     0.42160  0.42160  0.00000  0.15680
      17     H     0.40503  0.40503  0.00000  0.18995
      18     H     0.41603  0.41603  0.00000  0.16794
      19     H     0.42277  0.42277  0.00000  0.15447
      20     H     0.42066  0.42066  0.00000  0.15868

   Total alpha = 32.00000, Total beta = 32.00000, Total charge = -0.00000
