                              Psi4 1.0.54 Driver

  ==> Input File <==

--------------------------------------------------------------------------
set {
	reference rhf
	basis cc-pvtz
}

set_num_threads( 4 )
memory 2 gb

molecule MOL {
0 1

H	 2.462485	 -2.216993	 0.000000
O	 2.777472	 -1.330706	 0.000000
C	 1.763288	 -0.447523	 0.000000
C	 2.076676	 0.887099	 -0.213760
C	 0.452787	 -0.824596	 0.201894
H	 3.102083	 1.158615	 -0.368604
C	 1.080019	 1.835734	 -0.224493
H	 0.182558	 -1.846518	 0.369075
C	 -0.521428	 0.153859	 0.184597
H	 1.331622	 2.864762	 -0.390462
C	 -0.243726	 1.481492	 -0.024101
N	 -1.914048	 -0.254710	 0.400188
H	 -1.027745	 2.206753	 -0.029754
O	 -2.126324	 -1.408116	 0.578143
O	 -2.742932	 0.591089	 0.383702

	symmetry c1
}
set optking {
	frozen_dihedral = ("
		4 3 2 1
	")
}

ee,wfn = optimize('scf', return_wfn=True)
oeprop( wfn, 'DIPOLE', 'QUADRUPOLE', 'MULLIKEN_CHARGES')
f=open( 'psi4out.xyz', 'w' )
f.write( "15  " )
f.write( str(ee) + "\n" )
f.write( MOL.save_string_xyz() )
f.close()
--------------------------------------------------------------------------

    Molecular point group: c1
  Charge       = 0
  Multiplicity = 1
  Basis Set: CC-PVTZ
  Basis Set:
  @DF-RHF Final Energy:  -509.21895795051091
    Total Energy =                       -509.2189579505105712
    Molecular point group: c1
  Basis Set: CC-PVTZ
  Basis Set:
  Basis Set: CC-PVTZ
  Basis Set:
  @DF-RHF Final Energy:  -509.21895443863491
    Total Energy =                       -509.2189544386351372
  Basis Set: CC-PVTZ
  Basis Set:
  Basis Set: CC-PVTZ
  Basis Set:
  @DF-RHF Final Energy:  -509.21775479013007
    Total Energy =                       -509.2177547901301295
  Basis Set: CC-PVTZ
  Basis Set:
  Basis Set: CC-PVTZ
  Basis Set:
  @DF-RHF Final Energy:  -509.21895149953684
    Total Energy =                       -509.2189514995368427
  Basis Set: CC-PVTZ
  Basis Set:
  Charge       = 0
  Multiplicity = 1
  Basis Set: CC-PVTZ
  Basis Set:

    Orbital Energies (a.u.)
    -----------------------

    Doubly Occupied:

       1A    -20.607920     2A    -20.595065     3A    -20.594558
       4A    -15.850646     5A    -11.327389     6A    -11.308894
       7A    -11.263109     8A    -11.262789     9A    -11.258638
      10A    -11.256656    11A     -1.644296    12A     -1.440437
      13A     -1.426794    14A     -1.202486    15A     -1.095460
      16A     -1.047893    17A     -0.966774    18A     -0.881063
      19A     -0.832036    20A     -0.795519    21A     -0.755732
      22A     -0.743624    23A     -0.729550    24A     -0.709407
      25A     -0.677246    26A     -0.636221    27A     -0.623256
      28A     -0.595979    29A     -0.560396    30A     -0.546435
      31A     -0.520006    32A     -0.494983    33A     -0.493529
      34A     -0.460361    35A     -0.380174    36A     -0.346519

  @DF-RHF Final Energy:  -509.21896208413079

   => Energetics <=

    Nuclear Repulsion Energy =            504.7236475620252349
    One-Electron Energy =               -1696.0215414639746996
    Two-Electron Energy =                 682.0789318178190115
    DFT Exchange-Correlation Energy =       0.0000000000000000
    Empirical Dispersion Energy =           0.0000000000000000
    PCM Polarization Energy =               0.0000000000000000
    EFP Energy =                            0.0000000000000000
    Total Energy =                       -509.2189620841304531
    Molecular point group: c1
  Basis Set: CC-PVTZ
  Basis Set:

  -Total Gradient:
     Atom            X                  Y                   Z
    ------   -----------------  -----------------  -----------------
       1        0.000016373358    -0.000017720308    -0.001022275130
       2       -0.000099653094    -0.000033558887     0.000936818701
       3        0.000133762707     0.000073439770     0.000830479861
       4       -0.000080927075     0.000002111410    -0.000698493505
       5        0.000010266927    -0.000023501518    -0.000010451476
       6       -0.000005917977    -0.000003993620     0.000009392196
       7        0.000031717549    -0.000046249089    -0.000076898234
       8        0.000004294643    -0.000013281719    -0.000018058862
       9       -0.000040704363     0.000115051869     0.000057740618
      10       -0.000006290190     0.000006944100    -0.000000064444
      11       -0.000058509548    -0.000041481962     0.000031060937
      12       -0.000168597174    -0.000121217589    -0.000086506336
      13       -0.000006995989     0.000008272429     0.000011407050
      14        0.000145314470    -0.000093528248     0.000035670522
      15        0.000125865765     0.000188713362     0.000000178104

  **** Optimization is complete! (in 5 steps) ****
    Final optimized geometry and variables:
    Molecular point group: c1

    Geometry (in Angstrom), charge = 0, multiplicity = 1:

    H            2.454871350561    -2.226233257460    -0.130458059910
    O            2.769919188082    -1.339988555523    -0.133232571078
    C            1.755452390115    -0.456300379088    -0.138972689630
    C            2.068229990807     0.877574136542    -0.357141897029
    C            0.444940077878    -0.833479062034     0.063126191234
    H            3.093217731320     1.148648343110    -0.515354663990
    C            1.071601467820     1.826527212212    -0.366660666447
    H            0.175786560208    -1.854886972393     0.234778581294
    C           -0.529632017887     0.144400330943     0.042652594615
    H            1.322825718415     2.855248999225    -0.535097307466
    C           -0.251932441562     1.472146077317    -0.166215262641
    N           -1.922422037563    -0.264368922868     0.256116379519
    H           -1.036180574406     2.197143355693    -0.173040965363
    O           -2.135612279808    -1.418808353229     0.426077212685
    O           -2.750082431593     0.582795852111     0.246080030581

  Mulliken Charges: (a.u.)
   Center  Symbol    Alpha    Beta     Spin     Total
       1     H     0.38380  0.38380  0.00000  0.23240
       2     O     4.16948  4.16948  0.00000 -0.33896
       3     C     2.84484  2.84484  0.00000  0.31032
       4     C     3.09735  3.09735  0.00000 -0.19470
       5     C     3.13266  3.13266  0.00000 -0.26531
       6     H     0.41299  0.41299  0.00000  0.17403
       7     C     3.05688  3.05688  0.00000 -0.11376
       8     H     0.40674  0.40674  0.00000  0.18652
       9     C     2.98285  2.98285  0.00000  0.03430
      10     H     0.41595  0.41595  0.00000  0.16810
      11     C     3.09498  3.09498  0.00000 -0.18996
      12     N     3.24899  3.24899  0.00000  0.50201
      13     H     0.39947  0.39947  0.00000  0.20106
      14     O     4.17839  4.17839  0.00000 -0.35677
      15     O     4.17463  4.17463  0.00000 -0.34927

   Total alpha = 36.00000, Total beta = 36.00000, Total charge = -0.00000

*** Psi4 exiting successfully. Buy a developer a beer!
