                              Psi4 1.0.54 Driver

  ==> Input File <==

--------------------------------------------------------------------------
set {
	reference rhf
	basis cc-pvtz
}

set_num_threads( 4 )
memory 2 gb

molecule MOL {
0 1

H	 1.897814	 -1.455566	 0.938157
O	 1.393245	 -0.919293	 0.355169
C	 0.845001	 0.169365	 1.052500
C	 0.027642	 1.012027	 0.090274
H	 1.635319	 0.782755	 1.477846
H	 0.227044	 -0.179679	 1.875154
C	 -1.138737	 0.285728	 -0.581921
H	 0.696858	 1.388917	 -0.676285
H	 -0.343917	 1.876067	 0.635796
C	 -1.933983	 -0.631436	 0.343653
H	 -0.763151	 -0.285569	 -1.422081
H	 -1.808359	 1.035291	 -0.992333
H	 -2.789188	 -1.049673	 -0.174718
H	 -1.335629	 -1.461368	 0.700418
H	 -2.305435	 -0.092167	 1.209725

	symmetry c1
}
set optking {
	frozen_dihedral = ("
		8 4 7 11
	")
}

ee,wfn = optimize('scf', return_wfn=True)
oeprop( wfn, 'DIPOLE', 'QUADRUPOLE', 'MULLIKEN_CHARGES')
f=open( 'psi4out.xyz', 'w' )
f.write( "15  " )
f.write( str(ee) + "\n" )
f.write( MOL.save_string_xyz() )
f.close()
--------------------------------------------------------------------------

    Molecular point group: c1
  Charge       = 0
  Multiplicity = 1
  Basis Set: CC-PVTZ
  Basis Set:
  @DF-RHF Final Energy:  -232.23575319411410
    Total Energy =                       -232.2357531941141815
    Molecular point group: c1
  Basis Set: CC-PVTZ
  Basis Set:
  Basis Set: CC-PVTZ
  Basis Set:
  @DF-RHF Final Energy:  -232.23593083646324
    Total Energy =                       -232.2359308364634671
  Basis Set: CC-PVTZ
  Basis Set:
  Basis Set: CC-PVTZ
  Basis Set:
  @DF-RHF Final Energy:  -232.23608609208293
    Total Energy =                       -232.2360860920831556
  Basis Set: CC-PVTZ
  Basis Set:
  Basis Set: CC-PVTZ
  Basis Set:
  @DF-RHF Final Energy:  -232.23609317820180
    Total Energy =                       -232.2360931782018270
  Basis Set: CC-PVTZ
  Basis Set:
  Basis Set: CC-PVTZ
  Basis Set:
  @DF-RHF Final Energy:  -232.23609633773222
    Total Energy =                       -232.2360963377321923
  Basis Set: CC-PVTZ
  Basis Set:
  Charge       = 0
  Multiplicity = 1
  Basis Set: CC-PVTZ
  Basis Set:

    Orbital Energies (a.u.)
    -----------------------

    Doubly Occupied:

       1A    -20.546776     2A    -11.264819     3A    -11.211101
       4A    -11.208044     5A    -11.201814     6A     -1.364377
       7A     -1.064346     8A     -0.971013     9A     -0.871218
      10A     -0.772064    11A     -0.707931    12A     -0.650642
      13A     -0.609578    14A     -0.573848    15A     -0.563922
      16A     -0.532033    17A     -0.514593    18A     -0.475712
      19A     -0.463637    20A     -0.452071    21A     -0.434469

  @DF-RHF Final Energy:  -232.23609670799894

   => Energetics <=

    Nuclear Repulsion Energy =            193.0807383038433329
    One-Electron Energy =                -697.7256565515749571
    Two-Electron Energy =                 272.4088215397327986
    DFT Exchange-Correlation Energy =       0.0000000000000000
    Empirical Dispersion Energy =           0.0000000000000000
    PCM Polarization Energy =               0.0000000000000000
    EFP Energy =                            0.0000000000000000
    Total Energy =                       -232.2360967079988541
    Molecular point group: c1
  Basis Set: CC-PVTZ
  Basis Set:

  -Total Gradient:
     Atom            X                  Y                   Z
    ------   -----------------  -----------------  -----------------
       1        0.000007673331     0.000004377587    -0.000005900572
       2       -0.000006041432     0.000016392644     0.000005296617
       3       -0.000003891010    -0.000054242040     0.000041283847
       4       -0.002793916154     0.005132755687    -0.000821872505
       5       -0.000027659985    -0.000013438498    -0.000025510735
       6       -0.000000615978     0.000017873678    -0.000007559918
       7        0.001248330849    -0.004840340639     0.003185809181
       8        0.002164207204    -0.003535914577     0.000175702876
       9        0.000000192789    -0.000002015234    -0.000003293172
      10        0.000010487638     0.000004071946    -0.000007804833
      11       -0.000603844977     0.003252806079    -0.002557120891
      12        0.000003659172     0.000015027944     0.000007001491
      13        0.000020519813     0.000004303987     0.000022373521
      14       -0.000019723479     0.000017295429    -0.000000717848
      15        0.000000622217    -0.000018953993    -0.000007687057

  **** Optimization is complete! (in 6 steps) ****
    Final optimized geometry and variables:
    Molecular point group: c1

    Geometry (in Angstrom), charge = 0, multiplicity = 1:

    H            2.066718344489    -1.376920533460     0.633125920747
    O            1.536942867232    -0.848071666778     0.065954602053
    C            0.987124468212     0.228418480554     0.781158822518
    C            0.141413669717     1.063866700978    -0.163532339076
    H            1.776827323510     0.850910825918     1.194322003935
    H            0.390411350956    -0.133598493143     1.613472027795
    C           -1.013285646206     0.316896012919    -0.843316256694
    H            0.810447921992     1.439294259564    -0.930620146301
    H           -0.238489513586     1.914856794155     0.394075590548
    C           -1.852814701389    -0.571438800190     0.068199040453
    H           -0.625579659456    -0.258186287738    -1.675501277488
    H           -1.662044548708     1.064342999661    -1.292161760834
    H           -2.702764826934    -0.971907219800    -0.472120291689
    H           -1.281089629965    -1.409593487417     0.445812982682
    H           -2.237979839465    -0.015906981804     0.918062728652

  Mulliken Charges: (a.u.)
   Center  Symbol    Alpha    Beta     Spin     Total
       1     H     0.39539  0.39539  0.00000  0.20922
       2     O     4.20115  4.20115  0.00000 -0.40230
       3     C     2.98135  2.98135  0.00000  0.03730
       4     C     3.09679  3.09679  0.00000 -0.19359
       5     H     0.45959  0.45959  0.00000  0.08082
       6     H     0.46887  0.46887  0.00000  0.06225
       7     C     3.08132  3.08132  0.00000 -0.16264
       8     H     0.44996  0.44996  0.00000  0.10009
       9     H     0.45210  0.45210  0.00000  0.09580
      10     C     3.15889  3.15889  0.00000 -0.31778
      11     H     0.44866  0.44866  0.00000  0.10269
      12     H     0.45276  0.45276  0.00000  0.09448
      13     H     0.44626  0.44626  0.00000  0.10747
      14     H     0.45032  0.45032  0.00000  0.09936
      15     H     0.45658  0.45658  0.00000  0.08683

   Total alpha = 21.00000, Total beta = 21.00000, Total charge =  0.00000

*** Psi4 exiting successfully. Buy a developer a beer!
