  ==> Input File <==

--------------------------------------------------------------------------
set {
	reference rhf
	basis 6-31G*
}

set_num_threads( 4 )
memory 2 gb

molecule MOL {
0 1

O	 -0.388813	 -2.000476	 -1.149351
C	 -1.379341	 -1.624189	 -0.609094
C	 -2.654946	 -2.423953	 -0.542174
O	 -1.481751	 -0.454642	 0.000584
H	 -2.447020	 -3.370713	 -0.058156
H	 -3.431575	 -1.899657	 -0.005144
H	 -2.985003	 -2.637582	 -1.551780
C	 -0.334255	 0.388708	 0.000906
C	 0.891947	 -0.504646	 0.000751
H	 -0.365390	 1.025305	 -0.873475
H	 -0.365484	 1.024911	 0.875569
C	 2.191998	 0.301789	 0.000897
H	 0.855148	 -1.151283	 -0.871571
H	 0.855132	 -1.151660	 0.872805
C	 3.441114	 -0.581407	 0.000108
H	 2.215074	 0.954890	 -0.869742
H	 2.215465	 0.953923	 0.872248
C	 4.739576	 0.224112	 -0.001102
H	 3.419457	 -1.233487	 -0.870178
H	 3.420834	 -1.233096	 0.870717
H	 4.804918	 0.861552	 -0.878265
H	 5.606527	 -0.429058	 -0.001824
H	 4.806469	 0.861674	 0.875853

	symmetry c1
}
set optking {
	frozen_dihedral = ("
		2 4 8 10
	")
}

ee = optimize('scf')
oeprop('DIPOLE', 'QUADRUPOLE', 'MULLIKEN_CHARGES')
f=open( 'psi4out.xyz', 'w' )
f.write( "23  " )
f.write( str(ee) + "\n" )
f.write( MOL.save_string_xyz() )
f.close()
--------------------------------------------------------------------------

    Molecular point group: c1
  Charge       = 0
  Multiplicity = 1
  Basis Set: 6-31G*
  Basis Set:
  @DF-RHF Final Energy:  -422.92171009175621
    Total Energy =                       -422.9217100917564949
    Molecular point group: c1
  Basis Set: 6-31G*
  Basis Set:
  Basis Set: 6-31G*
  Basis Set:
  @DF-RHF Final Energy:  -422.95917223110149
    Total Energy =                       -422.9591722311015474
  Basis Set: 6-31G*
  Basis Set:
  Basis Set: 6-31G*
  Basis Set:
  @DF-RHF Final Energy:  -422.96724380822315
    Total Energy =                       -422.9672438082236567
  Basis Set: 6-31G*
  Basis Set:
  Basis Set: 6-31G*
  Basis Set:
  @DF-RHF Final Energy:  -422.96835579678373
    Total Energy =                       -422.9683557967838397
  Basis Set: 6-31G*
  Basis Set:
  @DF-RHF Final Energy:  -422.97070182300439
    Total Energy =                       -422.9707018230046742
  @DF-RHF Final Energy:  -422.97110680648643
    Total Energy =                       -422.9711068064864321
  @DF-RHF Final Energy:  -422.97116510420278
    Total Energy =                       -422.9711651042030098
  @DF-RHF Final Energy:  -422.97116833271645
    Total Energy =                       -422.9711683327163882
  @DF-RHF Final Energy:  -422.97117548300628
    Total Energy =                       -422.9711754830057089
  @DF-RHF Final Energy:  -422.97117779482011
    Total Energy =                       -422.9711777948202780
  @DF-RHF Final Energy:  -422.97117972568179
    Total Energy =                       -422.9711797256815089
  @DF-RHF Final Energy:  -422.97112670430255
    Total Energy =                       -422.9711267043026055
  @DF-RHF Final Energy:  -422.97118673418629
    Total Energy =                       -422.9711867341859488
  @DF-RHF Final Energy:  -422.97119140188249
    Total Energy =                       -422.9711914018837433
  @DF-RHF Final Energy:  -422.97119458108938
    Total Energy =                       -422.9711945810895486
  @DF-RHF Final Energy:  -422.97121039194974
    Total Energy =                       -422.9712103919492847
  @DF-RHF Final Energy:  -422.97070163934211
    Total Energy =                       -422.9707016393430195
  @DF-RHF Final Energy:  -422.97065555098510
    Total Energy =                       -422.9706555509848158
  @DF-RHF Final Energy:  -422.96939925762985
    Total Energy =                       -422.9693992576300161
  @DF-RHF Final Energy:  -422.97115487903045
    Total Energy =                       -422.9711548790303368
  @DF-RHF Final Energy:  -422.97127118822272
    Total Energy =                       -422.9712711882223175
  @DF-RHF Final Energy:  -422.97133187296879
    Total Energy =                       -422.9713318729679941
  @DF-RHF Final Energy:  -422.97090440787440
    Total Energy =                       -422.9709044078746274
  @DF-RHF Final Energy:  -422.97137867775018
    Total Energy =                       -422.9713786777494988
  @DF-RHF Final Energy:  -422.97158330983865
    Total Energy =                       -422.9715833098385929
  @DF-RHF Final Energy:  -422.95546699152692
    Total Energy =                       -422.9554669915271461
  @DF-RHF Final Energy:  -422.97138842657256
    Total Energy =                       -422.9713884265727302
  @DF-RHF Final Energy:  -422.97184556587797
    Total Energy =                       -422.9718455658783114
  @DF-RHF Final Energy:  -422.97197594320107
    Total Energy =                       -422.9719759432016417
  @DF-RHF Final Energy:  -422.97189935263668
    Total Energy =                       -422.9718993526371378
  @DF-RHF Final Energy:  -422.97205857772752
    Total Energy =                       -422.9720585777274664
  @DF-RHF Final Energy:  -422.97208002350084
    Total Energy =                       -422.9720800235006664
  @DF-RHF Final Energy:  -422.97209240347422
    Total Energy =                       -422.9720924034750169
  @DF-RHF Final Energy:  -422.97209682744148
    Total Energy =                       -422.9720968274408506
  @DF-RHF Final Energy:  -422.97210120295523
    Total Energy =                       -422.9721012029555141
  @DF-RHF Final Energy:  -422.97210186559300
    Total Energy =                       -422.9721018655939133
  Basis Set: 6-31G*
  Basis Set:
  @DF-RHF Final Energy:  -422.97210087080424
    Total Energy =                       -422.9721008708038426
  Basis Set: 6-31G*
  Basis Set:
  Basis Set: 6-31G*
  Basis Set:
  @DF-RHF Final Energy:  -422.97184472535588
    Total Energy =                       -422.9718447253560498
  Basis Set: 6-31G*
  Basis Set:
  Basis Set: 6-31G*
  Basis Set:
  @DF-RHF Final Energy:  -422.97210216310583
    Total Energy =                       -422.9721021631060012
  Basis Set: 6-31G*
  Basis Set:
  Charge       = 0
  Multiplicity = 1
  Basis Set: 6-31G*
  Basis Set:

    Orbital Energies (a.u.)
    -----------------------

    Doubly Occupied:

       1A    -20.599032     2A    -20.541414     3A    -11.374732
       4A    -11.286490     5A    -11.230815     6A    -11.221761
       7A    -11.218744     8A    -11.218232     9A    -11.211028
      10A     -1.462091    11A     -1.361397    12A     -1.091404
      13A     -1.040720    14A     -1.001313    15A     -0.932236
      16A     -0.857010    17A     -0.799042    18A     -0.751016
      19A     -0.694608    20A     -0.676205    21A     -0.665566
      22A     -0.645625    23A     -0.606605    24A     -0.589149
      25A     -0.580912    26A     -0.567137    27A     -0.554416
      28A     -0.537993    29A     -0.522041    30A     -0.513249
      31A     -0.491725    32A     -0.475953    33A     -0.469323
      34A     -0.462157    35A     -0.441568    36A     -0.428371

  @DF-RHF Final Energy:  -422.97210214559055

   => Energetics <=

    Nuclear Repulsion Energy =            457.9834232178390607
    One-Electron Energy =               -1483.6688948556588912
    Two-Electron Energy =                 602.7133694922290488
    DFT Exchange-Correlation Energy =       0.0000000000000000
    Empirical Dispersion Energy =           0.0000000000000000
    PCM Polarization Energy =               0.0000000000000000
    EFP Energy =                            0.0000000000000000
    Total Energy =                       -422.9721021455907248
    Molecular point group: c1
  Basis Set: 6-31G*
  Basis Set:

  -Total Gradient:
     Atom            X                  Y                   Z
    ------   -----------------  -----------------  -----------------
       1       -0.000007328717     0.000019419801     0.000040975607
       2        0.002109539585    -0.002973527412     0.004509296903
       3        0.000010748760     0.000006974059    -0.000002079429
       4       -0.003880257265     0.005375268335    -0.006313366991
       5        0.000003996846     0.000005294955    -0.000004486046
       6        0.000002095048    -0.000000409483    -0.000002289059
       7        0.000003420234    -0.000010098874    -0.000004798852
       8        0.004037265536    -0.006268486584    -0.001925589583
       9       -0.000063031270    -0.000077187323    -0.000233858670
      10       -0.002316423306     0.003978168806     0.003914328232
      11        0.000089682762    -0.000079114230     0.000014552725
      12        0.000019248246     0.000033904117    -0.000085090410
      13       -0.000063077455    -0.000124146471     0.000044625510
      14        0.000055945026     0.000124906664     0.000076860237
      15        0.000013799381    -0.000007285817    -0.000004694097
      16        0.000002795433     0.000007598679    -0.000004187123
      17       -0.000016501586    -0.000002983814    -0.000008340769
      18       -0.000005140001    -0.000004781529    -0.000005002271
      19        0.000011185913    -0.000002716773    -0.000004167242
      20        0.000000916333    -0.000003057929    -0.000002135021
      21        0.000001992147     0.000003156546    -0.000004633964
      22       -0.000008547560    -0.000001504343     0.000000007154
      23       -0.000002324077     0.000000608620     0.000004073160

  **** Optimization is complete! (in 40 steps) ****
    Final optimized geometry and variables:
    Molecular point group: c1

    Geometry (in Angstrom), charge = 0, multiplicity = 1:

    O           -1.452404966641    -1.323592742507    -1.298966297212
    C           -2.158556819128    -0.901577055067    -0.441547659724
    C           -3.450960935897    -1.545381117329    -0.012048420294
    O           -1.938084841876     0.206803348593     0.247944643531
    H           -3.391187884924    -1.822067173843     1.034368846154
    H           -4.265946828554    -0.839022996456    -0.118101753685
    H           -3.637363507073    -2.420956433730    -0.615879251751
    C           -0.709567469096     0.936374259496     0.195952442034
    C            0.581130673848     0.130955254684     0.130418233299
    H           -0.788799415117     1.667186586898    -0.600149578634
    H           -0.728332887644     1.494838430393     1.122623147655
    C            1.788912892654     1.042149338115     0.370583806201
    H            0.673478757023    -0.366387353009    -0.822862715818
    H            0.550952905478    -0.642591747125     0.894043614490
    C            3.119717540203     0.291607580787     0.292165015662
    H            1.790301148185     1.845652699541    -0.364552973559
    H            1.704232712372     1.519680458338     1.345413672709
    C            4.328040548482     1.196164893108     0.530338401954
    H            3.207878938030    -0.181095542281    -0.683000214907
    H            3.121243089974    -0.513744796741     1.023245182990
    H            4.373201954279     1.992738901925    -0.206955441037
    H            5.255642429239     0.635837762052     0.468387341861
    H            4.285615110206     1.657845801309     1.512862394188

  Mulliken Charges: (a.u.)
   Center  Symbol    Alpha    Beta     Spin     Total
       1     O     4.28350  4.28350  0.00000 -0.56700
       2     C     2.61781  2.61781  0.00000  0.76438
       3     C     3.28109  3.28109  0.00000 -0.56218
       4     O     4.31871  4.31871  0.00000 -0.63742
       5     H     0.40206  0.40206  0.00000  0.19587
       6     H     0.40050  0.40050  0.00000  0.19900
       7     H     0.39795  0.39795  0.00000  0.20410
       8     C     2.98512  2.98512  0.00000  0.02977
       9     C     3.17931  3.17931  0.00000 -0.35862
      10     H     0.41386  0.41386  0.00000  0.17227
      11     H     0.41205  0.41205  0.00000  0.17590
      12     C     3.16081  3.16081  0.00000 -0.32163
      13     H     0.39073  0.39073  0.00000  0.21854
      14     H     0.41856  0.41856  0.00000  0.16287
      15     C     3.15103  3.15103  0.00000 -0.30207
      16     H     0.42179  0.42179  0.00000  0.15641
      17     H     0.42359  0.42359  0.00000  0.15282
      18     C     3.23984  3.23984  0.00000 -0.47968
      19     H     0.41907  0.41907  0.00000  0.16185
      20     H     0.42151  0.42151  0.00000  0.15698
      21     H     0.42125  0.42125  0.00000  0.15750
      22     H     0.41797  0.41797  0.00000  0.16407
      23     H     0.42186  0.42186  0.00000  0.15627

   Total alpha = 36.00000, Total beta = 36.00000, Total charge =  0.00000
