  ==> Input File <==

--------------------------------------------------------------------------
set {
	reference rhf
	basis 6-31G*
}

set_num_threads( 4 )
memory 2 gb

molecule MOL {
0 1

H	 -0.071480	 -3.676396	 0.647733
O	 0.261135	 -2.822438	 0.389060
C	 -0.756057	 -1.961718	 0.399494
C	 -0.318135	 -0.576402	 0.000164
O	 -1.858972	 -2.289763	 0.694388
C	 -1.454360	 0.441875	 -0.000474
H	 0.477032	 -0.279541	 0.678828
H	 0.143562	 -0.652568	 -0.980672
C	 -2.826123	 -0.230780	 0.000056
H	 -1.357605	 1.085198	 -0.868380
H	 -1.357504	 1.086451	 0.866496
H	 -2.959731	 -0.858053	 -0.876869
H	 -3.619374	 0.509403	 -0.000080
H	 -2.959371	 -0.857318	 0.877556

	symmetry c1
}
set optking {
	frozen_dihedral = ("
		7 4 6 10
	")
}

ee = optimize('scf')
oeprop('DIPOLE', 'QUADRUPOLE', 'MULLIKEN_CHARGES')
f=open( 'psi4out.xyz', 'w' )
f.write( "14  " )
f.write( str(ee) + "\n" )
f.write( MOL.save_string_xyz() )
f.close()
--------------------------------------------------------------------------

    Molecular point group: c1
  Charge       = 0
  Multiplicity = 1
  Basis Set: 6-31G*
  Basis Set:
  @DF-RHF Final Energy:  -305.84644409840689
    Total Energy =                       -305.8464440984069483
    Molecular point group: c1
  Basis Set: 6-31G*
  Basis Set:
  Basis Set: 6-31G*
  Basis Set:
  @DF-RHF Final Energy:  -305.86479789028579
    Total Energy =                       -305.8647978902857290
  Basis Set: 6-31G*
  Basis Set:
  Basis Set: 6-31G*
  Basis Set:
  @DF-RHF Final Energy:  -305.86802329963461
    Total Energy =                       -305.8680232996344444
  Basis Set: 6-31G*
  Basis Set:
  Basis Set: 6-31G*
  Basis Set:
  @DF-RHF Final Energy:  -305.86358003725366
    Total Energy =                       -305.8635800372536551
  Basis Set: 6-31G*
  Basis Set:
  @DF-RHF Final Energy:  -305.86967053143502
    Total Energy =                       -305.8696705314348492
  @DF-RHF Final Energy:  -305.87013471511796
    Total Energy =                       -305.8701347151179561
  @DF-RHF Final Energy:  -305.87085146385380
    Total Energy =                       -305.8708514638534552
  @DF-RHF Final Energy:  -305.87140852615323
    Total Energy =                       -305.8714085261530613
  @DF-RHF Final Energy:  -305.87185461334764
    Total Energy =                       -305.8718546133478071
  @DF-RHF Final Energy:  -305.87209962694999
    Total Energy =                       -305.8720996269499892
  @DF-RHF Final Energy:  -305.87221565371931
    Total Energy =                       -305.8722156537193655
  @DF-RHF Final Energy:  -305.87234171935540
    Total Energy =                       -305.8723417193552905
  @DF-RHF Final Energy:  -305.87247935283784
    Total Energy =                       -305.8724793528378427
  @DF-RHF Final Energy:  -305.87244565583785
    Total Energy =                       -305.8724456558376232
  @DF-RHF Final Energy:  -305.87227074661956
    Total Energy =                       -305.8722707466194493
  Basis Set: 6-31G*
  Basis Set:
  @DF-RHF Final Energy:  -305.87264473468201
    Total Energy =                       -305.8726447346818986
  Basis Set: 6-31G*
  Basis Set:
  Basis Set: 6-31G*
  Basis Set:
  @DF-RHF Final Energy:  -305.87267056001571
    Total Energy =                       -305.8726705600158198
  Basis Set: 6-31G*
  Basis Set:
  Basis Set: 6-31G*
  Basis Set:
  @DF-RHF Final Energy:  -305.87267535144946
    Total Energy =                       -305.8726753514492884
  Basis Set: 6-31G*
  Basis Set:
  Charge       = 0
  Multiplicity = 1
  Basis Set: 6-31G*
  Basis Set:

    Orbital Energies (a.u.)
    -----------------------

    Doubly Occupied:

       1A    -20.614277     2A    -20.548431     3A    -11.380161
       4A    -11.239513     5A    -11.236448     6A    -11.216579
       7A     -1.474526     8A     -1.364165     9A     -1.080948
      10A     -0.976483    11A     -0.864159    12A     -0.794768
      13A     -0.702181    14A     -0.679298    15A     -0.650889
      16A     -0.631505    17A     -0.585862    18A     -0.570271
      19A     -0.561458    20A     -0.505056    21A     -0.497028
      22A     -0.485388    23A     -0.470565    24A     -0.438112

  @DF-RHF Final Energy:  -305.87267556974996

   => Energetics <=

    Nuclear Repulsion Energy =            246.9909199504958224
    One-Electron Energy =                -906.5910494870256571
    Two-Electron Energy =                 353.7274539667799900
    DFT Exchange-Correlation Energy =       0.0000000000000000
    Empirical Dispersion Energy =           0.0000000000000000
    PCM Polarization Energy =               0.0000000000000000
    EFP Energy =                            0.0000000000000000
    Total Energy =                       -305.8726755697498447
    Molecular point group: c1
  Basis Set: 6-31G*
  Basis Set:

  -Total Gradient:
     Atom            X                  Y                   Z
    ------   -----------------  -----------------  -----------------
       1       -0.000008180114     0.000000062025    -0.000000435550
       2        0.000012701053    -0.000036112299    -0.000046251920
       3       -0.000032785854     0.000066080146     0.000084075163
       4        0.002355534084     0.002424230155    -0.004683818881
       5        0.000017496035     0.000011336977    -0.000040378661
       6        0.001848112224     0.003381178568     0.004048298773
       7       -0.002237150505    -0.002561094201     0.003328004084
       8        0.000005732360     0.000005355580     0.000008517644
       9        0.000017147604    -0.000017604519     0.000003319174
      10       -0.001968781546    -0.003292955275    -0.002704764200
      11       -0.000007891040     0.000001314083    -0.000001596015
      12       -0.000001058458     0.000008662802     0.000007185281
      13       -0.000001721710     0.000009024746    -0.000000888389
      14        0.000000845865     0.000000521213    -0.000001266505

  **** Optimization is complete! (in 19 steps) ****
    Final optimized geometry and variables:
    Molecular point group: c1

    Geometry (in Angstrom), charge = 0, multiplicity = 1:

    H            0.271613677033    -2.366349266017    -0.281509454652
    O            0.492225227718    -1.523211162401    -0.666090981267
    C            0.531323709770    -0.621242086668     0.312656909925
    C            0.848785361222     0.769272504785    -0.180263565275
    O            0.323281295216    -0.911963024879     1.446617517513
    C           -0.413659918201     1.661070717459    -0.345038662640
    H            1.492128081165     1.192519861307     0.580502673381
    H            1.392734346891     0.694980338182    -1.111752328377
    C           -1.732228239190     0.907965233734    -0.548758194042
    H           -0.260719403194     2.286271930960    -1.218033064380
    H           -0.505327503032     2.312897311050     0.515116594724
    H           -1.686272711462     0.253236311038    -1.413054083563
    H           -2.539632607789     1.614596299656    -0.710381871958
    H           -1.989203805751     0.308184946721     0.317490167378

  Mulliken Charges: (a.u.)
   Center  Symbol    Alpha    Beta     Spin     Total
       1     H     0.26837  0.26837  0.00000  0.46326
       2     O     4.34667  4.34667  0.00000 -0.69334
       3     C     2.63514  2.63514  0.00000  0.72972
       4     C     3.20218  3.20218  0.00000 -0.40436
       5     O     4.27901  4.27901  0.00000 -0.55801
       6     C     3.15446  3.15446  0.00000 -0.30892
       7     H     0.39635  0.39635  0.00000  0.20730
       8     H     0.39990  0.39990  0.00000  0.20019
       9     C     3.25772  3.25772  0.00000 -0.51545
      10     H     0.41367  0.41367  0.00000  0.17265
      11     H     0.40958  0.40958  0.00000  0.18084
      12     H     0.41323  0.41323  0.00000  0.17355
      13     H     0.41448  0.41448  0.00000  0.17105
      14     H     0.40924  0.40924  0.00000  0.18152

   Total alpha = 24.00000, Total beta = 24.00000, Total charge = -0.00000
