                              Psi4 1.0.54 Driver

  ==> Input File <==

--------------------------------------------------------------------------
set {
	reference rhf
	basis cc-pvtz
}

set_num_threads( 4 )
memory 2 gb

molecule MOL {
0 1

H	 -3.268214	 -0.875720	 0.463107
C	 -2.806015	 0.000007	 0.024886
N	 -1.391133	 0.000016	 0.301321
H	 -3.029448	 0.000055	 -1.045738
H	 -3.268126	 0.875758	 0.463150
C	 -0.685980	 -1.025011	 -0.437363
C	 -1.106918	 -0.097762	 1.716663
H	 -1.036182	 -2.025061	 -0.165135
H	 -0.876447	 -0.888605	 -1.495285
C	 0.807255	 -0.938450	 -0.182860
H	 -1.604678	 0.715568	 2.231267
H	 -1.485811	 -1.034604	 2.135728
C	 0.386317	 -0.011201	 1.971165
H	 1.305016	 -1.751781	 -0.697464
H	 1.186148	 -0.001608	 -0.601925
N	 1.091470	 -1.036228	 1.232482
H	 0.576785	 -0.147607	 3.029088
H	 0.736519	 0.988849	 1.698938
C	 2.506352	 -1.036219	 1.508917
H	 2.985073	 -1.854843	 0.986188
H	 2.675591	 -1.173254	 2.569644
H	 2.998253	 -0.107739	 1.205410

	symmetry c1
}
set optking {
	frozen_dihedral = ("
		6 3 2 4
	")
}

ee,wfn = optimize('scf', return_wfn=True)
oeprop( wfn, 'DIPOLE', 'QUADRUPOLE', 'MULLIKEN_CHARGES')
f=open( 'psi4out.xyz', 'w' )
f.write( "22  " )
f.write( str(ee) + "\n" )
f.write( MOL.save_string_xyz() )
f.close()
--------------------------------------------------------------------------

    Molecular point group: c1
  Charge       = 0
  Multiplicity = 1
  Basis Set: CC-PVTZ
  Basis Set:
  @DF-RHF Final Energy:  -344.34977041030351
    Total Energy =                       -344.3497704103036767
    Molecular point group: c1
  Basis Set: CC-PVTZ
  Basis Set:
  Basis Set: CC-PVTZ
  Basis Set:
  @DF-RHF Final Energy:  -344.35041778625020
    Total Energy =                       -344.3504177862504321
  Basis Set: CC-PVTZ
  Basis Set:
  Basis Set: CC-PVTZ
  Basis Set:
  @DF-RHF Final Energy:  -344.35050055007781
    Total Energy =                       -344.3505005500777543
  Basis Set: CC-PVTZ
  Basis Set:
  Charge       = 0
  Multiplicity = 1
  Basis Set: CC-PVTZ
  Basis Set:

    Orbital Energies (a.u.)
    -----------------------

    Doubly Occupied:

       1A    -15.537700     2A    -15.537130     3A    -11.237675
       4A    -11.237584     5A    -11.237012     6A    -11.236936
       7A    -11.234354     8A    -11.234322     9A     -1.257501
      10A     -1.206502    11A     -1.026132    12A     -0.993062
      13A     -0.912270    14A     -0.868447    15A     -0.836326
      16A     -0.755199    17A     -0.667018    18A     -0.638490
      19A     -0.632694    20A     -0.627525    21A     -0.623071
      22A     -0.582379    23A     -0.550420    24A     -0.546629
      25A     -0.542900    26A     -0.517472    27A     -0.496991
      28A     -0.491173    29A     -0.466943    30A     -0.457560
      31A     -0.352459    32A     -0.346872

  @DF-RHF Final Energy:  -344.35050165882336

   => Energetics <=

    Nuclear Repulsion Energy =            421.9930588323807683
    One-Electron Energy =               -1302.9096274611340505
    Two-Electron Energy =                 536.5660669699299206
    DFT Exchange-Correlation Energy =       0.0000000000000000
    Empirical Dispersion Energy =           0.0000000000000000
    PCM Polarization Energy =               0.0000000000000000
    EFP Energy =                            0.0000000000000000
    Total Energy =                       -344.3505016588234184
    Molecular point group: c1
  Basis Set: CC-PVTZ
  Basis Set:

  -Total Gradient:
     Atom            X                  Y                   Z
    ------   -----------------  -----------------  -----------------
       1        0.000035312047    -0.000004023620     0.000004835858
       2        0.000015556840     0.002415210362    -0.000311363489
       3       -0.000260025810    -0.001508835581     0.001328771522
       4        0.000027241988    -0.001660992299     0.000010204930
       5        0.000011828301     0.000009219760     0.000005452262
       6        0.000253083043     0.000798668880    -0.001010345500
       7       -0.000084040781    -0.000047195107     0.000133368203
       8        0.000023145061     0.000032599758     0.000007522494
       9        0.000011358610    -0.000010569879    -0.000009378599
      10       -0.000009009317    -0.000059040425    -0.000012653714
      11       -0.000013794142     0.000011705028    -0.000001125520
      12       -0.000005354959     0.000005536871    -0.000025174588
      13       -0.000018065128     0.000033432584    -0.000126467773
      14        0.000030112146    -0.000006178943     0.000003903352
      15       -0.000024283142    -0.000008650752     0.000007712517
      16        0.000014937546    -0.000014974395     0.000008216640
      17       -0.000045517403    -0.000001003521    -0.000022306305
      18        0.000022517881     0.000023047473     0.000011103533
      19        0.000012581120    -0.000010581515    -0.000009332893
      20        0.000003571135     0.000001784775     0.000003644050
      21        0.000000864829    -0.000000133217     0.000002869785
      22       -0.000002019868     0.000000973763     0.000000543235

  **** Optimization is complete! (in 4 steps) ****
    Final optimized geometry and variables:
    Molecular point group: c1

    Geometry (in Angstrom), charge = 0, multiplicity = 1:

    H           -3.172409868714    -0.342948563720    -0.360595217423
    C           -2.649054615906     0.529042437362    -0.764035547815
    N           -1.236832294364     0.512499770272    -0.476489149577
    H           -2.807446918716     0.535831305155    -1.834871796007
    H           -3.105561330129     1.417092792169    -0.344734496205
    C           -0.527030653843    -0.512902019770    -1.209034124048
    C           -0.963207175369     0.427749877052     0.940552434916
    H           -0.879062512186    -1.513839185085    -0.941484273308
    H           -0.706690842986    -0.375257535612    -2.268531664317
    C            0.963996795701    -0.427173852245    -0.940228447223
    H           -1.463635171456     1.246770850614     1.444058642753
    H           -1.347888655355    -0.504334443645     1.365142574704
    C            0.528307821826     0.512604844974     1.205264666361
    H            1.465955951081    -1.242902660673    -1.447078912064
    H            1.347443188933     0.507787847697    -1.359582085516
    N            1.235584062783    -0.518985241161     0.477942706118
    H            0.710720051738     0.382267509542     2.265419084352
    H            0.883349478247     1.510067283481     0.929461479125
    C            2.647894967639    -0.523406008332     0.766520168416
    H            3.127707861701    -1.346808652204     0.252263932232
    H            2.807549019698    -0.655426409297     1.829424392510
    H            3.146511953810     0.401379051604     0.462352784579

  Mulliken Charges: (a.u.)
   Center  Symbol    Alpha    Beta     Spin     Total
       1     H     0.47018  0.47018  0.00000  0.05965
       2     C     3.09817  3.09817  0.00000 -0.19634
       3     N     3.61283  3.61283  0.00000 -0.22567
       4     H     0.45273  0.45273  0.00000  0.09455
       5     H     0.45117  0.45117  0.00000  0.09765
       6     C     3.03462  3.03462  0.00000 -0.06924
       7     C     3.03558  3.03558  0.00000 -0.07115
       8     H     0.46884  0.46884  0.00000  0.06232
       9     H     0.45377  0.45377  0.00000  0.09247
      10     C     3.03572  3.03572  0.00000 -0.07143
      11     H     0.45401  0.45401  0.00000  0.09198
      12     H     0.46773  0.46773  0.00000  0.06454
      13     C     3.03539  3.03539  0.00000 -0.07078
      14     H     0.45383  0.45383  0.00000  0.09234
      15     H     0.46814  0.46814  0.00000  0.06372
      16     N     3.61311  3.61311  0.00000 -0.22622
      17     H     0.45381  0.45381  0.00000  0.09239
      18     H     0.46806  0.46806  0.00000  0.06389
      19     C     3.09839  3.09839  0.00000 -0.19679
      20     H     0.45193  0.45193  0.00000  0.09613
      21     H     0.45193  0.45193  0.00000  0.09614
      22     H     0.47008  0.47008  0.00000  0.05985

   Total alpha = 32.00000, Total beta = 32.00000, Total charge =  0.00000

*** Psi4 exiting successfully. Buy a developer a beer!
