  ==> Input File <==

--------------------------------------------------------------------------
set {
	reference rhf
	basis cc-pvtz
}

set_num_threads( 4 )
memory 2 gb

molecule MOL {
0 1

H	 -0.674318	 -1.390908	 -0.670217
N	 -0.625934	 -0.663929	 -0.000707
C	 -1.723894	 -0.508556	 0.924193
C	 0.468494	 0.129045	 -0.002160
H	 -2.649874	 -0.310653	 0.397521
H	 -1.506850	 0.323806	 1.571619
H	 -1.851565	 -1.398588	 1.528826
C	 1.785715	 -0.615093	 0.000603
O	 0.413285	 1.323206	 0.000532
H	 1.866994	 -1.243310	 -0.878792
H	 2.591506	 0.100263	 0.006422
H	 1.860358	 -1.250360	 0.875522

	symmetry c1
}
set optking {
	frozen_dihedral = ("
		3 2 4 9
	")
}

ee = optimize('scf')
oeprop('DIPOLE', 'QUADRUPOLE', 'MULLIKEN_CHARGES')
f=open( 'psi4out.xyz', 'w' )
f.write( "12  " )
f.write( str(ee) + "\n" )
f.write( MOL.save_string_xyz() )
f.close()
--------------------------------------------------------------------------

    Molecular point group: c1
  Charge       = 0
  Multiplicity = 1
  Basis Set: CC-PVTZ
  Basis Set:
  @DF-RHF Final Energy:  -247.07779607806305
    Total Energy =                       -247.0777960780631020
    Molecular point group: c1
  Basis Set: CC-PVTZ
  Basis Set:
  Basis Set: CC-PVTZ
  Basis Set:
  @DF-RHF Final Energy:  -247.08256690263025
    Total Energy =                       -247.0825669026303331
  Basis Set: CC-PVTZ
  Basis Set:
  Basis Set: CC-PVTZ
  Basis Set:
  @DF-RHF Final Energy:  -247.08703727039747
    Total Energy =                       -247.0870372703973885
  Basis Set: CC-PVTZ
  Basis Set:
  Basis Set: CC-PVTZ
  Basis Set:
  @DF-RHF Final Energy:  -247.09095497917414
    Total Energy =                       -247.0909549791740574
  Basis Set: CC-PVTZ
  Basis Set:
  @DF-RHF Final Energy:  -247.09146001052230
    Total Energy =                       -247.0914600105223826
  @DF-RHF Final Energy:  -247.09173947048637
    Total Energy =                       -247.0917394704862318
  Basis Set: CC-PVTZ
  Basis Set:
  @DF-RHF Final Energy:  -247.09191696476009
    Total Energy =                       -247.0919169647602303
  Basis Set: CC-PVTZ
  Basis Set:
  Basis Set: CC-PVTZ
  Basis Set:
  @DF-RHF Final Energy:  -247.09202798878999
    Total Energy =                       -247.0920279887900506
  Basis Set: CC-PVTZ
  Basis Set:
  Basis Set: CC-PVTZ
  Basis Set:
  @DF-RHF Final Energy:  -247.09205175710804
    Total Energy =                       -247.0920517571079245
  Basis Set: CC-PVTZ
  Basis Set:
  Charge       = 0
  Multiplicity = 1
  Basis Set: CC-PVTZ
  Basis Set:

    Orbital Energies (a.u.)
    -----------------------

    Doubly Occupied:

       1A    -20.520520     2A    -15.571054     3A    -11.340746
       4A    -11.255953     5A    -11.232443     6A     -1.398577
       7A     -1.229075     8A     -1.016722     9A     -0.931241
      10A     -0.776060    11A     -0.692322    12A     -0.652795
      13A     -0.634563    14A     -0.593953    15A     -0.586019
      16A     -0.557682    17A     -0.547104    18A     -0.510011
      19A     -0.426826    20A     -0.396435

  @DF-RHF Final Energy:  -247.09205242902470

   => Energetics <=

    Nuclear Repulsion Energy =            181.3270379105301231
    One-Electron Energy =                -695.0979823459504132
    Two-Electron Energy =                 266.6788920063956994
    DFT Exchange-Correlation Energy =       0.0000000000000000
    Empirical Dispersion Energy =           0.0000000000000000
    PCM Polarization Energy =               0.0000000000000000
    EFP Energy =                            0.0000000000000000
    Total Energy =                       -247.0920524290245339
    Molecular point group: c1
  Basis Set: CC-PVTZ
  Basis Set:

  -Total Gradient:
     Atom            X                  Y                   Z
    ------   -----------------  -----------------  -----------------
       1       -0.000003255572     0.000014453786    -0.000063827534
       2       -0.004096606017     0.013406839121    -0.011286374932
       3        0.003107163329    -0.007800898065     0.004097920508
       4       -0.000018188830    -0.009368802356     0.018564133651
       5       -0.000011094511     0.000002108153    -0.000001587781
       6       -0.000026566748     0.000003071345     0.000025848825
       7        0.000005120282     0.000006907273    -0.000013212893
       8        0.000004954289     0.000027289615     0.000001295962
       9        0.001055774240     0.003750370191    -0.011322955072
      10        0.000008763063    -0.000024703560    -0.000002412227
      11       -0.000029776037     0.000001321111    -0.000000897296
      12        0.000003712510    -0.000017956612     0.000002068787

  **** Optimization is complete! (in 10 steps) ****
    Final optimized geometry and variables:
    Molecular point group: c1

    Geometry (in Angstrom), charge = 0, multiplicity = 1:

    H           -0.588247775624    -1.384770738195    -0.722241933652
    N           -0.738986440914    -0.452239063448    -0.409935528389
    C           -1.837180967587    -0.387911370837     0.544397206405
    C            0.443692204260     0.183894101800    -0.090695729780
    H           -2.730074483783    -0.787339621501     0.084344979711
    H           -2.019523750249     0.641004234086     0.810148230360
    H           -1.628083272777    -0.950032765165     1.449619979118
    C            1.699626270627    -0.606916603470    -0.374733678268
    O            0.477490750827     1.313083320514     0.280581729849
    H            1.652823440954    -1.059244620295    -1.358624012163
    H            2.556031698287     0.044695881592    -0.314145204427
    H            1.801559021609    -1.404678901854     0.353394067505

  Mulliken Charges: (a.u.)
   Center  Symbol    Alpha    Beta     Spin     Total
       1     H     0.43010  0.43010  0.00000  0.13981
       2     N     3.61522  3.61522  0.00000 -0.23044
       3     C     3.08646  3.08646  0.00000 -0.17292
       4     C     2.83424  2.83424  0.00000  0.33153
       5     H     0.45064  0.45064  0.00000  0.09873
       6     H     0.43574  0.43574  0.00000  0.12853
       7     H     0.46372  0.46372  0.00000  0.07257
       8     C     3.15364  3.15364  0.00000 -0.30727
       9     O     4.19566  4.19566  0.00000 -0.39132
      10     H     0.45067  0.45067  0.00000  0.09865
      11     H     0.43457  0.43457  0.00000  0.13085
      12     H     0.44936  0.44936  0.00000  0.10129

   Total alpha = 20.00000, Total beta = 20.00000, Total charge = -0.00000
