  ==> Input File <==

--------------------------------------------------------------------------
set {
	reference rhf
	basis 6-31G*
}

set_num_threads( 1 )
memory 2 gb

molecule MOL {
0 1

H	 1.136379	 0.211822	 1.465562
C	 1.135357	 0.094285	 0.374742
C	 0.065331	 0.871482	 -0.349150
O	 1.941633	 -0.601957	 -0.151457
C	 0.473137	 2.329130	 -0.606902
H	 -0.850173	 0.812098	 0.228119
H	 -0.105994	 0.372921	 -1.302169
C	 0.603216	 3.155763	 0.673012
H	 -0.267059	 2.783689	 -1.257668
H	 1.412568	 2.350015	 -1.155241
H	 -0.335008	 3.176827	 1.218740
H	 0.879465	 4.179910	 0.444698
H	 1.359765	 2.751013	 1.338745

	symmetry c1
}
set optking {
	frozen_dihedral = ("
		6 3 5 9
	")
}

ee = energy('scf')
oeprop('DIPOLE', 'QUADRUPOLE', 'MULLIKEN_CHARGES')
f=open( 'psi4out.xyz', 'w' )
f.write( "13  " )
f.write( str(ee) + "\n" )
f.write( MOL.save_string_xyz() )
f.close()
--------------------------------------------------------------------------

    Molecular point group: c1

    Geometry (in Angstrom), charge = 0, multiplicity = 1:

       Center              X                  Y                   Z               Mass
    ------------   -----------------  -----------------  -----------------  -----------------
           H          0.281007237998    -0.961520704334     1.470192427544     1.007825032070
           C          0.279985237998    -1.079057704334     0.379372427544    12.000000000000
           C         -0.790040762002    -0.301860704334    -0.344519572456    12.000000000000
           O          1.086261237998    -1.775299704334    -0.146826572456    15.994914619560
           C         -0.382234762002     1.155787295666    -0.602271572456    12.000000000000
           H         -1.705544762002    -0.361244704334     0.232749427544     1.007825032070
           H         -0.961365762002    -0.800421704334    -1.297538572456     1.007825032070
           C         -0.252155762002     1.982420295666     0.677642427544    12.000000000000
           H         -1.122430762002     1.610346295666    -1.253037572456     1.007825032070
           H          0.557196237998     1.176672295666    -1.150610572456     1.007825032070
           H         -1.190379762002     2.003484295666     1.223370427544     1.007825032070
           H          0.024093237998     3.006567295666     0.449328427544     1.007825032070
           H          0.504393237998     1.577670295666     1.343375427544     1.007825032070

  Charge       = 0
  Multiplicity = 1
  Basis Set: 6-31G*
  Basis Set:

    Orbital Energies (a.u.)
    -----------------------

    Doubly Occupied:

       1A    -20.563524     2A    -11.326525     3A    -11.238780
       4A    -11.235094     5A    -11.224550     6A     -1.403171
       7A     -1.086462     8A     -0.973552     9A     -0.855386
      10A     -0.777469    11A     -0.681608    12A     -0.645949
      13A     -0.609728    14A     -0.600039    15A     -0.567494
      16A     -0.534612    17A     -0.506876    18A     -0.493890
      19A     -0.481179    20A     -0.408517

  @DF-RHF Final Energy:  -230.98259364032248

   => Energetics <=

    Nuclear Repulsion Energy =            173.6609170068135199
    One-Electron Energy =                -656.8584285444288753
    Two-Electron Energy =                 252.2149178972936738
    DFT Exchange-Correlation Energy =       0.0000000000000000
    Empirical Dispersion Energy =           0.0000000000000000
    PCM Polarization Energy =               0.0000000000000000
    EFP Energy =                            0.0000000000000000
    Total Energy =                       -230.9825936403216815

  Mulliken Charges: (a.u.)
   Center  Symbol    Alpha    Beta     Spin     Total
       1     H     0.43109  0.43109  0.00000  0.13782
       2     C     2.83598  2.83598  0.00000  0.32804
       3     C     3.20478  3.20478  0.00000 -0.40956
       4     O     4.23615  4.23615  0.00000 -0.47229
       5     C     3.16212  3.16212  0.00000 -0.32423
       6     H     0.41356  0.41356  0.00000  0.17287
       7     H     0.39983  0.39983  0.00000  0.20035
       8     C     3.24504  3.24504  0.00000 -0.49007
       9     H     0.41189  0.41189  0.00000  0.17623
      10     H     0.40863  0.40863  0.00000  0.18275
      11     H     0.41908  0.41908  0.00000  0.16184
      12     H     0.41315  0.41315  0.00000  0.17370
      13     H     0.41872  0.41872  0.00000  0.16256

   Total alpha = 20.00000, Total beta = 20.00000, Total charge = -0.00000
