  ==> Input File <==

--------------------------------------------------------------------------
set {
	reference rhf
	basis 6-31G*
}

set_num_threads( 1 )
memory 2 gb

molecule MOL {
0 1

O	 0.074228	 1.262779	 -0.000085
C	 0.028650	 0.075053	 -0.000277
C	 -1.233602	 -0.752807	 0.000328
O	 1.109162	 -0.694619	 -0.000298
C	 -2.501530	 0.091881	 0.000126
H	 -1.193807	 -1.406641	 -0.865785
H	 -1.193516	 -1.405779	 0.867015
H	 -2.545121	 0.729328	 -0.874513
H	 -3.377167	 -0.548497	 0.000561
H	 -2.544818	 0.730135	 0.874258
C	 1.505092	 -1.246353	 -1.243044
H	 0.723871	 -1.874873	 -1.645620
H	 2.387799	 -1.831749	 -1.038096
H	 1.731389	 -0.462784	 -1.951761

	symmetry c1
}
set optking {
	frozen_dihedral = ("
		4 2 3 6
	")
}

ee = energy('scf')
oeprop('DIPOLE', 'QUADRUPOLE', 'MULLIKEN_CHARGES')
f=open( 'psi4out.xyz', 'w' )
f.write( "14  " )
f.write( str(ee) + "\n" )
f.write( MOL.save_string_xyz() )
f.close()
--------------------------------------------------------------------------

    Molecular point group: c1

    Geometry (in Angstrom), charge = 0, multiplicity = 1:

       Center              X                  Y                   Z               Mass
    ------------   -----------------  -----------------  -----------------  -----------------
           O          0.228078009920     1.478757208584     0.222404395255    15.994914619560
           C          0.182500009920     0.291031208584     0.222212395255    12.000000000000
           C         -1.079751990080    -0.536828791416     0.222817395255    12.000000000000
           O          1.263012009920    -0.478640791416     0.222191395255    15.994914619560
           C         -2.347679990080     0.307859208584     0.222615395255    12.000000000000
           H         -1.039956990080    -1.190662791416    -0.643295604745     1.007825032070
           H         -1.039665990080    -1.189800791416     1.089504395255     1.007825032070
           H         -2.391270990080     0.945306208584    -0.652023604745     1.007825032070
           H         -3.223316990080    -0.332518791416     0.223050395255     1.007825032070
           H         -2.390967990080     0.946113208584     1.096747395255     1.007825032070
           C          1.658942009920    -1.030374791416    -1.020554604745    12.000000000000
           H          0.877721009920    -1.658894791416    -1.423130604745     1.007825032070
           H          2.541649009920    -1.615770791416    -0.815606604745     1.007825032070
           H          1.885239009920    -0.246805791416    -1.729271604745     1.007825032070

  Charge       = 0
  Multiplicity = 1
  Basis Set: 6-31G*
  Basis Set:

    Orbital Energies (a.u.)
    -----------------------

    Doubly Occupied:

       1A    -20.589191     2A    -20.555932     3A    -11.374503
       4A    -11.297267     5A    -11.240787     6A    -11.218001
       7A     -1.465078     8A     -1.369156     9A     -1.061893
      10A     -0.984537    11A     -0.893849    12A     -0.769979
      13A     -0.699874    14A     -0.681917    15A     -0.676559
      16A     -0.627165    17A     -0.612922    18A     -0.561226
      19A     -0.545782    20A     -0.524108    21A     -0.510462
      22A     -0.486761    23A     -0.459151    24A     -0.436197

  @DF-RHF Final Energy:  -305.84908194309207

   => Energetics <=

    Nuclear Repulsion Energy =            248.0206545503465634
    One-Electron Energy =                -908.4549246841894501
    Two-Electron Energy =                 354.5851881907508414
    DFT Exchange-Correlation Energy =       0.0000000000000000
    Empirical Dispersion Energy =           0.0000000000000000
    PCM Polarization Energy =               0.0000000000000000
    EFP Energy =                            0.0000000000000000
    Total Energy =                       -305.8490819430920737

  Mulliken Charges: (a.u.)
   Center  Symbol    Alpha    Beta     Spin     Total
       1     O     4.25689  4.25689  0.00000 -0.51379
       2     C     2.61764  2.61764  0.00000  0.76471
       3     C     3.21189  3.21189  0.00000 -0.42378
       4     O     4.30759  4.30759  0.00000 -0.61517
       5     C     3.23897  3.23897  0.00000 -0.47794
       6     H     0.40804  0.40804  0.00000  0.18392
       7     H     0.39811  0.39811  0.00000  0.20379
       8     H     0.41102  0.41102  0.00000  0.17796
       9     H     0.41881  0.41881  0.00000  0.16239
      10     H     0.40818  0.40818  0.00000  0.18365
      11     C     3.09410  3.09410  0.00000 -0.18821
      12     H     0.42055  0.42055  0.00000  0.15889
      13     H     0.39979  0.39979  0.00000  0.20043
      14     H     0.40842  0.40842  0.00000  0.18316

   Total alpha = 24.00000, Total beta = 24.00000, Total charge = -0.00000
