                              Psi4 1.0.54 Driver

  ==> Input File <==

--------------------------------------------------------------------------
set {
	reference rhf
	basis cc-pvtz
}

set_num_threads( 4 )
memory 2 gb

molecule MOL {
0 1

H	 -1.088256	 -1.364742	 0.152233
O	 -1.432053	 -0.565244	 -0.200812
C	 -0.727158	 0.534527	 0.310686
C	 0.680222	 0.664433	 -0.252229
H	 -1.306802	 1.408001	 0.044211
H	 -0.690821	 0.490158	 1.397609
C	 1.749420	 -0.024590	 0.590451
H	 0.689361	 0.259385	 -1.258750
H	 0.911734	 1.722872	 -0.334440
H	 1.584669	 -1.095091	 0.645319
H	 2.734663	 0.125412	 0.165776
H	 1.764538	 0.366262	 1.603349

	symmetry c1
}
set optking {
	frozen_dihedral = ("
		8 4 3 2
	")
}

ee,wfn = optimize('scf', return_wfn=True)
oeprop( wfn, 'DIPOLE', 'QUADRUPOLE', 'MULLIKEN_CHARGES')
f=open( 'psi4out.xyz', 'w' )
f.write( "12  " )
f.write( str(ee) + "\n" )
f.write( MOL.save_string_xyz() )
f.close()
--------------------------------------------------------------------------

    Molecular point group: c1
  Charge       = 0
  Multiplicity = 1
  Basis Set: CC-PVTZ
  Basis Set:
  @DF-RHF Final Energy:  -193.18748203750209
    Total Energy =                       -193.1874820375021500
    Molecular point group: c1
  Basis Set: CC-PVTZ
  Basis Set:
  Basis Set: CC-PVTZ
  Basis Set:
  @DF-RHF Final Energy:  -193.18777597433757
    Total Energy =                       -193.1877759743374554
  Basis Set: CC-PVTZ
  Basis Set:
  Basis Set: CC-PVTZ
  Basis Set:
  @DF-RHF Final Energy:  -193.18785863770947
    Total Energy =                       -193.1878586377093825
  Basis Set: CC-PVTZ
  Basis Set:
  Basis Set: CC-PVTZ
  Basis Set:
  @DF-RHF Final Energy:  -193.18785985791615
    Total Energy =                       -193.1878598579160098
  Basis Set: CC-PVTZ
  Basis Set:
  Charge       = 0
  Multiplicity = 1
  Basis Set: CC-PVTZ
  Basis Set:

    Orbital Energies (a.u.)
    -----------------------

    Doubly Occupied:

       1A    -20.546405     2A    -11.265736     3A    -11.216510
       4A    -11.214941     5A     -1.363705     6A     -1.051456
       7A     -0.924712     8A     -0.813932     9A     -0.697114
      10A     -0.640676    11A     -0.594476    12A     -0.585901
      13A     -0.552637    14A     -0.510233    15A     -0.489334
      16A     -0.467470    17A     -0.433458

  @DF-RHF Final Energy:  -193.18786016200590

   => Energetics <=

    Nuclear Repulsion Energy =            132.2868566731764304
    One-Electron Energy =                -524.2120415320988513
    Two-Electron Energy =                 198.7373246969164597
    DFT Exchange-Correlation Energy =       0.0000000000000000
    Empirical Dispersion Energy =           0.0000000000000000
    PCM Polarization Energy =               0.0000000000000000
    EFP Energy =                            0.0000000000000000
    Total Energy =                       -193.1878601620059612
    Molecular point group: c1
  Basis Set: CC-PVTZ
  Basis Set:

  -Total Gradient:
     Atom            X                  Y                   Z
    ------   -----------------  -----------------  -----------------
       1       -0.000012067372     0.000020583194     0.000002277963
       2       -0.001267274371     0.002189832981    -0.002874310110
       3        0.001942185884    -0.003943126485     0.004276235672
       4       -0.001681541623     0.006125931334    -0.003206462848
       5       -0.000003565967    -0.000002124327     0.000014563159
       6        0.000004141506    -0.000003242458    -0.000018142289
       7        0.000028838181    -0.000012250408    -0.000001991480
       8        0.001005856989    -0.004352366182     0.001770947527
       9       -0.000013923477    -0.000024813426     0.000014625687
      10        0.000007979699     0.000007442116     0.000000348385
      11       -0.000012662796    -0.000009743377     0.000013602154
      12        0.000002033346     0.000003877038     0.000008306178

  **** Optimization is complete! (in 5 steps) ****
    Final optimized geometry and variables:
    Molecular point group: c1

    Geometry (in Angstrom), charge = 0, multiplicity = 1:

    H           -1.110247623816    -1.456265309966    -0.026595881728
    O           -1.464675073509    -0.647564346006    -0.348446367164
    C           -0.762218009925     0.442351226645     0.189783364861
    C            0.665070692559     0.559963287667    -0.344126561649
    H           -1.333720048910     1.314049451389    -0.098373622638
    H           -0.762476018077     0.402883773736     1.276466326305
    C            1.690045917656    -0.206844669352     0.491030941116
    H            0.672245727298     0.158421723758    -1.351016259793
    H            0.950461645724     1.604829025860    -0.395651609824
    H            1.437279025825    -1.260936097765     0.559126969526
    H            2.680177109878    -0.140971562203     0.055729995173
    H            1.745365743023     0.183781925200     1.501527499541

  Mulliken Charges: (a.u.)
   Center  Symbol    Alpha    Beta     Spin     Total
       1     H     0.39423  0.39423  0.00000  0.21154
       2     O     4.20292  4.20292  0.00000 -0.40585
       3     C     2.97068  2.97068  0.00000  0.05864
       4     C     3.09374  3.09374  0.00000 -0.18748
       5     H     0.45150  0.45150  0.00000  0.09700
       6     H     0.47281  0.47281  0.00000  0.05438
       7     C     3.14918  3.14918  0.00000 -0.29836
       8     H     0.44852  0.44852  0.00000  0.10295
       9     H     0.45407  0.45407  0.00000  0.09186
      10     H     0.46153  0.46153  0.00000  0.07694
      11     H     0.44636  0.44636  0.00000  0.10727
      12     H     0.45445  0.45445  0.00000  0.09111

   Total alpha = 17.00000, Total beta = 17.00000, Total charge =  0.00000

*** Psi4 exiting successfully. Buy a developer a beer!
