  ==> Input File <==

--------------------------------------------------------------------------
set {
	reference rhf
	basis 6-31G*
}

set_num_threads( 1 )
memory 2 gb

molecule MOL {
0 1

O	 1.214711	 1.306902	 -0.000018
C	 1.122059	 0.121804	 -0.000188
C	 -0.170150	 -0.657997	 -0.000612
O	 2.172624	 -0.688929	 0.000216
C	 -1.412532	 0.227344	 -0.000452
H	 -0.153702	 -1.313099	 -0.867402
H	 -0.153924	 -1.313811	 0.865644
C	 -1.131993	 1.622930	 -0.559921
H	 -1.795762	 0.306922	 1.012122
H	 -2.194151	 -0.251896	 -0.581746
C	 -2.371753	 2.516225	 -0.564611
H	 -0.347613	 2.098312	 0.025602
H	 -0.745816	 1.537252	 -1.573626
H	 -2.762019	 2.649501	 0.440170
H	 -2.145682	 3.499319	 -0.965478
H	 -3.162824	 2.084744	 -1.170972
C	 3.452279	 -0.082609	 0.000533
H	 3.583069	 0.529321	 -0.880332
H	 4.163299	 -0.894027	 0.001117
H	 3.582335	 0.529955	 0.881077

	symmetry c1
}
set optking {
	frozen_dihedral = ("
		9 5 8 12,
		1 2 3 6,
		1 2 4 17
	")
}

ee = energy('scf')
oeprop('DIPOLE', 'QUADRUPOLE', 'MULLIKEN_CHARGES')
f=open( 'psi4out.xyz', 'w' )
f.write( "20  " )
f.write( str(ee) + "\n" )
f.write( MOL.save_string_xyz() )
f.close()
--------------------------------------------------------------------------

    Molecular point group: c1

    Geometry (in Angstrom), charge = 0, multiplicity = 1:

       Center              X                  Y                   Z               Mass
    ------------   -----------------  -----------------  -----------------  -----------------
           O          0.819431014499     0.752187511656     0.140705315170    15.994914619560
           C          0.726779014499    -0.432910488344     0.140535315170    12.000000000000
           C         -0.565429985501    -1.212711488344     0.140111315170    12.000000000000
           O          1.777344014499    -1.243643488344     0.140939315170    15.994914619560
           C         -1.807811985501    -0.327370488344     0.140271315170    12.000000000000
           H         -0.548981985501    -1.867813488344    -0.726678684830     1.007825032070
           H         -0.549203985501    -1.868525488344     1.006367315170     1.007825032070
           C         -1.527272985501     1.068215511656    -0.419197684830    12.000000000000
           H         -2.191041985501    -0.247792488344     1.152845315170     1.007825032070
           H         -2.589430985501    -0.806610488344    -0.441022684830     1.007825032070
           C         -2.767032985501     1.961510511656    -0.423887684830    12.000000000000
           H         -0.742892985501     1.543597511656     0.166325315170     1.007825032070
           H         -1.141095985501     0.982537511656    -1.432902684830     1.007825032070
           H         -3.157298985501     2.094786511656     0.580893315170     1.007825032070
           H         -2.540961985501     2.944604511656    -0.824754684830     1.007825032070
           H         -3.558103985501     1.530029511656    -1.030248684830     1.007825032070
           C          3.056999014499    -0.637323488344     0.141256315170    12.000000000000
           H          3.187789014499    -0.025393488344    -0.739608684830     1.007825032070
           H          3.768019014499    -1.448741488344     0.141840315170     1.007825032070
           H          3.187055014499    -0.024759488344     1.021800315170     1.007825032070

  Charge       = 0
  Multiplicity = 1
  Basis Set: 6-31G*
  Basis Set:

    Orbital Energies (a.u.)
    -----------------------

    Doubly Occupied:

       1A    -20.607260     2A    -20.545116     3A    -11.378016
       4A    -11.283446     5A    -11.236769     6A    -11.216654
       7A    -11.192963     8A    -11.187669     9A     -1.474707
      10A     -1.371215    11A     -1.083327    12A     -1.017054
      13A     -0.966090    14A     -0.879259    15A     -0.800203
      16A     -0.775590    17A     -0.698685    18A     -0.687325
      19A     -0.672566    20A     -0.637087    21A     -0.603926
      22A     -0.578959    23A     -0.568973    24A     -0.543163
      25A     -0.537462    26A     -0.519557    27A     -0.500593
      28A     -0.492575    29A     -0.466715    30A     -0.455425
      31A     -0.449136    32A     -0.397950

  @DF-RHF Final Energy:  -383.90907982412187

   => Energetics <=

    Nuclear Repulsion Energy =            397.2385687456912251
    One-Electron Energy =               -1310.6445444437053993
    Two-Electron Energy =                 529.4968958738921856
    DFT Exchange-Correlation Energy =       0.0000000000000000
    Empirical Dispersion Energy =           0.0000000000000000
    PCM Polarization Energy =               0.0000000000000000
    EFP Energy =                            0.0000000000000000
    Total Energy =                       -383.9090798241219318

  Mulliken Charges: (a.u.)
   Center  Symbol    Alpha    Beta     Spin     Total
       1     O     4.28794  4.28794  0.00000 -0.57589
       2     C     2.60200  2.60200  0.00000  0.79601
       3     C     3.21176  3.21176  0.00000 -0.42353
       4     O     4.30719  4.30719  0.00000 -0.61439
       5     C     3.15531  3.15531  0.00000 -0.31061
       6     H     0.39758  0.39758  0.00000  0.20484
       7     H     0.39669  0.39669  0.00000  0.20663
       8     C     3.16478  3.16478  0.00000 -0.32957
       9     H     0.41864  0.41864  0.00000  0.16271
      10     H     0.41819  0.41819  0.00000  0.16362
      11     C     3.23679  3.23679  0.00000 -0.47359
      12     H     0.37702  0.37702  0.00000  0.24596
      13     H     0.42989  0.42989  0.00000  0.14023
      14     H     0.42653  0.42653  0.00000  0.14695
      15     H     0.42113  0.42113  0.00000  0.15775
      16     H     0.43015  0.43015  0.00000  0.13971
      17     C     3.09284  3.09284  0.00000 -0.18568
      18     H     0.40882  0.40882  0.00000  0.18236
      19     H     0.40775  0.40775  0.00000  0.18449
      20     H     0.40900  0.40900  0.00000  0.18200

   Total alpha = 32.00000, Total beta = 32.00000, Total charge = -0.00000
