  ==> Input File <==

--------------------------------------------------------------------------
set {
	reference rhf
	basis 6-31G*
}

set_num_threads( 1 )
memory 2 gb

molecule MOL {
0 1

H	 -2.172150	 0.880146	 0.502514
C	 -2.018062	 -0.000025	 -0.114509
O	 -0.774054	 0.001095	 -0.743181
H	 -2.760490	 0.003458	 -0.901350
H	 -2.173624	 -0.884374	 0.496163
C	 -0.260404	 -1.203270	 -1.283737
C	 1.085727	 -0.788961	 -1.873900
C	 -0.049686	 -2.254500	 -0.189341
C	 -1.171222	 -1.745505	 -2.389859
H	 1.723305	 -0.379899	 -1.098276
H	 0.942695	 -0.024939	 -2.629669
H	 1.590855	 -1.635500	 -2.327638
H	 0.536485	 -1.838257	 0.623170
H	 0.481692	 -3.112090	 -0.589065
H	 -0.988167	 -2.615746	 0.217240
H	 -1.372596	 -0.971915	 -3.123384
H	 -0.693827	 -2.578794	 -2.895088
H	 -2.119019	 -2.102337	 -2.001292

	symmetry c1
}
set optking {
	frozen_dihedral = ("
		2 3 6 7
	")
}

ee = energy('scf')
oeprop('DIPOLE', 'QUADRUPOLE', 'MULLIKEN_CHARGES')
f=open( 'psi4out.xyz', 'w' )
f.write( "18  " )
f.write( str(ee) + "\n" )
f.write( MOL.save_string_xyz() )
f.close()
--------------------------------------------------------------------------

    Molecular point group: c1

    Geometry (in Angstrom), charge = 0, multiplicity = 1:

       Center              X                  Y                   Z               Mass
    ------------   -----------------  -----------------  -----------------  -----------------
           H         -1.622655200416     1.870842452056     1.591612034855     1.007825032070
           C         -1.468567200416     0.990671452056     0.974589034855    12.000000000000
           O         -0.224559200416     0.991791452056     0.345917034855    15.994914619560
           H         -2.210995200416     0.994154452056     0.187748034855     1.007825032070
           H         -1.624129200416     0.106322452056     1.585261034855     1.007825032070
           C          0.289090799584    -0.212573547944    -0.194638965145    12.000000000000
           C          1.635221799584     0.201735452056    -0.784801965145    12.000000000000
           C          0.499808799584    -1.263803547944     0.899757034855    12.000000000000
           C         -0.621727200416    -0.754808547944    -1.300760965145    12.000000000000
           H          2.272799799584     0.610797452056    -0.009177965145     1.007825032070
           H          1.492189799584     0.965757452056    -1.540570965145     1.007825032070
           H          2.140349799584    -0.644803547944    -1.238539965145     1.007825032070
           H          1.085979799584    -0.847560547944     1.712268034855     1.007825032070
           H          1.031186799584    -2.121393547944     0.500033034855     1.007825032070
           H         -0.438672200416    -1.625049547944     1.306338034855     1.007825032070
           H         -0.823101200416     0.018781452056    -2.034285965145     1.007825032070
           H         -0.144332200416    -1.588097547944    -1.805989965145     1.007825032070
           H         -1.569524200416    -1.111640547944    -0.912193965145     1.007825032070

  Charge       = 0
  Multiplicity = 1
  Basis Set: 6-31G*
  Basis Set:

    Orbital Energies (a.u.)
    -----------------------

    Doubly Occupied:

       1A    -20.544620     2A    -11.282253     3A    -11.260563
       4A    -11.208864     5A    -11.208758     6A    -11.203327
       7A     -1.369255     8A     -1.072866     9A     -0.946174
      10A     -0.939999    11A     -0.911890    12A     -0.752121
      13A     -0.654263    14A     -0.644845    15A     -0.639426
      16A     -0.592822    17A     -0.575279    18A     -0.550638
      19A     -0.534661    20A     -0.524611    21A     -0.514851
      22A     -0.489408    23A     -0.486175    24A     -0.437348
      25A     -0.401762

  @DF-RHF Final Energy:  -271.17265036996531

   => Energetics <=

    Nuclear Repulsion Energy =            272.4080630567380581
    One-Electron Energy =                -907.6675272916157837
    Two-Electron Energy =                 364.0868138649123011
    DFT Exchange-Correlation Energy =       0.0000000000000000
    Empirical Dispersion Energy =           0.0000000000000000
    PCM Polarization Energy =               0.0000000000000000
    EFP Energy =                            0.0000000000000000
    Total Energy =                       -271.1726503699653676

  Mulliken Charges: (a.u.)
   Center  Symbol    Alpha    Beta     Spin     Total
       1     H     0.41327  0.41327  0.00000  0.17346
       2     C     3.07885  3.07885  0.00000 -0.15771
       3     O     4.32039  4.32039  0.00000 -0.64078
       4     H     0.42756  0.42756  0.00000  0.14487
       5     H     0.43089  0.43089  0.00000  0.13822
       6     C     2.84235  2.84235  0.00000  0.31531
       7     C     3.23285  3.23285  0.00000 -0.46570
       8     C     3.24725  3.24725  0.00000 -0.49451
       9     C     3.24755  3.24755  0.00000 -0.49509
      10     H     0.41392  0.41392  0.00000  0.17215
      11     H     0.41404  0.41404  0.00000  0.17192
      12     H     0.42520  0.42520  0.00000  0.14961
      13     H     0.41302  0.41302  0.00000  0.17396
      14     H     0.41957  0.41957  0.00000  0.16086
      15     H     0.42008  0.42008  0.00000  0.15983
      16     H     0.41330  0.41330  0.00000  0.17341
      17     H     0.41962  0.41962  0.00000  0.16076
      18     H     0.42028  0.42028  0.00000  0.15943

   Total alpha = 25.00000, Total beta = 25.00000, Total charge =  0.00000
