  ==> Input File <==

--------------------------------------------------------------------------
set {
	reference rhf
	basis 6-31G*
}

set_num_threads( 4 )
memory 2 gb

molecule MOL {
0 1

H	 5.268524	 0.192471	 1.070992
C	 4.673736	 -0.214914	 0.259335
C	 3.185378	 -0.203514	 0.605509
H	 4.871837	 0.380453	 -0.627026
H	 5.025590	 -1.224632	 0.065769
C	 2.317601	 -0.778379	 -0.516234
H	 2.874655	 0.814325	 0.817774
H	 3.023650	 -0.778480	 1.515976
C	 0.840052	 -0.401553	 -0.406152
H	 2.695719	 -0.444482	 -1.476017
H	 2.395371	 -1.863215	 -0.505091
C	 0.541751	 1.059760	 -0.707521
H	 0.257299	 -0.989102	 -1.113934
H	 0.447339	 -0.651740	 0.576884
C	 -0.797769	 1.611563	 -0.251548
O	 1.319520	 1.748549	 -1.296632
C	 -2.004796	 0.925145	 -0.908114
H	 -0.798761	 2.670420	 -0.480754
H	 -0.866296	 1.504023	 0.829389
C	 -3.331598	 1.569355	 -0.501664
H	 -1.899086	 0.971848	 -1.989900
H	 -2.025368	 -0.128680	 -0.642596
C	 -4.540504	 0.894973	 -1.148703
H	 -3.316530	 2.622337	 -0.771969
H	 -3.432314	 1.532140	 0.580864
H	 -4.483967	 0.944972	 -2.232229
H	 -4.602636	 -0.152834	 -0.868787
H	 -5.465378	 1.373883	 -0.843528

	symmetry c1
}
set optking {
	frozen_dihedral = ("
		10 6 3 2
	")
}

ee = optimize('scf')
oeprop('DIPOLE', 'QUADRUPOLE', 'MULLIKEN_CHARGES')
f=open( 'psi4out.xyz', 'w' )
f.write( "28  " )
f.write( str(ee) + "\n" )
f.write( MOL.save_string_xyz() )
f.close()
--------------------------------------------------------------------------

    Molecular point group: c1
  Charge       = 0
  Multiplicity = 1
  Basis Set: 6-31G*
  Basis Set:
  @DF-RHF Final Energy:  -426.16800231428886
    Total Energy =                       -426.1680023142889695
    Molecular point group: c1
  Basis Set: 6-31G*
  Basis Set:
  Basis Set: 6-31G*
  Basis Set:
  @DF-RHF Final Energy:  -426.16809864867901
    Total Energy =                       -426.1680986486794609
  Basis Set: 6-31G*
  Basis Set:
  Basis Set: 6-31G*
  Basis Set:
  @DF-RHF Final Energy:  -426.16702810849836
    Total Energy =                       -426.1670281084984708
  Basis Set: 6-31G*
  Basis Set:
  Basis Set: 6-31G*
  Basis Set:
  @DF-RHF Final Energy:  -426.16813484654551
    Total Energy =                       -426.1681348465456267
  Basis Set: 6-31G*
  Basis Set:
  Basis Set: 6-31G*
  Basis Set:
  @DF-RHF Final Energy:  -426.16813915693615
    Total Energy =                       -426.1681391569363768
  Basis Set: 6-31G*
  Basis Set:
  Basis Set: 6-31G*
  Basis Set:
  @DF-RHF Final Energy:  -426.16813348398000
    Total Energy =                       -426.1681334839802275
  Basis Set: 6-31G*
  Basis Set:
  Basis Set: 6-31G*
  Basis Set:
  @DF-RHF Final Energy:  -426.16814550583945
    Total Energy =                       -426.1681455058394477
  Basis Set: 6-31G*
  Basis Set:
  Charge       = 0
  Multiplicity = 1
  Basis Set: 6-31G*
  Basis Set:

    Orbital Energies (a.u.)
    -----------------------

    Doubly Occupied:

       1A    -20.548177     2A    -11.322041     3A    -11.232484
       4A    -11.230172     5A    -11.228862     6A    -11.226137
       7A    -11.216371     8A    -11.216135     9A    -11.212524
      10A    -11.204419    11A     -1.393245    12A     -1.095154
      13A     -1.076917    14A     -1.022446    15A     -0.990508
      16A     -0.907222    17A     -0.872964    18A     -0.809321
      19A     -0.799499    20A     -0.723141    21A     -0.668990
      22A     -0.652521    23A     -0.626461    24A     -0.620264
      25A     -0.609735    26A     -0.589336    27A     -0.577058
      28A     -0.572560    29A     -0.543462    30A     -0.530791
      31A     -0.522103    32A     -0.505861    33A     -0.500102
      34A     -0.484767    35A     -0.478286    36A     -0.475139
      37A     -0.470743    38A     -0.464192    39A     -0.455234
      40A     -0.392510

  @DF-RHF Final Energy:  -426.16814535256628

   => Energetics <=

    Nuclear Repulsion Energy =            531.8871940420469855
    One-Electron Energy =               -1631.9749693117391871
    Two-Electron Energy =                 673.9196299171259170
    DFT Exchange-Correlation Energy =       0.0000000000000000
    Empirical Dispersion Energy =           0.0000000000000000
    PCM Polarization Energy =               0.0000000000000000
    EFP Energy =                            0.0000000000000000
    Total Energy =                       -426.1681453525662846
    Molecular point group: c1
  Basis Set: 6-31G*
  Basis Set:

  -Total Gradient:
     Atom            X                  Y                   Z
    ------   -----------------  -----------------  -----------------
       1       -0.000006505652    -0.000006906754     0.000000516093
       2       -0.000165865204     0.002017215846    -0.000909495058
       3        0.000659289114    -0.003425453272     0.001174994764
       4        0.000003103773     0.000013575606     0.000006810416
       5        0.000008974097     0.000005990397    -0.000008930822
       6       -0.002279494285     0.003891952237    -0.000107177711
       7       -0.000038592334     0.000012123206    -0.000002422065
       8        0.000010023486    -0.000015076315    -0.000007531210
       9        0.000015568582     0.000024282849    -0.000018592537
      10        0.001795768933    -0.002530024649    -0.000142376984
      11        0.000013580735    -0.000028586887     0.000020034738
      12       -0.000012038479    -0.000006351777     0.000005720539
      13        0.000003152433    -0.000002220565     0.000006386002
      14        0.000000136129    -0.000007418269    -0.000006601104
      15       -0.000003856844    -0.000004975930    -0.000010464763
      16       -0.000031535886     0.000040178036     0.000001576979
      17        0.000010329617     0.000023195345    -0.000012570180
      18       -0.000017444983     0.000002228498     0.000005204029
      19        0.000021862686    -0.000008887793     0.000008586937
      20        0.000004858267     0.000021869267    -0.000013223373
      21        0.000014418679    -0.000001904289    -0.000001995300
      22       -0.000010470277    -0.000001493749     0.000000499789
      23        0.000003460544    -0.000018779450     0.000015690544
      24       -0.000005830823    -0.000001410934    -0.000012452173
      25        0.000005322006     0.000010709196     0.000000466361
      26        0.000002026512     0.000006279291     0.000005390962
      27       -0.000002672107    -0.000006555752    -0.000005402078
      28        0.000002431278    -0.000003553388     0.000007357208

  **** Optimization is complete! (in 8 steps) ****
    Final optimized geometry and variables:
    Molecular point group: c1

    Geometry (in Angstrom), charge = 0, multiplicity = 1:

    H            5.081637941351    -0.490845499130     1.540806370528
    C            4.469053370272    -0.860735257551     0.724381356683
    C            2.984963626926    -0.822637353310     1.085337471834
    H            4.666892089208    -0.244300411032    -0.146745070213
    H            4.796875254372    -1.872122229755     0.497942126324
    C            2.092440730791    -1.386888071115    -0.026140669443
    H            2.707795000978     0.207816289521     1.286735944979
    H            2.811100094398    -1.377018095914     2.005275458886
    C            0.617938072807    -1.014229891364     0.113356384646
    H            2.461388896693    -1.065773506527    -0.993462411683
    H            2.172541274141    -2.471984046565    -0.020755246562
    C            0.312275608322     0.444307678642    -0.194220975620
    H            0.018790616745    -1.611386214204    -0.572002613584
    H            0.249722434013    -1.252842372615     1.108991991947
    C           -1.033689635314     0.989089806112     0.251602838243
    O            1.090412644912     1.137125212994    -0.777930337172
    C           -2.231962256837     0.301446849443    -0.419612829075
    H           -1.036344643838     2.048812649557     0.026454790644
    H           -1.112585756809     0.877112957925     1.331348359538
    C           -3.564105076916     0.944736046559    -0.029572919664
    H           -2.113097449391     0.347695137553    -1.500038196433
    H           -2.255039831344    -0.752218951199    -0.153728140214
    C           -4.764934391818     0.265146607653    -0.686125824018
    H           -3.548286547513     1.996586864361    -0.304158929290
    H           -3.675884680489     0.911842627019     1.052022328295
    H           -4.697643553582     0.311235623009    -1.769205073660
    H           -4.827532232174    -0.781742497570    -0.402905063334
    H           -5.693896843834     0.743099099606    -0.392007889751

  Mulliken Charges: (a.u.)
   Center  Symbol    Alpha    Beta     Spin     Total
       1     H     0.42014  0.42014  0.00000  0.15972
       2     C     3.24099  3.24099  0.00000 -0.48197
       3     C     3.15353  3.15353  0.00000 -0.30706
       4     H     0.41535  0.41535  0.00000  0.16930
       5     H     0.42389  0.42389  0.00000  0.15222
       6     C     3.15037  3.15037  0.00000 -0.30073
       7     H     0.41564  0.41564  0.00000  0.16872
       8     H     0.42587  0.42587  0.00000  0.14827
       9     C     3.21190  3.21190  0.00000 -0.42380
      10     H     0.40665  0.40665  0.00000  0.18669
      11     H     0.42156  0.42156  0.00000  0.15688
      12     C     2.73130  2.73130  0.00000  0.53740
      13     H     0.40308  0.40308  0.00000  0.19383
      14     H     0.41283  0.41283  0.00000  0.17434
      15     C     3.20173  3.20173  0.00000 -0.40345
      16     O     4.26659  4.26659  0.00000 -0.53318
      17     C     3.16376  3.16376  0.00000 -0.32753
      18     H     0.39978  0.39978  0.00000  0.20044
      19     H     0.41301  0.41301  0.00000  0.17398
      20     C     3.15181  3.15181  0.00000 -0.30363
      21     H     0.41374  0.41374  0.00000  0.17253
      22     H     0.41871  0.41871  0.00000  0.16259
      23     C     3.24034  3.24034  0.00000 -0.48068
      24     H     0.41834  0.41834  0.00000  0.16332
      25     H     0.42143  0.42143  0.00000  0.15714
      26     H     0.41960  0.41960  0.00000  0.16080
      27     H     0.42120  0.42120  0.00000  0.15759
      28     H     0.41687  0.41687  0.00000  0.16626

   Total alpha = 40.00000, Total beta = 40.00000, Total charge = -0.00000
