                              Psi4 1.0.54 Driver

  ==> Input File <==

--------------------------------------------------------------------------
set {
	reference rhf
	basis cc-pvtz
}

set_num_threads( 4 )
memory 2 gb

molecule MOL {
0 1

O	 3.219313	 0.959291	 -0.614106
C	 2.698710	 0.058177	 -0.050237
C	 1.246364	 -0.005813	 0.348416
O	 3.344101	 -1.038700	 0.312317
C	 0.453207	 1.232821	 -0.049003
H	 0.839270	 -0.907818	 -0.092281
H	 1.216683	 -0.160521	 1.422434
C	 -0.998367	 1.217982	 0.432195
H	 0.481498	 1.345443	 -1.127236
H	 0.951413	 2.105557	 0.354893
C	 -1.882951	 0.151251	 -0.211235
H	 -1.429490	 2.193659	 0.228843
H	 -1.019755	 1.099323	 1.513279
C	 -3.226519	 -0.014430	 0.493862
H	 -2.054659	 0.411842	 -1.253099
H	 -1.370435	 -0.806262	 -0.216828
C	 -4.116297	 -1.081844	 -0.136770
H	 -3.752861	 0.937042	 0.491314
H	 -3.055502	 -0.263354	 1.538685
C	 -5.457323	 -1.240186	 0.571999
H	 -4.288238	 -0.834370	 -1.180759
H	 -3.592765	 -2.034079	 -0.132467
H	 -6.063592	 -2.004801	 0.099998
H	 -6.021205	 -0.313458	 0.554042
H	 -5.320143	 -1.521646	 1.610830
C	 4.720529	 -1.114346	 0.001449
H	 4.874321	 -1.055557	 -1.065852
H	 5.057824	 -2.067950	 0.373977
H	 5.264321	 -0.313596	 0.480350

	symmetry c1
}
set optking {
	frozen_dihedral = ("
		15 11 8 5
	")
}

ee,wfn = optimize('scf', return_wfn=True)
oeprop( wfn, 'DIPOLE', 'QUADRUPOLE', 'MULLIKEN_CHARGES')
f=open( 'psi4out.xyz', 'w' )
f.write( "29  " )
f.write( str(ee) + "\n" )
f.write( MOL.save_string_xyz() )
f.close()
--------------------------------------------------------------------------

    Molecular point group: c1
  Charge       = 0
  Multiplicity = 1
  Basis Set: CC-PVTZ
  Basis Set:
  @DF-RHF Final Energy:  -501.22406336820382
    Total Energy =                       -501.2240633682035877
    Molecular point group: c1
  Basis Set: CC-PVTZ
  Basis Set:
  Basis Set: CC-PVTZ
  Basis Set:
  @DF-RHF Final Energy:  -501.22320891352433
    Total Energy =                       -501.2232089135234219
  Basis Set: CC-PVTZ
  Basis Set:
  Basis Set: CC-PVTZ
  Basis Set:
  @DF-RHF Final Energy:  -501.22410855665623
    Total Energy =                       -501.2241085566554375
  Basis Set: CC-PVTZ
  Basis Set:
  Basis Set: CC-PVTZ
  Basis Set:
  @DF-RHF Final Energy:  -501.22423850779558
    Total Energy =                       -501.2242385077959170
  Basis Set: CC-PVTZ
  Basis Set:
  Basis Set: CC-PVTZ
  Basis Set:
  @DF-RHF Final Energy:  -501.22404718387747
    Total Energy =                       -501.2240471838779285
  Basis Set: CC-PVTZ
  Basis Set:
  Basis Set: CC-PVTZ
  Basis Set:
  @DF-RHF Final Energy:  -501.22425756949895
    Total Energy =                       -501.2242575694992865
  Basis Set: CC-PVTZ
  Basis Set:
  Basis Set: CC-PVTZ
  Basis Set:
  @DF-RHF Final Energy:  -501.22425889646513
    Total Energy =                       -501.2242588964655852
  Basis Set: CC-PVTZ
  Basis Set:
  Charge       = 0
  Multiplicity = 1
  Basis Set: CC-PVTZ
  Basis Set:

    Orbital Energies (a.u.)
    -----------------------

    Doubly Occupied:

       1A    -20.596089     2A    -20.533923     3A    -11.364381
       4A    -11.278321     5A    -11.233153     6A    -11.217129
       7A    -11.215586     8A    -11.213864     9A    -11.213573
      10A    -11.212230    11A    -11.207134    12A     -1.471995
      13A     -1.365580    14A     -1.099182    15A     -1.068105
      16A     -1.020583    17A     -0.978230    18A     -0.929153
      19A     -0.861670    20A     -0.799884    21A     -0.790861
      22A     -0.766260    23A     -0.703593    24A     -0.685485
      25A     -0.676195    26A     -0.650867    27A     -0.629874
      28A     -0.605877    29A     -0.597091    30A     -0.581257
      31A     -0.567721    32A     -0.550477    33A     -0.534256
      34A     -0.531042    35A     -0.516326    36A     -0.510664
      37A     -0.499675    38A     -0.477622    39A     -0.470940
      40A     -0.462859    41A     -0.460827    42A     -0.458028
      43A     -0.443286    44A     -0.437407

  @DF-RHF Final Energy:  -501.22425935746821

   => Energetics <=

    Nuclear Repulsion Energy =            611.6868505103876714
    One-Electron Energy =               -1894.8457189581499733
    Two-Electron Energy =                 781.9346090902948845
    DFT Exchange-Correlation Energy =       0.0000000000000000
    Empirical Dispersion Energy =           0.0000000000000000
    PCM Polarization Energy =               0.0000000000000000
    EFP Energy =                            0.0000000000000000
    Total Energy =                       -501.2242593574675311
    Molecular point group: c1
  Basis Set: CC-PVTZ
  Basis Set:

  -Total Gradient:
     Atom            X                  Y                   Z
    ------   -----------------  -----------------  -----------------
       1       -0.000014690991    -0.000048412325     0.000037929403
       2        0.000008900452     0.000015130862    -0.000023166199
       3        0.000000216117     0.000007725459    -0.000010429488
       4       -0.000008860673     0.000028982926    -0.000014126622
       5        0.000464077433    -0.001127427940     0.001393209549
       6        0.000006681388     0.000005188160     0.000000270120
       7       -0.000003493657     0.000001817959    -0.000007778037
       8       -0.001129852938     0.001932483088    -0.001825852501
       9       -0.000003766901    -0.000008144209     0.000016346748
      10       -0.000004530500    -0.000001486192    -0.000003553419
      11        0.002657009578    -0.002147462918    -0.000177129007
      12        0.000000477723     0.000014577358     0.000009349771
      13        0.000014330844    -0.000008490091    -0.000013704392
      14       -0.000013567526     0.000020449752    -0.000018051251
      15       -0.001990984492     0.001324124745     0.000654064412
      16        0.000002952511    -0.000011879986    -0.000009493216
      17       -0.000002866129     0.000006743909    -0.000010704851
      18       -0.000007306522     0.000003349737     0.000002052804
      19        0.000004566979     0.000001953851    -0.000008518787
      20        0.000004628937    -0.000003794176     0.000008137927
      21       -0.000002420351     0.000002581965     0.000001938214
      22        0.000000136521     0.000002634060    -0.000003119354
      23        0.000003679337    -0.000002575254     0.000003240106
      24        0.000002298474    -0.000003008040    -0.000003460775
      25       -0.000002865391     0.000001353451     0.000001871643
      26        0.000023241434    -0.000002923903    -0.000005144488
      27       -0.000002928197     0.000003230941     0.000016286175
      28        0.000002838160     0.000003177649    -0.000003760404
      29       -0.000007901613    -0.000009900835    -0.000006704085

  **** Optimization is complete! (in 8 steps) ****
    Final optimized geometry and variables:
    Molecular point group: c1

    Geometry (in Angstrom), charge = 0, multiplicity = 1:

    O            3.164062695308     0.934729947635    -0.864517632808
    C            2.671321130896     0.115043142773    -0.167256659696
    C            1.235633638819     0.101599980977     0.292205294777
    O            3.337567543011    -0.923179695115     0.311624689512
    C            0.419652007177     1.276301230615    -0.232623928966
    H            0.819033249449    -0.852160810408    -0.008059082997
    H            1.248514142053     0.090936990100     1.377435447804
    C           -1.022967129750     1.298396760383     0.276655459068
    H            0.429851913146     1.264989100990    -1.317114111011
    H            0.914312353728     2.194575453475     0.059342006934
    C           -1.931524493454     0.216197162147    -0.308198766651
    H           -1.454474158082     2.269484991553     0.056062318108
    H           -1.014877566375     1.213597393333     1.361246737614
    C           -3.275153911262     0.117118861594     0.411103099764
    H           -2.117078370799     0.441370699232    -1.355411604462
    H           -1.443406188671    -0.752585294816    -0.277133985017
    C           -4.217754082963    -0.915031570015    -0.201072087076
    H           -3.758676670258     1.091369857259     0.404385143213
    H           -3.105389082538    -0.129373232895     1.456570675843
    C           -5.553367858708    -1.014890731923     0.528300663352
    H           -4.395042268082    -0.665353123615    -1.243582734328
    H           -3.733861725590    -1.888121146506    -0.199918038982
    H           -6.197849713803    -1.755476539445     0.068774474309
    H           -6.078537125894    -0.065596021755     0.514571965944
    H           -5.412440346514    -1.297816936858     1.566230288027
    C            4.701865996914    -1.036378841540    -0.038978748308
    H            4.814926105883    -1.118309612879    -1.109816400537
    H            5.059704060732    -1.931927307595     0.442527815184
    H            5.257619945562    -0.178433052117     0.309277856298

  Mulliken Charges: (a.u.)
   Center  Symbol    Alpha    Beta     Spin     Total
       1     O     4.19685  4.19685  0.00000 -0.39370
       2     C     2.80459  2.80459  0.00000  0.39081
       3     C     3.10073  3.10073  0.00000 -0.20147
       4     O     4.14735  4.14735  0.00000 -0.29470
       5     C     3.09209  3.09209  0.00000 -0.18419
       6     H     0.43978  0.43978  0.00000  0.12045
       7     H     0.44013  0.44013  0.00000  0.11973
       8     C     3.10498  3.10498  0.00000 -0.20996
       9     H     0.44658  0.44658  0.00000  0.10684
      10     H     0.43992  0.43992  0.00000  0.12015
      11     C     3.09063  3.09063  0.00000 -0.18125
      12     H     0.44396  0.44396  0.00000  0.11207
      13     H     0.45552  0.45552  0.00000  0.08896
      14     C     3.08691  3.08691  0.00000 -0.17383
      15     H     0.45205  0.45205  0.00000  0.09591
      16     H     0.45465  0.45465  0.00000  0.09070
      17     C     3.08363  3.08363  0.00000 -0.16726
      18     H     0.45425  0.45425  0.00000  0.09150
      19     H     0.45524  0.45524  0.00000  0.08952
      20     C     3.15031  3.15031  0.00000 -0.30061
      21     H     0.45430  0.45430  0.00000  0.09141
      22     H     0.45502  0.45502  0.00000  0.08996
      23     H     0.44833  0.44833  0.00000  0.10333
      24     H     0.45496  0.45496  0.00000  0.09007
      25     H     0.45531  0.45531  0.00000  0.08937
      26     C     3.03811  3.03811  0.00000 -0.07622
      27     H     0.45431  0.45431  0.00000  0.09138
      28     H     0.44528  0.44528  0.00000  0.10943
      29     H     0.45421  0.45421  0.00000  0.09159

   Total alpha = 44.00000, Total beta = 44.00000, Total charge =  0.00000

*** Psi4 exiting successfully. Buy a developer a beer!
