  ==> Input File <==

--------------------------------------------------------------------------
set {
	reference rhf
	basis 6-31G*
}

set_num_threads( 1 )
memory 2 gb

molecule MOL {
0 1

H	 2.176868	 -0.646004	 -0.217325
O	 1.337496	 -0.537251	 0.205931
C	 0.702312	 0.627605	 -0.264544
C	 -0.714990	 0.596302	 0.266387
H	 0.682322	 0.642550	 -1.350929
H	 1.215941	 1.520383	 0.085680
O	 -1.405996	 -0.526611	 -0.195820
H	 -1.257453	 1.468809	 -0.075599
H	 -0.688972	 0.618407	 1.353696
H	 -1.536571	 -1.109037	 0.541571

	symmetry c1
}
set optking {
	frozen_dihedral = ("
		5 3 4 7
	")
}

ee = energy('scf')
oeprop('DIPOLE', 'QUADRUPOLE', 'MULLIKEN_CHARGES')
f=open( 'psi4out.xyz', 'w' )
f.write( "10  " )
f.write( str(ee) + "\n" )
f.write( MOL.save_string_xyz() )
f.close()
--------------------------------------------------------------------------

    Molecular point group: c1

    Geometry (in Angstrom), charge = 0, multiplicity = 1:

       Center              X                  Y                   Z               Mass
    ------------   -----------------  -----------------  -----------------  -----------------
           H          2.187362084026    -0.648988269087    -0.225764708797     1.007825032070
           O          1.347990084026    -0.540235269087     0.197491291203    15.994914619560
           C          0.712806084026     0.624620730913    -0.272983708797    12.000000000000
           C         -0.704495915974     0.593317730913     0.257947291203    12.000000000000
           H          0.692816084026     0.639565730913    -1.359368708797     1.007825032070
           H          1.226435084026     1.517398730913     0.077240291203     1.007825032070
           O         -1.395501915974    -0.529595269087    -0.204259708797    15.994914619560
           H         -1.246958915974     1.465824730913    -0.084038708797     1.007825032070
           H         -0.678477915974     0.615422730913     1.345256291203     1.007825032070
           H         -1.526076915974    -1.112021269087     0.533131291203     1.007825032070

  Charge       = 0
  Multiplicity = 1
  Basis Set: 6-31G*
  Basis Set:

    Orbital Energies (a.u.)
    -----------------------

    Doubly Occupied:

       1A    -20.555180     2A    -20.550142     3A    -11.269761
       4A    -11.268593     5A     -1.372132     6A     -1.348358
       7A     -0.999435     8A     -0.834081     9A     -0.718569
      10A     -0.698901    11A     -0.620339    12A     -0.596525
      13A     -0.584003    14A     -0.520327    15A     -0.485488
      16A     -0.443310    17A     -0.433129

  @DF-RHF Final Energy:  -228.91970112144591

   => Energetics <=

    Nuclear Repulsion Energy =            134.0469202867176080
    One-Electron Energy =                -579.3368242320456147
    Two-Electron Energy =                 216.3702028238821242
    DFT Exchange-Correlation Energy =       0.0000000000000000
    Empirical Dispersion Energy =           0.0000000000000000
    PCM Polarization Energy =               0.0000000000000000
    EFP Energy =                            0.0000000000000000
    Total Energy =                       -228.9197011214458541

  Mulliken Charges: (a.u.)
   Center  Symbol    Alpha    Beta     Spin     Total
       1     H     0.27931  0.27931  0.00000  0.44138
       2     O     4.37207  4.37207  0.00000 -0.74414
       3     C     3.00030  3.00030  0.00000 -0.00060
       4     C     3.00502  3.00502  0.00000 -0.01004
       5     H     0.42392  0.42392  0.00000  0.15216
       6     H     0.43176  0.43176  0.00000  0.13648
       7     O     4.36528  4.36528  0.00000 -0.73056
       8     H     0.42151  0.42151  0.00000  0.15698
       9     H     0.42459  0.42459  0.00000  0.15082
      10     H     0.27624  0.27624  0.00000  0.44751

   Total alpha = 17.00000, Total beta = 17.00000, Total charge = -0.00000
