  ==> Input File <==

--------------------------------------------------------------------------
set {
	reference rhf
	basis 6-31G*
}

set_num_threads( 1 )
memory 2 gb

molecule MOL {
0 1

H	 -2.499100	 -0.730091	 -0.745082
O	 -2.347518	 -0.290803	 0.079804
C	 -1.184022	 0.487508	 -0.006784
C	 0.062599	 -0.378592	 0.031606
H	 -1.176523	 1.099369	 -0.904519
H	 -1.187323	 1.153111	 0.844927
O	 1.171513	 0.459272	 -0.058250
H	 0.050699	 -1.089204	 -0.797170
H	 0.078739	 -0.954914	 0.954740
C	 2.203853	 -0.032575	 -0.852922
H	 1.877546	 -0.184310	 -1.880117
H	 3.000545	 0.698234	 -0.842777
H	 2.585442	 -0.976387	 -0.468996

	symmetry c1
}
set optking {
	frozen_dihedral = ("
		8 4 3 5,
		1 2 3 5,
		4 7 10 13
	")
}

ee = energy('scf')
oeprop('DIPOLE', 'QUADRUPOLE', 'MULLIKEN_CHARGES')
f=open( 'psi4out.xyz', 'w' )
f.write( "13  " )
f.write( str(ee) + "\n" )
f.write( MOL.save_string_xyz() )
f.close()
--------------------------------------------------------------------------

    Molecular point group: c1

    Geometry (in Angstrom), charge = 0, multiplicity = 1:

       Center              X                  Y                   Z               Mass
    ------------   -----------------  -----------------  -----------------  -----------------
           H         -2.458739000958    -0.764525743958    -0.568079372330     1.007825032070
           O         -2.307157000958    -0.325237743958     0.256806627670    15.994914619560
           C         -1.143661000958     0.453073256042     0.170218627670    12.000000000000
           C          0.102959999042    -0.413026743958     0.208608627670    12.000000000000
           H         -1.136162000958     1.064934256042    -0.727516372330     1.007825032070
           H         -1.146962000958     1.118676256042     1.021929627670     1.007825032070
           O          1.211873999042     0.424837256042     0.118752627670    15.994914619560
           H          0.091059999042    -1.123638743958    -0.620167372330     1.007825032070
           H          0.119099999042    -0.989348743958     1.131742627670     1.007825032070
           C          2.244213999042    -0.067009743958    -0.675919372330    12.000000000000
           H          1.917906999042    -0.218744743958    -1.703114372330     1.007825032070
           H          3.040905999042     0.663799256042    -0.665774372330     1.007825032070
           H          2.625802999042    -1.010821743958    -0.291993372330     1.007825032070

  Charge       = 0
  Multiplicity = 1
  Basis Set: 6-31G*
  Basis Set:

    Orbital Energies (a.u.)
    -----------------------

    Doubly Occupied:

       1A    -20.561300     2A    -20.559587     3A    -11.271802
       4A    -11.270440     5A    -11.268066     6A     -1.389036
       7A     -1.364824     8A     -1.017628     9A     -0.915836
      10A     -0.842044    11A     -0.710176    12A     -0.669609
      13A     -0.661825    14A     -0.642301    15A     -0.590112
      16A     -0.569147    17A     -0.551134    18A     -0.490545
      19A     -0.475531    20A     -0.452821    21A     -0.411532

  @DF-RHF Final Energy:  -267.94761480102409

   => Energetics <=

    Nuclear Repulsion Energy =            190.7974686967259288
    One-Electron Energy =                -744.1195371812710846
    Two-Electron Energy =                 285.3744536835215513
    DFT Exchange-Correlation Energy =       0.0000000000000000
    Empirical Dispersion Energy =           0.0000000000000000
    PCM Polarization Energy =               0.0000000000000000
    EFP Energy =                            0.0000000000000000
    Total Energy =                       -267.9476148010236329

  Mulliken Charges: (a.u.)
   Center  Symbol    Alpha    Beta     Spin     Total
       1     H     0.28175  0.28175  0.00000  0.43651
       2     O     4.37086  4.37086  0.00000 -0.74171
       3     C     3.00361  3.00361  0.00000 -0.00722
       4     C     2.99910  2.99910  0.00000  0.00180
       5     H     0.42545  0.42545  0.00000  0.14911
       6     H     0.40790  0.40790  0.00000  0.18421
       7     O     4.30660  4.30660  0.00000 -0.61321
       8     H     0.43738  0.43738  0.00000  0.12523
       9     H     0.41798  0.41798  0.00000  0.16403
      10     C     3.08118  3.08118  0.00000 -0.16236
      11     H     0.42969  0.42969  0.00000  0.14063
      12     H     0.41109  0.41109  0.00000  0.17781
      13     H     0.42742  0.42742  0.00000  0.14517

   Total alpha = 21.00000, Total beta = 21.00000, Total charge = -0.00000
