  ==> Input File <==

--------------------------------------------------------------------------
set {
	reference rhf
	basis cc-pvtz
}

set_num_threads( 4 )
memory 2 gb

molecule MOL {
0 1

H	 2.614283	 2.028610	 0.296620
O	 3.358864	 1.662087	 -0.142800
C	 3.565468	 0.338079	 0.273842
C	 2.533667	 -0.637565	 -0.272227
H	 4.548038	 0.064914	 -0.086598
H	 3.593945	 0.282242	 1.360360
C	 1.114816	 -0.402372	 0.240993
H	 2.544552	 -0.580764	 -1.356576
H	 2.850574	 -1.642962	 -0.005497
C	 0.113298	 -1.420414	 -0.302504
H	 0.796373	 0.598427	 -0.031033
H	 1.113377	 -0.446476	 1.328807
C	 -0.876916	 -1.966403	 0.727850
H	 -0.436810	 -0.974452	 -1.127565
H	 0.665132	 -2.255858	 -0.724383
C	 -1.878458	 -0.946083	 1.265997
H	 -1.428255	 -2.783620	 0.271002
H	 -0.326162	 -2.402213	 1.558449
C	 -2.905882	 -1.560045	 2.213553
H	 -2.396583	 -0.478716	 0.431382
H	 -1.356444	 -0.148092	 1.785337
C	 -3.905091	 -0.543378	 2.755642
H	 -3.442177	 -2.351438	 1.697160
H	 -2.389466	 -2.034763	 3.043625
H	 -4.461063	 -0.073683	 1.950956
H	 -4.620559	 -1.012019	 3.421666
H	 -3.402760	 0.242201	 3.310512

	symmetry c1
}
set optking {
	frozen_dihedral = ("
		14 10 7 4
	")
}

ee = optimize('scf')
oeprop('DIPOLE', 'QUADRUPOLE', 'MULLIKEN_CHARGES')
f=open( 'psi4out.xyz', 'w' )
f.write( "27  " )
f.write( str(ee) + "\n" )
f.write( MOL.save_string_xyz() )
f.close()
--------------------------------------------------------------------------

    Molecular point group: c1
  Charge       = 0
  Multiplicity = 1
  Basis Set: CC-PVTZ
  Basis Set:
  @DF-RHF Final Energy:  -388.42370984690297
    Total Energy =                       -388.4237098469023977
    Molecular point group: c1
  Basis Set: CC-PVTZ
  Basis Set:
  Basis Set: CC-PVTZ
  Basis Set:
  @DF-RHF Final Energy:  -388.42403583441939
    Total Energy =                       -388.4240358344189872
  Basis Set: CC-PVTZ
  Basis Set:
  Basis Set: CC-PVTZ
  Basis Set:
  @DF-RHF Final Energy:  -388.42405688136307
    Total Energy =                       -388.4240568813632990
  Basis Set: CC-PVTZ
  Basis Set:
  Basis Set: CC-PVTZ
  Basis Set:
  @DF-RHF Final Energy:  -388.42412671130660
    Total Energy =                       -388.4241267113064850
  Basis Set: CC-PVTZ
  Basis Set:
  Basis Set: CC-PVTZ
  Basis Set:
  @DF-RHF Final Energy:  -388.42413230641910
    Total Energy =                       -388.4241323064190965
  Basis Set: CC-PVTZ
  Basis Set:
  Charge       = 0
  Multiplicity = 1
  Basis Set: CC-PVTZ
  Basis Set:

    Orbital Energies (a.u.)
    -----------------------

    Doubly Occupied:

       1A    -20.545280     2A    -11.264896     3A    -11.217302
       4A    -11.214522     5A    -11.214179     6A    -11.213771
       7A    -11.213330     8A    -11.212149     9A    -11.207666
      10A     -1.363215    11A     -1.095906    12A     -1.061974
      13A     -1.012751    14A     -0.948407    15A     -0.888939
      16A     -0.821534    17A     -0.803153    18A     -0.777200
      19A     -0.695597    20A     -0.657127    21A     -0.635509
      22A     -0.616553    23A     -0.595888    24A     -0.588948
      25A     -0.581059    26A     -0.550937    27A     -0.546346
      28A     -0.531097    29A     -0.504590    30A     -0.498450
      31A     -0.485435    32A     -0.474753    33A     -0.466647
      34A     -0.459299    35A     -0.453856    36A     -0.442671
      37A     -0.425396

  @DF-RHF Final Energy:  -388.42413264370532

   => Energetics <=

    Nuclear Repulsion Energy =            459.6768218148544065
    One-Electron Energy =               -1437.6292551224300951
    Two-Electron Energy =                 589.5283006638700272
    DFT Exchange-Correlation Energy =       0.0000000000000000
    Empirical Dispersion Energy =           0.0000000000000000
    PCM Polarization Energy =               0.0000000000000000
    EFP Energy =                            0.0000000000000000
    Total Energy =                       -388.4241326437056614
    Molecular point group: c1
  Basis Set: CC-PVTZ
  Basis Set:

  -Total Gradient:
     Atom            X                  Y                   Z
    ------   -----------------  -----------------  -----------------
       1        0.000013234910    -0.000006564531     0.000003184651
       2        0.000011195506     0.000000433781    -0.000025081809
       3       -0.000018196235     0.000007567907     0.000049596638
       4        0.000504170225    -0.001654552769     0.002006081064
       5       -0.000002698061     0.000009062365    -0.000000038267
       6        0.000009024179    -0.000004300033     0.000004148587
       7       -0.001310561084     0.002583127417    -0.002247637692
       8       -0.000014991620     0.000000799641    -0.000002262063
       9        0.000001360632    -0.000003013617    -0.000007109785
      10        0.003345982292    -0.002035181371    -0.002123324273
      11        0.000005586295    -0.000007934546    -0.000007042307
      12        0.000004214548     0.000005913670    -0.000001400027
      13        0.000006447165     0.000008398390    -0.000026505927
      14       -0.002550126026     0.001096144383     0.002409680995
      15        0.000005351657    -0.000011901570    -0.000004791979
      16       -0.000022888304     0.000009342380    -0.000021859123
      17       -0.000000396442     0.000006067682    -0.000013577453
      18        0.000007853572    -0.000005128077    -0.000011117588
      19        0.000019764018     0.000006343183     0.000019895635
      20       -0.000010620119     0.000000037029    -0.000004188746
      21       -0.000007879647    -0.000003691744    -0.000004222454
      22        0.000001997524    -0.000000729786     0.000000023638
      23        0.000002264710     0.000010716007    -0.000000548000
      24       -0.000000333395    -0.000010367305     0.000008540092
      25        0.000001683609     0.000002062833    -0.000000850285
      26       -0.000001042447    -0.000000747726    -0.000001529177
      27       -0.000000397463    -0.000001903585     0.000001935649

  **** Optimization is complete! (in 6 steps) ****
    Final optimized geometry and variables:
    Molecular point group: c1

    Geometry (in Angstrom), charge = 0, multiplicity = 1:

    H            2.390507405822     2.595256040301    -0.425753773192
    O            3.149853472891     2.249326045992    -0.856192598412
    C            3.378672600983     0.926033187678    -0.449413218484
    C            2.371531594653    -0.064638920539    -1.013354348822
    H            4.369602875920     0.675726820760    -0.803519253892
    H            3.398932037463     0.860780225649     0.636871405481
    C            0.946434756233     0.124050791430    -0.496349190740
    H            2.385056888233     0.008339018122    -2.097020197026
    H            2.708012183898    -1.067002760462    -0.760511466685
    C           -0.049236717371    -0.895294984406    -1.080740443315
    H            0.604177046603     1.131305434455    -0.707923571371
    H            0.965372094544     0.029077570229     0.586892625782
    C           -1.056026286234    -1.444229534297    -0.067186576184
    H           -0.609419531974    -0.433869299207    -1.888589826955
    H            0.496256395057    -1.727963055325    -1.511132380941
    C           -2.032625562547    -0.402843038424     0.474934333940
    H           -1.623441414041    -2.242535540035    -0.537810714684
    H           -0.518412636915    -1.901143073155     0.760694052924
    C           -3.036938979730    -0.978879353126     1.469475228263
    H           -2.570829502249     0.046543344810    -0.356881738383
    H           -1.485500682513     0.404642549250     0.953565025193
    C           -4.016192553650     0.060742342403     2.004288821200
    H           -3.590863213879    -1.783782443761     0.994184482615
    H           -2.500645503196    -1.428918000467     2.300568179690
    H           -4.592541941024     0.505760044736     1.199944177632
    H           -4.714690992770    -0.381182880209     2.705577258666
    H           -3.495034235345     0.862004654435     2.517806372794

  Mulliken Charges: (a.u.)
   Center  Symbol    Alpha    Beta     Spin     Total
       1     H     0.39262  0.39262  0.00000  0.21476
       2     O     4.20541  4.20541  0.00000 -0.41082
       3     C     2.98007  2.98007  0.00000  0.03986
       4     C     3.08868  3.08868  0.00000 -0.17736
       5     H     0.44860  0.44860  0.00000  0.10280
       6     H     0.46997  0.46997  0.00000  0.06005
       7     C     3.10815  3.10815  0.00000 -0.21629
       8     H     0.45021  0.45021  0.00000  0.09957
       9     H     0.45568  0.45568  0.00000  0.08864
      10     C     3.10127  3.10127  0.00000 -0.20254
      11     H     0.45253  0.45253  0.00000  0.09495
      12     H     0.45335  0.45335  0.00000  0.09330
      13     C     3.09754  3.09754  0.00000 -0.19507
      14     H     0.44997  0.44997  0.00000  0.10007
      15     H     0.44662  0.44662  0.00000  0.10677
      16     C     3.08635  3.08635  0.00000 -0.17271
      17     H     0.44823  0.44823  0.00000  0.10354
      18     H     0.45468  0.45468  0.00000  0.09063
      19     C     3.08464  3.08464  0.00000 -0.16929
      20     H     0.45460  0.45460  0.00000  0.09080
      21     H     0.45395  0.45395  0.00000  0.09210
      22     C     3.14973  3.14973  0.00000 -0.29946
      23     H     0.45358  0.45358  0.00000  0.09285
      24     H     0.45463  0.45463  0.00000  0.09075
      25     H     0.45503  0.45503  0.00000  0.08995
      26     H     0.44824  0.44824  0.00000  0.10353
      27     H     0.45568  0.45568  0.00000  0.08864

   Total alpha = 37.00000, Total beta = 37.00000, Total charge = -0.00000
