                              Psi4 1.0.54 Driver

  ==> Input File <==

--------------------------------------------------------------------------
set {
	reference rhf
	basis cc-pvtz
}

set_num_threads( 4 )
memory 2 gb

molecule MOL {
0 1

O	 0.749630	 1.305591	 -0.000460
C	 0.576499	 0.134701	 -0.003900
C	 -0.765656	 -0.550508	 -0.002152
O	 1.564816	 -0.744612	 -0.000631
C	 -1.945526	 0.411052	 0.000603
H	 -0.794329	 -1.203792	 -0.868145
H	 -0.791555	 -1.205429	 0.862701
C	 -3.282915	 -0.321280	 0.002596
H	 -1.880300	 1.059126	 -0.864925
H	 -1.877207	 1.057892	 0.866807
H	 -3.388495	 -0.952755	 -0.873419
H	 -4.107811	 0.380864	 0.004116
H	 -3.385717	 -0.953283	 0.878571
C	 2.461294	 -0.709241	 1.091654
H	 2.956123	 0.248919	 1.147573
H	 3.181503	 -1.490296	 0.910155
H	 1.939271	 -0.891289	 2.019228

	symmetry c1
}
set optking {
	frozen_dihedral = ("
		14 4 2 1
	")
}

ee,wfn = optimize('scf', return_wfn=True)
oeprop( wfn, 'DIPOLE', 'QUADRUPOLE', 'MULLIKEN_CHARGES')
f=open( 'psi4out.xyz', 'w' )
f.write( "17  " )
f.write( str(ee) + "\n" )
f.write( MOL.save_string_xyz() )
f.close()
--------------------------------------------------------------------------

    Molecular point group: c1
  Charge       = 0
  Multiplicity = 1
  Basis Set: CC-PVTZ
  Basis Set:
  @DF-RHF Final Energy:  -345.02077159598474
    Total Energy =                       -345.0207715959846269
    Molecular point group: c1
  Basis Set: CC-PVTZ
  Basis Set:
  Basis Set: CC-PVTZ
  Basis Set:
  @DF-RHF Final Energy:  -344.93718432119380
    Total Energy =                       -344.9371843211937403
  Basis Set: CC-PVTZ
  Basis Set:
  Basis Set: CC-PVTZ
  Basis Set:
  @DF-RHF Final Energy:  -345.01027792238659
    Total Energy =                       -345.0102779223867060
  Basis Set: CC-PVTZ
  Basis Set:
  Basis Set: CC-PVTZ
  Basis Set:
  @DF-RHF Final Energy:  -345.02013227501294
    Total Energy =                       -345.0201322750131112
  Basis Set: CC-PVTZ
  Basis Set:
  @DF-RHF Final Energy:  -345.01479690739001
    Total Energy =                       -345.0147969073898366
  @DF-RHF Final Energy:  -345.02112563584183
    Total Energy =                       -345.0211256358421679
  Basis Set: CC-PVTZ
  Basis Set:
  @DF-RHF Final Energy:  -345.02185526896324
    Total Energy =                       -345.0218552689632361
  Basis Set: CC-PVTZ
  Basis Set:
  Basis Set: CC-PVTZ
  Basis Set:
  @DF-RHF Final Energy:  -345.02188127461392
    Total Energy =                       -345.0218812746136337
  Basis Set: CC-PVTZ
  Basis Set:
  Basis Set: CC-PVTZ
  Basis Set:
  @DF-RHF Final Energy:  -345.02188289420383
    Total Energy =                       -345.0218828942039409
  Basis Set: CC-PVTZ
  Basis Set:
  Charge       = 0
  Multiplicity = 1
  Basis Set: CC-PVTZ
  Basis Set:

    Orbital Energies (a.u.)
    -----------------------

    Doubly Occupied:

       1A    -20.582466     2A    -20.542730     3A    -11.367438
       4A    -11.284653     5A    -11.236565     6A    -11.221624
       7A    -11.214143     8A     -1.464049     9A     -1.368458
      10A     -1.082126    11A     -0.996679    12A     -0.945831
      13A     -0.831950    14A     -0.766655    15A     -0.701734
      16A     -0.680825    17A     -0.675990    18A     -0.635461
      19A     -0.611763    20A     -0.578600    21A     -0.566752
      22A     -0.534417    23A     -0.521836    24A     -0.500030
      25A     -0.491048    26A     -0.480821    27A     -0.456830
      28A     -0.438307

  @DF-RHF Final Energy:  -345.02188305078022

   => Energetics <=

    Nuclear Repulsion Energy =            312.4388162037516281
    One-Electron Energy =               -1089.3618390731412546
    Two-Electron Energy =                 431.9011398186091810
    DFT Exchange-Correlation Energy =       0.0000000000000000
    Empirical Dispersion Energy =           0.0000000000000000
    PCM Polarization Energy =               0.0000000000000000
    EFP Energy =                            0.0000000000000000
    Total Energy =                       -345.0218830507803887
    Molecular point group: c1
  Basis Set: CC-PVTZ
  Basis Set:

  -Total Gradient:
     Atom            X                  Y                   Z
    ------   -----------------  -----------------  -----------------
       1        0.000858187207     0.001206701493    -0.008391823932
       2       -0.002780997243    -0.004377332278     0.013486637351
       3       -0.000008412223     0.000015542257    -0.000021682428
       4        0.005059593028     0.008628773585    -0.007433480670
       5        0.000001373881    -0.000009526632     0.000005362405
       6        0.000002099401    -0.000012513891    -0.000006078822
       7        0.000001120710    -0.000008634045     0.000000124628
       8        0.000006177659     0.000008379881     0.000001472979
       9       -0.000007696069     0.000007315032    -0.000002746684
      10       -0.000003519114     0.000001333300     0.000001648702
      11        0.000003001393    -0.000004144580    -0.000000798597
      12        0.000006350466     0.000001183518    -0.000000963596
      13       -0.000000721538     0.000001915446     0.000001239466
      14       -0.003126114418    -0.005456196607     0.002357975452
      15       -0.000004336660    -0.000013220811    -0.000010861752
      16       -0.000006217521     0.000010925153     0.000010280913
      17        0.000000111040    -0.000000500820     0.000003694584

  **** Optimization is complete! (in 10 steps) ****
    Final optimized geometry and variables:
    Molecular point group: c1

    Geometry (in Angstrom), charge = 0, multiplicity = 1:

    O            0.512453905215     1.493288592956     0.197913244992
    C            0.577968392316     0.326819501018     0.042386758362
    C           -0.578074188665    -0.568788780695    -0.313897739776
    O            1.743490878823    -0.340302702825     0.069676092079
    C           -1.899807338020     0.161201807349    -0.501711409755
    H           -0.292587996146    -1.111011966529    -1.209637488777
    H           -0.651367979815    -1.319691585659     0.468580047438
    C           -3.036755989938    -0.788956155616    -0.861525595623
    H           -1.785412484261     0.910286230632    -1.276093536741
    H           -2.142383239402     0.701107146594     0.405700308659
    H           -2.830829426365    -1.318672384528    -1.785786089466
    H           -3.966045197037    -0.247729972999    -0.991729998828
    H           -3.192752724759    -1.530323846873    -0.084605588624
    C            2.497874383632    -0.271113296589     1.261303542322
    H            2.704718884189     0.754840189868     1.529360747195
    H            3.422276176413    -0.792558049373     1.073259766332
    H            1.969214337621    -0.761218722319     2.070653891884

  Mulliken Charges: (a.u.)
   Center  Symbol    Alpha    Beta     Spin     Total
       1     O     4.17825  4.17825  0.00000 -0.35651
       2     C     2.79581  2.79581  0.00000  0.40838
       3     C     3.10174  3.10174  0.00000 -0.20349
       4     O     4.16511  4.16511  0.00000 -0.33021
       5     C     3.08008  3.08008  0.00000 -0.16015
       6     H     0.43778  0.43778  0.00000  0.12445
       7     H     0.44550  0.44550  0.00000  0.10899
       8     C     3.15060  3.15060  0.00000 -0.30119
       9     H     0.44593  0.44593  0.00000  0.10813
      10     H     0.44692  0.44692  0.00000  0.10615
      11     H     0.45529  0.45529  0.00000  0.08943
      12     H     0.44536  0.44536  0.00000  0.10928
      13     H     0.45625  0.45625  0.00000  0.08750
      14     C     3.03596  3.03596  0.00000 -0.07192
      15     H     0.44788  0.44788  0.00000  0.10425
      16     H     0.44538  0.44538  0.00000  0.10925
      17     H     0.46616  0.46616  0.00000  0.06767

   Total alpha = 28.00000, Total beta = 28.00000, Total charge =  0.00000

*** Psi4 exiting successfully. Buy a developer a beer!
