  ==> Input File <==

--------------------------------------------------------------------------
set {
	reference rhf
	basis 6-31G*
}

set_num_threads( 4 )
memory 2 gb

molecule MOL {
0 1

H	 -0.490617	 -1.640443	 0.149310
N	 -0.626943	 -0.667432	 -0.000092
C	 -1.979713	 -0.158776	 0.000050
C	 0.463526	 0.113824	 -0.191622
H	 -2.520245	 -0.492427	 -0.879443
H	 -1.934741	 0.918111	 -0.004428
H	 -2.517790	 -0.485056	 0.883818
C	 1.784362	 -0.628355	 -0.152281
O	 0.399697	 1.297551	 -0.378517
H	 1.818577	 -1.389977	 -0.925014
H	 2.586194	 0.077125	 -0.310580
H	 1.920677	 -1.117634	 0.807073

	symmetry c1
}
set optking {
	frozen_dihedral = ("
		4 2 3 5
	")
}

ee = optimize('scf')
oeprop('DIPOLE', 'QUADRUPOLE', 'MULLIKEN_CHARGES')
f=open( 'psi4out.xyz', 'w' )
f.write( "12  " )
f.write( str(ee) + "\n" )
f.write( MOL.save_string_xyz() )
f.close()
--------------------------------------------------------------------------

    Molecular point group: c1
  Charge       = 0
  Multiplicity = 1
  Basis Set: 6-31G*
  Basis Set:
  @DF-RHF Final Energy:  -247.00545081492891
    Total Energy =                       -247.0054508149289632
    Molecular point group: c1
  Basis Set: 6-31G*
  Basis Set:
  Basis Set: 6-31G*
  Basis Set:
  @DF-RHF Final Energy:  -247.00547627515732
    Total Energy =                       -247.0054762751573207
  Basis Set: 6-31G*
  Basis Set:
  Basis Set: 6-31G*
  Basis Set:
  @DF-RHF Final Energy:  -247.00548020054862
    Total Energy =                       -247.0054802005485612
  Basis Set: 6-31G*
  Basis Set:
  Basis Set: 6-31G*
  Basis Set:
  @DF-RHF Final Energy:  -247.00548659630175
    Total Energy =                       -247.0054865963017505
  Basis Set: 6-31G*
  Basis Set:
  Basis Set: 6-31G*
  Basis Set:
  @DF-RHF Final Energy:  -247.00548976750429
    Total Energy =                       -247.0054897675042866
  Basis Set: 6-31G*
  Basis Set:
  Charge       = 0
  Multiplicity = 1
  Basis Set: 6-31G*
  Basis Set:

    Orbital Energies (a.u.)
    -----------------------

    Doubly Occupied:

       1A    -20.515930     2A    -15.581252     3A    -11.343138
       4A    -11.253714     5A    -11.229684     6A     -1.384181
       7A     -1.228035     8A     -1.015702     9A     -0.931553
      10A     -0.786395    11A     -0.689183    12A     -0.648040
      13A     -0.632176    14A     -0.585858    15A     -0.579690
      16A     -0.554629    17A     -0.544090    18A     -0.507492
      19A     -0.412906    20A     -0.384172

  @DF-RHF Final Energy:  -247.00549025540261

   => Energetics <=

    Nuclear Repulsion Energy =            181.2707941908454359
    One-Electron Energy =                -694.9369269337341848
    Two-Electron Energy =                 266.6606424874861432
    DFT Exchange-Correlation Energy =       0.0000000000000000
    Empirical Dispersion Energy =           0.0000000000000000
    PCM Polarization Energy =               0.0000000000000000
    EFP Energy =                            0.0000000000000000
    Total Energy =                       -247.0054902554026057
    Molecular point group: c1
  Basis Set: 6-31G*
  Basis Set:

  -Total Gradient:
     Atom            X                  Y                   Z
    ------   -----------------  -----------------  -----------------
       1        0.000001842851    -0.000010363584    -0.000007194042
       2       -0.000012418915    -0.000041775431    -0.000110005616
       3        0.000038999190     0.000117472692    -0.000028550404
       4       -0.000006314979     0.000001265169     0.000070515003
       5       -0.000025530825    -0.000088800622     0.000046939583
       6        0.000000621726    -0.000002467491     0.000003113085
       7        0.000000946838     0.000003406323     0.000008017761
       8       -0.000009301429    -0.000002418794    -0.000045150745
       9        0.000013828642     0.000019185041     0.000033148802
      10        0.000010776903    -0.000016246784     0.000019795675
      11       -0.000001310496     0.000001534318    -0.000003992108
      12       -0.000012139509     0.000019209161     0.000013363005

  **** Optimization is complete! (in 6 steps) ****
    Final optimized geometry and variables:
    Molecular point group: c1

    Geometry (in Angstrom), charge = 0, multiplicity = 1:

    H           -0.487893014137    -1.631997683281     0.275140546551
    N           -0.621634915983    -0.654200405316     0.158106222780
    C           -1.974889070875    -0.147135785294     0.137490184891
    C            0.467840653987     0.124999774519    -0.047311789351
    H           -2.517249639424    -0.499546525115    -0.734164815944
    H           -1.932374706407     0.929544863896     0.109571817810
    H           -2.509957077610    -0.456761129486     1.028340282507
    C            1.788629404798    -0.617536317930    -0.014708543074
    O            0.402870448278     1.308295976056    -0.236359693224
    H            1.824308483032    -1.367929830989    -0.798425345015
    H            2.590770255175     0.089895271171    -0.162260655953
    H            1.923026007382    -1.120653104468     0.937608180510

  Mulliken Charges: (a.u.)
   Center  Symbol    Alpha    Beta     Spin     Total
       1     H     0.31107  0.31107  0.00000  0.37786
       2     N     3.89149  3.89149  0.00000 -0.78297
       3     C     3.14204  3.14204  0.00000 -0.28408
       4     C     2.63070  2.63070  0.00000  0.73861
       5     H     0.41665  0.41665  0.00000  0.16671
       6     H     0.38608  0.38608  0.00000  0.22783
       7     H     0.41670  0.41670  0.00000  0.16660
       8     C     3.29525  3.29525  0.00000 -0.59050
       9     O     4.30240  4.30240  0.00000 -0.60480
      10     H     0.40794  0.40794  0.00000  0.18413
      11     H     0.39184  0.39184  0.00000  0.21632
      12     H     0.40785  0.40785  0.00000  0.18430

   Total alpha = 20.00000, Total beta = 20.00000, Total charge = -0.00000
