                              Psi4 1.0.54 Driver

  ==> Input File <==

--------------------------------------------------------------------------
set {
	reference rhf
	basis cc-pvtz
}

set_num_threads( 4 )
memory 2 gb

molecule MOL {
0 1

H	 2.746456	 0.092353	 0.886453
N	 2.326826	 -0.066186	 0.000000
C	 0.934676	 -0.005420	 0.000000
H	 2.763278	 0.477763	 -0.707567
C	 0.226436	 -0.001077	 -1.195129
C	 0.226436	 -0.001077	 1.195129
H	 0.759091	 -0.011439	 -2.128123
C	 -1.153391	 0.009141	 -1.189028
H	 0.759091	 -0.011439	 2.128123
C	 -1.153391	 0.009141	 1.189028
H	 -1.680905	 0.012964	 -2.124348
C	 -1.857876	 0.014675	 0.000000
H	 -1.680905	 0.012964	 2.124348
H	 -2.930222	 0.022904	 0.000000

	symmetry c1
}
set optking {
	frozen_dihedral = ("
		1 2 3 5
	")
}

ee,wfn = optimize('scf', return_wfn=True)
oeprop( wfn, 'DIPOLE', 'QUADRUPOLE', 'MULLIKEN_CHARGES')
f=open( 'psi4out.xyz', 'w' )
f.write( "14  " )
f.write( str(ee) + "\n" )
f.write( MOL.save_string_xyz() )
f.close()
--------------------------------------------------------------------------

    Molecular point group: c1
  Charge       = 0
  Multiplicity = 1
  Basis Set: CC-PVTZ
  Basis Set:
  @DF-RHF Final Energy:  -285.83326414167254
    Total Energy =                       -285.8332641416724300
    Molecular point group: c1
  Basis Set: CC-PVTZ
  Basis Set:
  Basis Set: CC-PVTZ
  Basis Set:
  @DF-RHF Final Energy:  -285.83332484992411
    Total Energy =                       -285.8333248499242245
  Basis Set: CC-PVTZ
  Basis Set:
  Basis Set: CC-PVTZ
  Basis Set:
  @DF-RHF Final Energy:  -285.83334169246245
    Total Energy =                       -285.8333416924624544
  Basis Set: CC-PVTZ
  Basis Set:
  Basis Set: CC-PVTZ
  Basis Set:
  @DF-RHF Final Energy:  -285.83334577918191
    Total Energy =                       -285.8333457791818546
  Basis Set: CC-PVTZ
  Basis Set:
  Charge       = 0
  Multiplicity = 1
  Basis Set: CC-PVTZ
  Basis Set:

    Orbital Energies (a.u.)
    -----------------------

    Doubly Occupied:

       1A    -15.555172     2A    -11.270687     3A    -11.226924
       4A    -11.226779     5A    -11.215644     6A    -11.215010
       7A    -11.210960     8A     -1.226259     9A     -1.130278
      10A     -1.013185    11A     -0.987763    12A     -0.832567
      13A     -0.813546    14A     -0.708245    15A     -0.688802
      16A     -0.654786    17A     -0.600092    18A     -0.595337
      19A     -0.581687    20A     -0.532703    21A     -0.506357
      22A     -0.487344    23A     -0.447153    24A     -0.335979
      25A     -0.294393

  @DF-RHF Final Energy:  -285.83334653507166

   => Energetics <=

    Nuclear Repulsion Energy =            273.7302879309319223
    One-Electron Energy =                -928.4119679843988706
    Two-Electron Energy =                 368.8483335183954068
    DFT Exchange-Correlation Energy =       0.0000000000000000
    Empirical Dispersion Energy =           0.0000000000000000
    PCM Polarization Energy =               0.0000000000000000
    EFP Energy =                            0.0000000000000000
    Total Energy =                       -285.8333465350715414
    Molecular point group: c1
  Basis Set: CC-PVTZ
  Basis Set:

  -Total Gradient:
     Atom            X                  Y                   Z
    ------   -----------------  -----------------  -----------------
       1       -0.000102190970    -0.001880999555     0.000372983347
       2        0.000189437847     0.001706503407    -0.000499414920
       3       -0.000046201334     0.001612417333     0.000173657195
       4       -0.000016464765     0.000006786315    -0.000001655916
       5       -0.000091240132    -0.001439544355    -0.000014131757
       6        0.000109493914    -0.000015898829    -0.000052562550
       7        0.000013143038    -0.000005978644     0.000008861894
       8        0.000047517818     0.000017677570    -0.000042823055
       9       -0.000013657245    -0.000002756189    -0.000002839072
      10       -0.000092423195     0.000033542874    -0.000034107454
      11       -0.000002065656    -0.000001239563     0.000008207462
      12        0.000018221728    -0.000023712671     0.000078219066
      13       -0.000008981329    -0.000003737647    -0.000002960600
      14       -0.000004589722    -0.000003060047     0.000008566362

  **** Optimization is complete! (in 5 steps) ****
    Final optimized geometry and variables:
    Molecular point group: c1

    Geometry (in Angstrom), charge = 0, multiplicity = 1:

    H            2.757509252085     0.100046448074     0.875492873696
    N            2.326179931960    -0.060906025760    -0.003951298495
    C            0.934738657724     0.002165467708     0.003134890286
    H            2.769678286665     0.441537469276    -0.736670401261
    C            0.228868250895     0.001411520259    -1.194794699552
    C            0.223762188577    -0.001382157844     1.195380881555
    H            0.765719647419    -0.015224403190    -2.125018676310
    C           -1.149741709236     0.013303926797    -1.192163481193
    H            0.752872092572    -0.006253577113     2.130528794373
    C           -1.157433818023    -0.000768492224     1.186042321281
    H           -1.675353645994     0.016913455563    -2.128544951946
    C           -1.857902288229     0.010351599616    -0.003820931603
    H           -1.687198132469    -0.004182491852     2.120091428393
    H           -2.930284420208     0.014767293169    -0.006905731476

  Mulliken Charges: (a.u.)
   Center  Symbol    Alpha    Beta     Spin     Total
       1     H     0.42310  0.42310  0.00000  0.15381
       2     N     3.67208  3.67208  0.00000 -0.34416
       3     C     2.88641  2.88641  0.00000  0.22719
       4     H     0.41897  0.41897  0.00000  0.16206
       5     C     3.11636  3.11636  0.00000 -0.23272
       6     C     3.11960  3.11960  0.00000 -0.23920
       7     H     0.43221  0.43221  0.00000  0.13559
       8     C     3.05808  3.05808  0.00000 -0.11617
       9     H     0.43532  0.43532  0.00000  0.12936
      10     C     3.05834  3.05834  0.00000 -0.11668
      11     H     0.42473  0.42473  0.00000  0.15053
      12     C     3.10458  3.10458  0.00000 -0.20917
      13     H     0.42482  0.42482  0.00000  0.15036
      14     H     0.42540  0.42540  0.00000  0.14921

   Total alpha = 25.00000, Total beta = 25.00000, Total charge = -0.00000

*** Psi4 exiting successfully. Buy a developer a beer!
