  ==> Input File <==

--------------------------------------------------------------------------
set {
	reference rhf
	basis cc-pvtz
}

set_num_threads( 4 )
memory 2 gb

molecule MOL {
0 1

H	 2.107238	 1.460703	 -2.207090
C	 1.879627	 0.938428	 -1.283939
C	 0.382700	 0.679137	 -1.181566
H	 2.212368	 1.547872	 -0.452807
H	 2.456386	 0.021899	 -1.276346
N	 0.000297	 0.000045	 0.046090
H	 -0.125190	 1.633045	 -1.216558
H	 0.041269	 0.122584	 -2.058837
C	 -1.359159	 0.315706	 0.454404
C	 0.243178	 -1.432439	 -0.013277
C	 -2.416729	 -0.286720	 -0.460525
H	 -1.478729	 1.390261	 0.442008
H	 -1.539692	 0.003361	 1.486761
C	 0.507426	 -2.054217	 1.351275
H	 1.111114	 -1.606464	 -0.634133
H	 -0.586981	 -1.949613	 -0.502438
H	 -2.285276	 0.073129	 -1.473515
H	 -2.371743	 -1.368476	 -0.483209
H	 -3.408658	 -0.007405	 -0.121593
H	 1.371992	 -1.592993	 1.812475
H	 -0.331869	 -1.936384	 2.025423
H	 0.697750	 -3.117221	 1.248262

	symmetry c1
}
set optking {
	frozen_dihedral = ("
		3 6 9 11
	")
}

ee = optimize('scf')
oeprop('DIPOLE', 'QUADRUPOLE', 'MULLIKEN_CHARGES')
f=open( 'psi4out.xyz', 'w' )
f.write( "22  " )
f.write( str(ee) + "\n" )
f.write( MOL.save_string_xyz() )
f.close()
--------------------------------------------------------------------------

    Molecular point group: c1
  Charge       = 0
  Multiplicity = 1
  Basis Set: CC-PVTZ
  Basis Set:
  @DF-RHF Final Energy:  -290.47049003743990
    Total Energy =                       -290.4704900374402996
    Molecular point group: c1
  Basis Set: CC-PVTZ
  Basis Set:
  Basis Set: CC-PVTZ
  Basis Set:
  @DF-RHF Final Energy:  -290.47202667198474
    Total Energy =                       -290.4720266719847359
  Basis Set: CC-PVTZ
  Basis Set:
  Basis Set: CC-PVTZ
  Basis Set:
  @DF-RHF Final Energy:  -290.47438349662701
    Total Energy =                       -290.4743834966269560
  Basis Set: CC-PVTZ
  Basis Set:
  Basis Set: CC-PVTZ
  Basis Set:
  @DF-RHF Final Energy:  -290.47473637019118
    Total Energy =                       -290.4747363701907261
  Basis Set: CC-PVTZ
  Basis Set:
  @DF-RHF Final Energy:  -290.47489590943894
    Total Energy =                       -290.4748959094387715
  Basis Set: CC-PVTZ
  Basis Set:
  @DF-RHF Final Energy:  -290.47498967019800
    Total Energy =                       -290.4749896701980560
  Basis Set: CC-PVTZ
  Basis Set:
  Basis Set: CC-PVTZ
  Basis Set:
  @DF-RHF Final Energy:  -290.47500325130198
    Total Energy =                       -290.4750032513017572
  Basis Set: CC-PVTZ
  Basis Set:
  Basis Set: CC-PVTZ
  Basis Set:
  @DF-RHF Final Energy:  -290.47500596993513
    Total Energy =                       -290.4750059699348412
  Basis Set: CC-PVTZ
  Basis Set:
  Charge       = 0
  Multiplicity = 1
  Basis Set: CC-PVTZ
  Basis Set:

    Orbital Energies (a.u.)
    -----------------------

    Doubly Occupied:

       1A    -15.530602     2A    -11.238227     3A    -11.237513
       4A    -11.237459     5A    -11.204815     6A    -11.204760
       7A    -11.202440     8A     -1.223558     9A     -1.025202
      10A     -1.020868    11A     -0.956969    12A     -0.863579
      13A     -0.842807    14A     -0.758022    15A     -0.660181
      16A     -0.644725    17A     -0.617823    18A     -0.597149
      19A     -0.570842    20A     -0.551470    21A     -0.544141
      22A     -0.522458    23A     -0.515495    24A     -0.505830
      25A     -0.493611    26A     -0.481402    27A     -0.468542
      28A     -0.460067    29A     -0.337119

  @DF-RHF Final Energy:  -290.47500680147158

   => Energetics <=

    Nuclear Repulsion Energy =            339.2544329216464689
    One-Electron Energy =               -1064.4235347000003458
    Two-Electron Energy =                 434.6940949768825249
    DFT Exchange-Correlation Energy =       0.0000000000000000
    Empirical Dispersion Energy =           0.0000000000000000
    PCM Polarization Energy =               0.0000000000000000
    EFP Energy =                            0.0000000000000000
    Total Energy =                       -290.4750068014714088
    Molecular point group: c1
  Basis Set: CC-PVTZ
  Basis Set:

  -Total Gradient:
     Atom            X                  Y                   Z
    ------   -----------------  -----------------  -----------------
       1        0.000006640427     0.000003620601     0.000003844102
       2       -0.000004252976     0.000001319911    -0.000008081359
       3        0.000224214880     0.000435247157     0.000197753302
       4       -0.000003835095    -0.000000881024     0.000002336912
       5       -0.000006358395    -0.000002588332     0.000011072823
       6       -0.000296303073    -0.000795132516    -0.000204520183
       7       -0.000008867167    -0.000004793478    -0.000000954217
       8        0.000003084828     0.000002502786     0.000029263952
       9        0.000059929799     0.000770220394    -0.000338342212
      10        0.000032096809    -0.000030246907    -0.000001048903
      11        0.000015047498    -0.000423570929     0.000310841114
      12       -0.000001748451     0.000008880771     0.000000293298
      13        0.000009226614    -0.000009815072     0.000000238581
      14       -0.000021926623     0.000004951632    -0.000014392137
      15        0.000005848348     0.000013046510    -0.000008036294
      16        0.000005570056    -0.000003919255     0.000013619426
      17        0.000006097722     0.000000086582     0.000005241635
      18       -0.000006033413     0.000008821790    -0.000001358589
      19       -0.000009496700     0.000006275247     0.000005302212
      20        0.000007003602    -0.000002694074    -0.000008403851
      21       -0.000013030915     0.000010849632     0.000005083849
      22       -0.000002907772     0.000007818571     0.000000246535

  **** Optimization is complete! (in 9 steps) ****
    Final optimized geometry and variables:
    Molecular point group: c1

    Geometry (in Angstrom), charge = 0, multiplicity = 1:

    H            2.194296345729     1.795560822983    -2.092847355431
    C            1.987940523286     1.261081944191    -1.171494033708
    C            0.506289069765     0.914426767892    -1.086928934085
    H            2.274825280566     1.889336996304    -0.337259373910
    H            2.617387721457     0.380217727791    -1.158781666985
    N            0.146209451116     0.246387319553     0.152198882089
    H           -0.057782305447     1.836881074455    -1.147494495221
    H            0.222173371201     0.325606921452    -1.962138091765
    C           -1.185749680368     0.573750877064     0.630184416009
    C            0.479300518651    -1.165835527993     0.149552633094
    C           -2.368632770411     0.030567522999    -0.176110417850
    H           -1.256021930781     1.654087472226     0.671234920652
    H           -1.275753213345     0.233852118253     1.653724268258
    C            0.461515397936    -1.807287395180     1.530654117001
    H            1.479903431049    -1.263236850704    -0.248668779887
    H           -0.167132562129    -1.736121434104    -0.521989330591
    H           -2.336702651480     0.360331534005    -1.208374605889
    H           -2.400524122622    -1.052265592383    -0.172931659915
    H           -3.298442655500     0.385810480195     0.254909438174
    H            1.077010619983    -1.242088034618     2.220152555335
    H           -0.537053625221    -1.873421061370     1.944073562763
    H            0.853255484008    -2.816403786855     1.469826176672

  Mulliken Charges: (a.u.)
   Center  Symbol    Alpha    Beta     Spin     Total
       1     H     0.45368  0.45368  0.00000  0.09264
       2     C     3.13920  3.13920  0.00000 -0.27840
       3     C     3.04196  3.04196  0.00000 -0.08392
       4     H     0.45231  0.45231  0.00000  0.09537
       5     H     0.45642  0.45642  0.00000  0.08716
       6     N     3.61395  3.61395  0.00000 -0.22790
       7     H     0.45265  0.45265  0.00000  0.09470
       8     H     0.46419  0.46419  0.00000  0.07163
       9     C     3.06122  3.06122  0.00000 -0.12245
      10     C     3.04382  3.04382  0.00000 -0.08763
      11     C     3.15206  3.15206  0.00000 -0.30412
      12     H     0.44853  0.44853  0.00000  0.10294
      13     H     0.44901  0.44901  0.00000  0.10198
      14     C     3.15182  3.15182  0.00000 -0.30363
      15     H     0.44820  0.44820  0.00000  0.10359
      16     H     0.46489  0.46489  0.00000  0.07023
      17     H     0.45218  0.45218  0.00000  0.09564
      18     H     0.45339  0.45339  0.00000  0.09322
      19     H     0.44744  0.44744  0.00000  0.10513
      20     H     0.44887  0.44887  0.00000  0.10226
      21     H     0.45477  0.45477  0.00000  0.09046
      22     H     0.44945  0.44945  0.00000  0.10111

   Total alpha = 29.00000, Total beta = 29.00000, Total charge = -0.00000
