                              Psi4 1.0.54 Driver

  ==> Input File <==

--------------------------------------------------------------------------
set {
	reference rhf
	basis cc-pvtz
}

set_num_threads( 4 )
memory 2 gb

molecule MOL {
0 1

O	 2.868453	 1.353349	 -0.000734
C	 2.841259	 0.166180	 -0.000295
C	 1.542794	 -0.614730	 -0.000853
C	 4.113372	 -0.651103	 0.000743
C	 0.288398	 0.247429	 0.000314
H	 1.557171	 -1.273139	 -0.866508
H	 1.557484	 -1.274998	 0.863344
C	 -0.993089	 -0.581367	 -0.000217
H	 0.305153	 0.900562	 -0.864701
H	 0.305567	 0.898805	 0.866656
C	 -2.258482	 0.271340	 0.000669
H	 -1.002280	 -1.233920	 -0.870484
H	 -1.002061	 -1.235367	 0.868958
C	 -2.422847	 1.115452	 -1.259964
H	 -2.250195	 0.923963	 0.870225
H	 -3.125695	 -0.374411	 0.115018
C	 -3.689473	 1.964793	 -1.251669
H	 -1.557003	 1.762097	 -1.374435
H	 -2.432520	 0.463826	 -2.129567
H	 -3.694039	 2.652214	 -0.412340
H	 -3.775663	 2.551056	 -2.159352
H	 -4.576018	 1.344355	 -1.173318
H	 4.145311	 -1.294584	 -0.871587
H	 4.970080	 0.004978	 -0.000091
H	 4.145223	 -1.291980	 0.874988

	symmetry c1
}
set optking {
	frozen_dihedral = ("
		15 11 8 12
	")
}

ee,wfn = optimize('scf', return_wfn=True)
oeprop( wfn, 'DIPOLE', 'QUADRUPOLE', 'MULLIKEN_CHARGES')
f=open( 'psi4out.xyz', 'w' )
f.write( "25  " )
f.write( str(ee) + "\n" )
f.write( MOL.save_string_xyz() )
f.close()
--------------------------------------------------------------------------

    Molecular point group: c1
  Charge       = 0
  Multiplicity = 1
  Basis Set: CC-PVTZ
  Basis Set:
  @DF-RHF Final Energy:  -387.27231541802746
    Total Energy =                       -387.2723154180274605
    Molecular point group: c1
  Basis Set: CC-PVTZ
  Basis Set:
  Basis Set: CC-PVTZ
  Basis Set:
  @DF-RHF Final Energy:  -387.27230414608965
    Total Energy =                       -387.2723041460899367
  Basis Set: CC-PVTZ
  Basis Set:
  Basis Set: CC-PVTZ
  Basis Set:
  @DF-RHF Final Energy:  -387.27294103187484
    Total Energy =                       -387.2729410318747796
  Basis Set: CC-PVTZ
  Basis Set:
  Basis Set: CC-PVTZ
  Basis Set:
  @DF-RHF Final Energy:  -387.27293981697920
    Total Energy =                       -387.2729398169791466
  Basis Set: CC-PVTZ
  Basis Set:
  Basis Set: CC-PVTZ
  Basis Set:
  @DF-RHF Final Energy:  -387.27269892050873
    Total Energy =                       -387.2726989205086738
  Basis Set: CC-PVTZ
  Basis Set:
  Basis Set: CC-PVTZ
  Basis Set:
  @DF-RHF Final Energy:  -387.27296793633366
    Total Energy =                       -387.2729679363335435
  Basis Set: CC-PVTZ
  Basis Set:
  Basis Set: CC-PVTZ
  Basis Set:
  @DF-RHF Final Energy:  -387.27297450844071
    Total Energy =                       -387.2729745084404840
  Basis Set: CC-PVTZ
  Basis Set:
  Charge       = 0
  Multiplicity = 1
  Basis Set: CC-PVTZ
  Basis Set:

    Orbital Energies (a.u.)
    -----------------------

    Doubly Occupied:

       1A    -20.538975     2A    -11.320583     3A    -11.230158
       4A    -11.226619     5A    -11.215445     6A    -11.214346
       7A    -11.212126     8A    -11.211440     9A    -11.205362
      10A     -1.398998    11A     -1.094961    12A     -1.056076
      13A     -1.014404    14A     -0.970063    15A     -0.889919
      16A     -0.829133    17A     -0.777548    18A     -0.732017
      19A     -0.656928    20A     -0.652004    21A     -0.637321
      22A     -0.622324    23A     -0.603191    24A     -0.581525
      25A     -0.569697    26A     -0.562631    27A     -0.548107
      28A     -0.522203    29A     -0.504001    30A     -0.498975
      31A     -0.491520    32A     -0.478447    33A     -0.460946
      34A     -0.458708    35A     -0.448249    36A     -0.401900

  @DF-RHF Final Energy:  -387.27297497580088

   => Energetics <=

    Nuclear Repulsion Energy =            445.1848296164938006
    One-Electron Energy =               -1407.2419055909924737
    Two-Electron Energy =                 574.7841009986975678
    DFT Exchange-Correlation Energy =       0.0000000000000000
    Empirical Dispersion Energy =           0.0000000000000000
    PCM Polarization Energy =               0.0000000000000000
    EFP Energy =                            0.0000000000000000
    Total Energy =                       -387.2729749758011621
    Molecular point group: c1
  Basis Set: CC-PVTZ
  Basis Set:

  -Total Gradient:
     Atom            X                  Y                   Z
    ------   -----------------  -----------------  -----------------
       1       -0.000002874491    -0.000018876897    -0.000009470722
       2       -0.000004288238     0.000018920223     0.000019717923
       3        0.000013582520     0.000008562126    -0.000026869484
       4        0.000002241623    -0.000024832436     0.000021012177
       5        0.000005731140     0.000003248761     0.000027762215
       6       -0.000002990830    -0.000002115325     0.000007745546
       7        0.000001493016     0.000010996119     0.000002632920
       8        0.000014510193     0.000032317240    -0.000052231251
       9        0.000006628248    -0.000008212895     0.000003372325
      10        0.000007228461    -0.000001032397    -0.000005568833
      11        0.000022374083     0.000057417792     0.000001603969
      12       -0.000027045000    -0.000038689828     0.000031512280
      13       -0.000005752514     0.000009219916    -0.000007602251
      14       -0.000024106051    -0.000022943755    -0.000026221324
      15       -0.000024037878    -0.000042274154     0.000036855740
      16        0.000009042600     0.000007044737    -0.000006698375
      17        0.000022755288    -0.000000937275     0.000010252937
      18       -0.000020541241    -0.000002332380     0.000005676645
      19       -0.000001181437     0.000000264378    -0.000013069754
      20       -0.000002655488    -0.000000025220     0.000005692018
      21        0.000010608174    -0.000004010319     0.000004153056
      22        0.000011620607    -0.000000599266    -0.000006657764
      23       -0.000000581873     0.000012113323     0.000002547103
      24       -0.000012423943     0.000001334611    -0.000001572281
      25        0.000000663027     0.000005442921    -0.000024574812

  **** Optimization is complete! (in 8 steps) ****
    Final optimized geometry and variables:
    Molecular point group: c1

    Geometry (in Angstrom), charge = 0, multiplicity = 1:

    O            2.679974834677     0.946849410182     0.245423082444
    C            2.624234924159    -0.238433355219     0.291237813688
    C            1.307778145206    -0.988702549986     0.291342154512
    C            3.876032941993    -1.084383327347     0.352474575467
    C            0.074625480931    -0.097467545949     0.240923477789
    H            1.322375952853    -1.673885405306    -0.553374915975
    H            1.291079424642    -1.621872584012     1.175446520791
    C           -1.222317159620    -0.904736368946     0.234914019482
    H            0.135993840240     0.532793938847    -0.636543788394
    H            0.085351975590     0.572513679829     1.093674052741
    C           -2.498295221287    -0.062069599062     0.272760030944
    H           -1.245226415880    -1.548322180564    -0.642002933365
    H           -1.225692235413    -1.568806152666     1.095485866450
    C           -2.747193486326     0.788883795948    -0.971256523313
    H           -2.476198482121     0.581591830954     1.149070794265
    H           -3.345139317930    -0.729064437909     0.410035583184
    C           -4.075835349673     1.536198730639    -0.916994558165
    H           -1.943889875994     1.506177911897    -1.098412225703
    H           -2.729805305980     0.149749071675    -1.850513525419
    H           -4.113786744348     2.203925938369    -0.062660884116
    H           -4.227163927056     2.133127773181    -1.809006733784
    H           -4.910150114001     0.847547893343    -0.833874806474
    H            3.909449514083    -1.764579530359    -0.491446357290
    H            4.748282663591    -0.449151495098     0.342047108193
    H            3.875084255107    -1.688306918644     1.253159183460

  Mulliken Charges: (a.u.)
   Center  Symbol    Alpha    Beta     Spin     Total
       1     O     4.17084  4.17084  0.00000 -0.34168
       2     C     2.86171  2.86171  0.00000  0.27659
       3     C     3.11428  3.11428  0.00000 -0.22856
       4     C     3.15124  3.15124  0.00000 -0.30248
       5     C     3.08472  3.08472  0.00000 -0.16943
       6     H     0.44522  0.44522  0.00000  0.10955
       7     H     0.44470  0.44470  0.00000  0.11060
       8     C     3.10030  3.10030  0.00000 -0.20060
       9     H     0.44407  0.44407  0.00000  0.11187
      10     H     0.44604  0.44604  0.00000  0.10791
      11     C     3.09458  3.09458  0.00000 -0.18917
      12     H     0.45465  0.45465  0.00000  0.09071
      13     H     0.44957  0.44957  0.00000  0.10086
      14     C     3.08581  3.08581  0.00000 -0.17163
      15     H     0.45335  0.45335  0.00000  0.09330
      16     H     0.44905  0.44905  0.00000  0.10190
      17     C     3.15001  3.15001  0.00000 -0.30002
      18     H     0.45030  0.45030  0.00000  0.09940
      19     H     0.45544  0.45544  0.00000  0.08912
      20     H     0.45450  0.45450  0.00000  0.09099
      21     H     0.44821  0.44821  0.00000  0.10358
      22     H     0.45525  0.45525  0.00000  0.08951
      23     H     0.45050  0.45050  0.00000  0.09900
      24     H     0.43537  0.43537  0.00000  0.12926
      25     H     0.45028  0.45028  0.00000  0.09943

   Total alpha = 36.00000, Total beta = 36.00000, Total charge =  0.00000

*** Psi4 exiting successfully. Buy a developer a beer!
