  ==> Input File <==

--------------------------------------------------------------------------
set {
	reference rhf
	basis 6-31G*
}

set_num_threads( 4 )
memory 2 gb

molecule MOL {
0 1

H	 3.276176	 0.174363	 -0.109463
N	 2.434251	 -0.367735	 -0.081097
C	 1.267428	 0.496480	 0.024474
H	 2.501951	 -0.965776	 0.720575
C	 -0.016086	 -0.325158	 -0.029487
H	 1.288818	 1.183521	 -0.816092
H	 1.267576	 1.109062	 0.929528
C	 -1.282277	 0.529072	 0.046735
H	 -0.012495	 -0.908639	 -0.945788
H	 -0.015903	 -1.041248	 0.791956
C	 -2.534467	 -0.222665	 -0.403392
H	 -1.155523	 1.417005	 -0.569297
H	 -1.422202	 0.882660	 1.066221
H	 -2.440212	 -0.559318	 -1.431741
H	 -3.416001	 0.407803	 -0.340714
H	 -2.709289	 -1.098379	 0.215303

	symmetry c1
}
set optking {
	frozen_dihedral = ("
		12 8 5 9
	")
}

ee = optimize('scf')
oeprop('DIPOLE', 'QUADRUPOLE', 'MULLIKEN_CHARGES')
f=open( 'psi4out.xyz', 'w' )
f.write( "16  " )
f.write( str(ee) + "\n" )
f.write( MOL.save_string_xyz() )
f.close()
--------------------------------------------------------------------------

    Molecular point group: c1
  Charge       = 0
  Multiplicity = 1
  Basis Set: 6-31G*
  Basis Set:
  @DF-RHF Final Energy:  -212.31607917127337
    Total Energy =                       -212.3160791712733726
    Molecular point group: c1
  Basis Set: 6-31G*
  Basis Set:
  Basis Set: 6-31G*
  Basis Set:
  @DF-RHF Final Energy:  -212.31618996398115
    Total Energy =                       -212.3161899639812304
  Basis Set: 6-31G*
  Basis Set:
  Basis Set: 6-31G*
  Basis Set:
  @DF-RHF Final Energy:  -212.31622182249123
    Total Energy =                       -212.3162218224911726
  Basis Set: 6-31G*
  Basis Set:
  Charge       = 0
  Multiplicity = 1
  Basis Set: 6-31G*
  Basis Set:

    Orbital Energies (a.u.)
    -----------------------

    Doubly Occupied:

       1A    -15.532736     2A    -11.240220     3A    -11.215037
       4A    -11.209593     5A    -11.208041     6A     -1.176888
       7A     -1.059127     8A     -0.958834     9A     -0.844199
      10A     -0.792300    11A     -0.664084    12A     -0.633756
      13A     -0.609740    14A     -0.573949    15A     -0.563296
      16A     -0.528379    17A     -0.498013    18A     -0.472165
      19A     -0.463772    20A     -0.460485    21A     -0.381239

  @DF-RHF Final Energy:  -212.31622277539915

   => Energetics <=

    Nuclear Repulsion Energy =            186.2387948189813471
    One-Electron Energy =                -654.9383286000027056
    Two-Electron Energy =                 256.3833110056221471
    DFT Exchange-Correlation Energy =       0.0000000000000000
    Empirical Dispersion Energy =           0.0000000000000000
    PCM Polarization Energy =               0.0000000000000000
    EFP Energy =                            0.0000000000000000
    Total Energy =                       -212.3162227753992397
    Molecular point group: c1
  Basis Set: 6-31G*
  Basis Set:

  -Total Gradient:
     Atom            X                  Y                   Z
    ------   -----------------  -----------------  -----------------
       1        0.000016279697    -0.000002660695    -0.000000709363
       2        0.000001006558    -0.000009843129    -0.000002412636
       3       -0.000023534031     0.000024825085    -0.000041906438
       4       -0.000000740808    -0.000002725869     0.000004357552
       5        0.001870880572     0.002958374433    -0.001054198862
       6        0.000001011286     0.000016835301     0.000001254177
       7       -0.000021770844    -0.000032470360    -0.000010647774
       8       -0.001642841352    -0.002228186909    -0.002411027305
       9       -0.001287861696    -0.002076221493     0.001323008775
      10       -0.000012416748    -0.000028274841     0.000015598038
      11        0.000005569673    -0.000002281607    -0.000014259111
      12        0.001057873134     0.001348109456     0.002162136982
      13        0.000005930329     0.000009930245     0.000017368500
      14       -0.000007143776     0.000014394576    -0.000001798786
      15        0.000011544045     0.000005236633     0.000017470252
      16        0.000026213962     0.000004959175    -0.000004234000

  **** Optimization is complete! (in 4 steps) ****
    Final optimized geometry and variables:
    Molecular point group: c1

    Geometry (in Angstrom), charge = 0, multiplicity = 1:

    H            3.275632968839     0.151650706021     0.022228343072
    N            2.431511248883    -0.387631440370     0.034982206979
    C            1.265028008326     0.480731924948     0.099093714526
    H            2.476163027235    -0.976565481743     0.844882200032
    C           -0.018446646078    -0.336400258312     0.016548478345
    H            1.311786302436     1.159749020478    -0.746762081843
    H            1.240529355517     1.102133156560     0.998036161011
    C           -1.288278862367     0.514596291075     0.108806666469
    H           -0.014680995670    -0.916361256129    -0.902052102530
    H           -0.026424504227    -1.068642230119     0.823945716758
    C           -2.549452609275    -0.241975935306    -0.302706244190
    H           -1.175678402948     1.409336192182    -0.500518925981
    H           -1.402492247965     0.873147041786     1.129988311980
    H           -2.494906572444    -0.558215919431    -1.340231026895
    H           -3.434523419327     0.376419496928    -0.189744556009
    H           -2.687294038525    -1.131340019114     0.305970198108

  Mulliken Charges: (a.u.)
   Center  Symbol    Alpha    Beta     Spin     Total
       1     H     0.33244  0.33244  0.00000  0.33512
       2     N     3.92181  3.92181  0.00000 -0.84362
       3     C     3.06085  3.06085  0.00000 -0.12169
       4     H     0.33525  0.33525  0.00000  0.32949
       5     C     3.15053  3.15053  0.00000 -0.30106
       6     H     0.42052  0.42052  0.00000  0.15897
       7     H     0.43470  0.43470  0.00000  0.13060
       8     C     3.15599  3.15599  0.00000 -0.31199
       9     H     0.41359  0.41359  0.00000  0.17283
      10     H     0.42751  0.42751  0.00000  0.14498
      11     C     3.23874  3.23874  0.00000 -0.47748
      12     H     0.42316  0.42316  0.00000  0.15369
      13     H     0.42329  0.42329  0.00000  0.15343
      14     H     0.42029  0.42029  0.00000  0.15942
      15     H     0.41975  0.41975  0.00000  0.16050
      16     H     0.42160  0.42160  0.00000  0.15681

   Total alpha = 21.00000, Total beta = 21.00000, Total charge = -0.00000
