                              Psi4 1.0.54 Driver

  ==> Input File <==

--------------------------------------------------------------------------
set {
	reference rhf
	basis cc-pvtz
}

set_num_threads( 4 )
memory 2 gb

molecule MOL {
0 1

O	 -0.694481	 1.313155	 -0.204815
C	 -0.862519	 0.151932	 -0.046791
C	 -2.171428	 -0.477048	 0.339095
O	 0.085519	 -0.757083	 -0.192238
H	 -2.467997	 -1.191667	 -0.417688
H	 -2.923379	 0.287970	 0.444097
H	 -2.053854	 -1.015120	 1.270901
C	 1.392036	 -0.330828	 -0.560749
C	 2.453624	 -1.295842	 -0.075280
H	 1.563768	 0.662146	 -0.175618
H	 1.372742	 -0.291171	 -1.639547
H	 3.426211	 -0.974774	 -0.430866
H	 2.480907	 -1.328879	 1.005251
H	 2.265348	 -2.293549	 -0.453071

	symmetry c1
}
set optking {
	frozen_dihedral = ("
		10 8 4 2
	")
}

ee,wfn = optimize('scf', return_wfn=True)
oeprop( wfn, 'DIPOLE', 'QUADRUPOLE', 'MULLIKEN_CHARGES')
f=open( 'psi4out.xyz', 'w' )
f.write( "14  " )
f.write( str(ee) + "\n" )
f.write( MOL.save_string_xyz() )
f.close()
--------------------------------------------------------------------------

    Molecular point group: c1
  Charge       = 0
  Multiplicity = 1
  Basis Set: CC-PVTZ
  Basis Set:
  @DF-RHF Final Energy:  -305.99005932267789
    Total Energy =                       -305.9900593226778938
    Molecular point group: c1
  Basis Set: CC-PVTZ
  Basis Set:
  Basis Set: CC-PVTZ
  Basis Set:
  @DF-RHF Final Energy:  -305.99093098080459
    Total Energy =                       -305.9909309808044782
  Basis Set: CC-PVTZ
  Basis Set:
  Basis Set: CC-PVTZ
  Basis Set:
  @DF-RHF Final Energy:  -305.99092869929632
    Total Energy =                       -305.9909286992963189
  Basis Set: CC-PVTZ
  Basis Set:
  Basis Set: CC-PVTZ
  Basis Set:
  @DF-RHF Final Energy:  -305.99100511786492
    Total Energy =                       -305.9910051178648018
  Basis Set: CC-PVTZ
  Basis Set:
  Basis Set: CC-PVTZ
  Basis Set:
  @DF-RHF Final Energy:  -305.99111561818142
    Total Energy =                       -305.9911156181814249
  Basis Set: CC-PVTZ
  Basis Set:
  Charge       = 0
  Multiplicity = 1
  Basis Set: CC-PVTZ
  Basis Set:

    Orbital Energies (a.u.)
    -----------------------

    Doubly Occupied:

       1A    -20.594500     2A    -20.532776     3A    -11.367688
       4A    -11.282758     5A    -11.231462     6A    -11.221186
       7A     -1.470302     8A     -1.365979     9A     -1.058921
      10A     -1.000891    11A     -0.874048    12A     -0.780896
      13A     -0.696290    14A     -0.687798    15A     -0.667609
      16A     -0.612241    17A     -0.581987    18A     -0.564574
      19A     -0.557806    20A     -0.539426    21A     -0.513849
      22A     -0.501323    23A     -0.455523    24A     -0.441937

  @DF-RHF Final Energy:  -305.99111656402317

   => Energetics <=

    Nuclear Repulsion Energy =            246.0411493017436442
    One-Electron Energy =                -904.8609911819396530
    Two-Electron Energy =                 352.8287253161731769
    DFT Exchange-Correlation Energy =       0.0000000000000000
    Empirical Dispersion Energy =           0.0000000000000000
    PCM Polarization Energy =               0.0000000000000000
    EFP Energy =                            0.0000000000000000
    Total Energy =                       -305.9911165640228319
    Molecular point group: c1
  Basis Set: CC-PVTZ
  Basis Set:

  -Total Gradient:
     Atom            X                  Y                   Z
    ------   -----------------  -----------------  -----------------
       1       -0.000101401366     0.000074806473     0.000001554522
       2        0.000419742470     0.000061650115     0.001447509110
       3       -0.000006040985     0.000017582666    -0.000018502614
       4       -0.000675377066    -0.000059750993    -0.002431290012
       5        0.000004970461     0.000011626461     0.000010499996
       6        0.000014035734    -0.000005452376    -0.000007270465
       7        0.000008065346     0.000003752649    -0.000006751918
       8        0.000948589212    -0.000735141048     0.002452303939
       9       -0.000043267119    -0.000024465294    -0.000003516748
      10       -0.000557651296     0.000676447596    -0.001416081151
      11       -0.000003382391    -0.000014338095    -0.000032196999
      12       -0.000025021096     0.000023207297    -0.000014961582
      13        0.000006073467     0.000000819078     0.000023977097
      14        0.000010664627    -0.000030744527    -0.000005273174

  **** Optimization is complete! (in 6 steps) ****
    Final optimized geometry and variables:
    Molecular point group: c1

    Geometry (in Angstrom), charge = 0, multiplicity = 1:

    O           -0.723333989054     1.562082300376    -0.099082167018
    C           -0.890665849947     0.402284078763     0.066925580921
    C           -2.194668559680    -0.222138840495     0.476232230338
    O            0.051968117579    -0.510866899641    -0.089214708215
    H           -2.505354063324    -0.937312755835    -0.274381230203
    H           -2.942714285685     0.545280529345     0.590601854814
    H           -2.064244781097    -0.758674602508     1.407110900727
    C            1.364925618640    -0.093547050418    -0.441835437169
    C            2.343731227505    -1.118246734454     0.082595551423
    H            1.548164187912     0.889889489564    -0.040345528784
    H            1.416602236225    -0.022323130225    -1.521068366974
    H            3.351405548866    -0.840550888823    -0.203589329395
    H            2.298306289085    -1.176742281075     1.162971634767
    H            2.131104980227    -2.099455112126    -0.322771112288

  Mulliken Charges: (a.u.)
   Center  Symbol    Alpha    Beta     Spin     Total
       1     O     4.19791  4.19791  0.00000 -0.39582
       2     C     2.80429  2.80429  0.00000  0.39142
       3     C     3.13930  3.13930  0.00000 -0.27860
       4     O     4.15420  4.15420  0.00000 -0.30840
       5     H     0.44558  0.44558  0.00000  0.10885
       6     H     0.43810  0.43810  0.00000  0.12381
       7     H     0.44627  0.44627  0.00000  0.10746
       8     C     2.98170  2.98170  0.00000  0.03659
       9     C     3.13237  3.13237  0.00000 -0.26474
      10     H     0.44615  0.44615  0.00000  0.10770
      11     H     0.45652  0.45652  0.00000  0.08697
      12     H     0.45447  0.45447  0.00000  0.09106
      13     H     0.45189  0.45189  0.00000  0.09622
      14     H     0.45126  0.45126  0.00000  0.09748

   Total alpha = 24.00000, Total beta = 24.00000, Total charge =  0.00000

*** Psi4 exiting successfully. Buy a developer a beer!
