  ==> Input File <==

--------------------------------------------------------------------------
set {
	reference rhf
	basis 6-31G*
}

set_num_threads( 4 )
memory 2 gb

molecule MOL {
0 1

H	 2.318729	 1.570769	 1.401949
N	 1.445545	 1.083108	 1.344940
C	 1.267428	 0.496480	 0.024474
H	 0.725742	 1.755731	 1.530349
C	 -0.016086	 -0.325158	 -0.029487
H	 2.116867	 -0.152752	 -0.165228
H	 1.255987	 1.239250	 -0.777113
C	 -1.282277	 0.529072	 0.046735
H	 -0.012495	 -0.908639	 -0.945788
H	 -0.015903	 -1.041248	 0.791956
C	 -2.563920	 -0.301775	 -0.006060
H	 -1.284084	 1.244622	 -0.773004
H	 -1.271387	 1.115393	 0.963286
H	 -2.621848	 -0.873522	 -0.927727
H	 -3.445135	 0.329952	 0.047812
H	 -2.609542	 -1.004582	 0.821105

	symmetry c1
}
set optking {
	frozen_dihedral = ("
		6 3 5 9
	")
}

ee = optimize('scf')
oeprop('DIPOLE', 'QUADRUPOLE', 'MULLIKEN_CHARGES')
f=open( 'psi4out.xyz', 'w' )
f.write( "16  " )
f.write( str(ee) + "\n" )
f.write( MOL.save_string_xyz() )
f.close()
--------------------------------------------------------------------------

    Molecular point group: c1
  Charge       = 0
  Multiplicity = 1
  Basis Set: 6-31G*
  Basis Set:
  @DF-RHF Final Energy:  -212.31563476166971
    Total Energy =                       -212.3156347616695143
    Molecular point group: c1
  Basis Set: 6-31G*
  Basis Set:
  Basis Set: 6-31G*
  Basis Set:
  @DF-RHF Final Energy:  -212.31590437915168
    Total Energy =                       -212.3159043791517320
  Basis Set: 6-31G*
  Basis Set:
  Basis Set: 6-31G*
  Basis Set:
  @DF-RHF Final Energy:  -212.31602160646395
    Total Energy =                       -212.3160216064638348
  Basis Set: 6-31G*
  Basis Set:
  Basis Set: 6-31G*
  Basis Set:
  @DF-RHF Final Energy:  -212.31602615628503
    Total Energy =                       -212.3160261562852611
  Basis Set: 6-31G*
  Basis Set:
  Basis Set: 6-31G*
  Basis Set:
  @DF-RHF Final Energy:  -212.31602927082949
    Total Energy =                       -212.3160292708296311
  Basis Set: 6-31G*
  Basis Set:
  Charge       = 0
  Multiplicity = 1
  Basis Set: 6-31G*
  Basis Set:

    Orbital Energies (a.u.)
    -----------------------

    Doubly Occupied:

       1A    -15.532660     2A    -11.240164     3A    -11.214876
       4A    -11.208840     5A    -11.207689     6A     -1.176860
       7A     -1.056980     8A     -0.960342     9A     -0.850572
      10A     -0.781517    11A     -0.664290    12A     -0.646050
      13A     -0.595718    14A     -0.585375    15A     -0.549699
      16A     -0.523833    17A     -0.514772    18A     -0.471511
      19A     -0.465977    20A     -0.452792    21A     -0.381045

  @DF-RHF Final Energy:  -212.31602955238949

   => Energetics <=

    Nuclear Repulsion Energy =            188.6931323781595040
    One-Electron Energy =                -659.8552019214962456
    Two-Electron Energy =                 258.8460399909472471
    DFT Exchange-Correlation Energy =       0.0000000000000000
    Empirical Dispersion Energy =           0.0000000000000000
    PCM Polarization Energy =               0.0000000000000000
    EFP Energy =                            0.0000000000000000
    Total Energy =                       -212.3160295523895229
    Molecular point group: c1
  Basis Set: 6-31G*
  Basis Set:

  -Total Gradient:
     Atom            X                  Y                   Z
    ------   -----------------  -----------------  -----------------
       1       -0.000005108749     0.000007272865     0.000008701693
       2       -0.000007767868     0.000010033752    -0.000004436443
       3        0.000262902948    -0.000500097508     0.001572440091
       4       -0.000006667999     0.000010164961     0.000012779013
       5       -0.000692914001     0.001153691865    -0.000984417357
       6       -0.000095301924     0.000208774287    -0.001188346055
       7       -0.000001580683    -0.000001700281    -0.000000698910
       8        0.000012496286    -0.000005175327    -0.000003496719
       9        0.000541419699    -0.000892819129     0.000573413991
      10        0.000007585362    -0.000004178188     0.000003980263
      11       -0.000011075054     0.000003708879    -0.000003364958
      12       -0.000008065297     0.000002583499     0.000006538113
      13        0.000001296086     0.000004695208     0.000003861993
      14        0.000004707644     0.000003247985     0.000003181958
      15       -0.000005990236    -0.000004052976    -0.000002959734
      16        0.000004063788     0.000003850108     0.000002823060

  **** Optimization is complete! (in 6 steps) ****
    Final optimized geometry and variables:
    Molecular point group: c1

    Geometry (in Angstrom), charge = 0, multiplicity = 1:

    H            2.609211650154     1.192512752391     1.099673027327
    N            1.694051838498     0.788747661480     1.046756365675
    C            1.480809652891     0.178789952631    -0.258948114460
    H            1.044109104255     1.534187391767     1.204152957948
    C            0.189433798079    -0.634941764200    -0.298780166990
    H            2.316921899977    -0.484842971023    -0.453427522436
    H            1.471160582735     0.907353982105    -1.074132298627
    C           -1.088380386990     0.204109254480    -0.227380233269
    H            0.180834714790    -1.223951509291    -1.214192180336
    H            0.207011876164    -1.340640654124     0.527310821630
    C           -2.356511064818    -0.643258217507    -0.327764041496
    H           -1.082871706280     0.941099458140    -1.028669555647
    H           -1.110950531650     0.760675338174     0.706285544676
    H           -2.389540173708    -1.188842519183    -1.266630954245
    H           -3.248298660011    -0.026612722053    -0.271649260358
    H           -2.404908653401    -1.369881885334     0.478062703420

  Mulliken Charges: (a.u.)
   Center  Symbol    Alpha    Beta     Spin     Total
       1     H     0.33211  0.33211  0.00000  0.33579
       2     N     3.92225  3.92225  0.00000 -0.84450
       3     C     3.06599  3.06599  0.00000 -0.13198
       4     H     0.33277  0.33277  0.00000  0.33446
       5     C     3.14857  3.14857  0.00000 -0.29715
       6     H     0.41902  0.41902  0.00000  0.16197
       7     H     0.43489  0.43489  0.00000  0.13022
       8     C     3.15727  3.15727  0.00000 -0.31454
       9     H     0.42514  0.42514  0.00000  0.14972
      10     H     0.41442  0.41442  0.00000  0.17115
      11     C     3.23861  3.23861  0.00000 -0.47722
      12     H     0.42498  0.42498  0.00000  0.15004
      13     H     0.42221  0.42221  0.00000  0.15557
      14     H     0.42202  0.42202  0.00000  0.15596
      15     H     0.41987  0.41987  0.00000  0.16026
      16     H     0.41988  0.41988  0.00000  0.16024

   Total alpha = 21.00000, Total beta = 21.00000, Total charge = -0.00000
