                              Psi4 1.0.54 Driver

  ==> Input File <==

--------------------------------------------------------------------------
set {
	reference rhf
	basis cc-pvtz
}

set_num_threads( 4 )
memory 2 gb

molecule MOL {
0 1

H	 3.297256	 -0.408300	 -0.000000
C	 2.238475	 -0.232381	 -0.000000
C	 1.361566	 -1.306794	 0.000000
C	 1.757691	 1.061591	 0.000000
H	 1.742838	 -2.309503	 -0.000000
C	 0.002585	 -1.085497	 0.000000
H	 2.438321	 1.890577	 -0.000000
C	 0.392597	 1.282247	 0.000000
H	 -0.690942	 -1.902612	 0.000000
C	 -0.486585	 0.214226	 0.000000
H	 0.011529	 2.286718	 0.000000
C	 -1.946712	 0.470108	 0.000000
O	 -2.779805	 -0.371248	 -0.000000
H	 -2.227314	 1.528371	 -0.000000

	symmetry c1
}
ee,wfn = energy('scf', return_wfn=True)
oeprop( wfn, 'DIPOLE', 'QUADRUPOLE', 'MULLIKEN_CHARGES')
oeprop( wfn, 'GRID_ESP')
f=open( 'psi4out.xyz', 'w' )
f.write( "14  " )
f.write( str(ee) + "\n" )
f.write( MOL.save_string_xyz() )
f.close()
--------------------------------------------------------------------------

    Molecular point group: c1

    Geometry (in Angstrom), charge = 0, multiplicity = 1:

       Center              X                  Y                   Z               Mass
    ------------   -----------------  -----------------  -----------------  -----------------
           H          3.297443454538    -0.408277962111     0.000000000000     1.007825032070
           C          2.238662454538    -0.232358962111     0.000000000000    12.000000000000
           C          1.361753454538    -1.306771962111     0.000000000000    12.000000000000
           C          1.757878454538     1.061613037889     0.000000000000    12.000000000000
           H          1.743025454538    -2.309480962111     0.000000000000     1.007825032070
           C          0.002772454538    -1.085474962111     0.000000000000    12.000000000000
           H          2.438508454538     1.890599037889     0.000000000000     1.007825032070
           C          0.392784454538     1.282269037889     0.000000000000    12.000000000000
           H         -0.690754545462    -1.902589962111     0.000000000000     1.007825032070
           C         -0.486397545462     0.214248037889     0.000000000000    12.000000000000
           H          0.011716454538     2.286740037889     0.000000000000     1.007825032070
           C         -1.946524545462     0.470130037889     0.000000000000    12.000000000000
           O         -2.779617545462    -0.371225962111     0.000000000000    15.994914619560
           H         -2.227126545462     1.528393037889     0.000000000000     1.007825032070

  Charge       = 0
  Multiplicity = 1
  Basis Set: CC-PVTZ
  Basis Set:

    Orbital Energies (a.u.)
    -----------------------

    Doubly Occupied:

       1A    -20.552551     2A    -11.326886     3A    -11.252795
       4A    -11.250350     5A    -11.246638     6A    -11.245308
       7A    -11.243928     8A    -11.242315     9A     -1.408371
      10A     -1.177205    11A     -1.051891    12A     -1.036297
      13A     -0.892824    14A     -0.848565    15A     -0.794501
      16A     -0.725606    17A     -0.682413    18A     -0.656516
      19A     -0.623693    20A     -0.620754    21A     -0.606099
      22A     -0.562360    23A     -0.530255    24A     -0.510181
      25A     -0.508281    26A     -0.425538    27A     -0.355943
      28A     -0.352599

  @DF-RHF Final Energy:  -343.55011450274998

   => Energetics <=

    Nuclear Repulsion Energy =            323.9799350761136907
    One-Electron Energy =               -1107.5988738879791526
    Two-Electron Energy =                 440.0688243091150298
    DFT Exchange-Correlation Energy =       0.0000000000000000
    Empirical Dispersion Energy =           0.0000000000000000
    PCM Polarization Energy =               0.0000000000000000
    EFP Energy =                            0.0000000000000000
    Total Energy =                       -343.5501145027504890

  Mulliken Charges: (a.u.)
   Center  Symbol    Alpha    Beta     Spin     Total
       1     H     0.41946  0.41946  0.00000  0.16108
       2     C     3.06942  3.06942  0.00000 -0.13884
       3     C     3.07274  3.07274  0.00000 -0.14548
       4     C     3.07387  3.07387  0.00000 -0.14774
       5     H     0.41948  0.41948  0.00000  0.16103
       6     C     3.07912  3.07912  0.00000 -0.15823
       7     H     0.42059  0.42059  0.00000  0.15882
       8     C     3.08678  3.08678  0.00000 -0.17356
       9     H     0.40861  0.40861  0.00000  0.18279
      10     C     2.98647  2.98647  0.00000  0.02707
      11     H     0.42285  0.42285  0.00000  0.15430
      12     C     2.90932  2.90932  0.00000  0.18135
      13     O     4.17295  4.17295  0.00000 -0.34590
      14     H     0.45834  0.45834  0.00000  0.08332

   Total alpha = 28.00000, Total beta = 28.00000, Total charge = -0.00000

*** Psi4 exiting successfully. Buy a developer a beer!
