                              Psi4 1.0.54 Driver

  ==> Input File <==

--------------------------------------------------------------------------
set {
	reference rhf
	basis cc-pvtz
}

set_num_threads( 4 )
memory 2 gb

molecule MOL {
0 1

H	 -2.171408	 0.883827	 0.499828
C	 -2.016894	 0.002467	 -0.114153
O	 -0.775228	 0.000056	 -0.739966
H	 -2.760845	 0.004352	 -0.898170
H	 -2.175074	 -0.878744	 0.499100
C	 0.406133	 -0.000384	 0.036994
C	 1.526415	 -0.003194	 -0.997339
C	 0.498772	 1.259027	 0.900673
C	 0.495883	 -1.257378	 0.904465
H	 1.452279	 0.872071	 -1.630204
H	 1.451276	 -0.881020	 -1.626529
H	 2.497919	 -0.002741	 -0.517601
H	 0.368981	 2.144239	 0.289753
H	 1.470064	 1.313479	 1.377660
H	 -0.248448	 1.271586	 1.684297
H	 0.363971	 -2.144195	 0.296316
H	 1.467114	 -1.312636	 1.381470
H	 -0.251246	 -1.265768	 1.688235

	symmetry c1
}
set optking {
	frozen_dihedral = ("
		2 3 6 7
	")
}

ee,wfn = optimize('scf', return_wfn=True)
oeprop( wfn, 'DIPOLE', 'QUADRUPOLE', 'MULLIKEN_CHARGES')
f=open( 'psi4out.xyz', 'w' )
f.write( "18  " )
f.write( str(ee) + "\n" )
f.write( MOL.save_string_xyz() )
f.close()
--------------------------------------------------------------------------

    Molecular point group: c1
  Charge       = 0
  Multiplicity = 1
  Basis Set: CC-PVTZ
  Basis Set:
  @DF-RHF Final Energy:  -271.27675699768452
    Total Energy =                       -271.2767569976845721
    Molecular point group: c1
  Basis Set: CC-PVTZ
  Basis Set:
  Charge       = 0
  Multiplicity = 1
  Basis Set: CC-PVTZ
  Basis Set:

    Orbital Energies (a.u.)
    -----------------------

    Doubly Occupied:

       1A    -20.540649     2A    -11.280120     3A    -11.258039
       4A    -11.207081     5A    -11.207065     6A    -11.201793
       7A     -1.373667     8A     -1.074668     9A     -0.946713
      10A     -0.940849    11A     -0.913179    12A     -0.753502
      13A     -0.656639    14A     -0.646659    15A     -0.639400
      16A     -0.593892    17A     -0.575997    18A     -0.553302
      19A     -0.534342    20A     -0.524844    21A     -0.515064
      22A     -0.488131    23A     -0.488065    24A     -0.440774
      25A     -0.407740

  @DF-RHF Final Energy:  -271.27675702333352

   => Energetics <=

    Nuclear Repulsion Energy =            272.6659351170150103
    One-Electron Energy =                -908.3610362420704405
    Two-Electron Energy =                 364.4183441017220275
    DFT Exchange-Correlation Energy =       0.0000000000000000
    Empirical Dispersion Energy =           0.0000000000000000
    PCM Polarization Energy =               0.0000000000000000
    EFP Energy =                            0.0000000000000000
    Total Energy =                       -271.2767570233334027
    Molecular point group: c1
  Basis Set: CC-PVTZ
  Basis Set:

  -Total Gradient:
     Atom            X                  Y                   Z
    ------   -----------------  -----------------  -----------------
       1       -0.000009301142    -0.000010605802    -0.000005096852
       2        0.000003715205     0.000022999538    -0.000005713827
       3       -0.000003036434    -0.000031284571     0.000003787717
       4       -0.000000801267     0.000002179754     0.000000605628
       5        0.000004603623    -0.000008510241     0.000003434015
       6       -0.000002505256     0.000012304795    -0.000002194075
       7        0.000000634090     0.000005217589     0.000001112825
       8        0.000012857889     0.000004312326     0.000008808845
       9       -0.000008664147     0.000004058204    -0.000005687155
      10       -0.000002991676    -0.000000706189     0.000007613944
      11        0.000003553844    -0.000000186815    -0.000007140080
      12        0.000000174996    -0.000005775690     0.000000083723
      13       -0.000003059812    -0.000000193373     0.000000537220
      14       -0.000001665871     0.000004120160     0.000001744178
      15        0.000012372408    -0.000000606167    -0.000001279414
      16       -0.000000957004    -0.000000177037     0.000001786716
      17        0.000001626559     0.000002432606    -0.000004289167
      18       -0.000006556008     0.000000420912     0.000001885760

  **** Optimization is complete! (in 2 steps) ****
    Final optimized geometry and variables:
    Molecular point group: c1

    Geometry (in Angstrom), charge = 0, multiplicity = 1:

    H           -2.172213523689     0.884154954673     0.498430311831
    C           -2.016935204188     0.002052462420    -0.114247626968
    O           -0.775209589752    -0.000259514195    -0.739989114194
    H           -2.760824625626     0.002192441387    -0.898316605850
    H           -2.174414574553    -0.878413135429     0.500265066969
    C            0.406136724509    -0.000387321291     0.037025161221
    C            1.526442612886    -0.003182597525    -0.997293862910
    C            0.498863135592     1.259014605454     0.900734801418
    C            0.495776613635    -1.257400098194     0.904462605573
    H            1.453295625908     0.872966360640    -1.629037114826
    H            1.450357292451    -0.880117324417    -1.627610961965
    H            2.497932978721    -0.004433571238    -0.517542026685
    H            0.368180854278     2.144224494552     0.290005891937
    H            1.470518719722     1.313889109541     1.376909973864
    H           -0.247663753952     1.271189249766     1.685008148585
    H            0.364004139988    -2.144168318559     0.296232335210
    H            1.466907039830    -1.312653837592     1.381667995283
    H           -0.251535669649    -1.265867312736     1.688056802633

  Mulliken Charges: (a.u.)
   Center  Symbol    Alpha    Beta     Spin     Total
       1     H     0.46981  0.46981  0.00000  0.06038
       2     C     3.04424  3.04424  0.00000 -0.08848
       3     O     4.18981  4.18981  0.00000 -0.37961
       4     H     0.44022  0.44022  0.00000  0.11956
       5     H     0.46981  0.46981  0.00000  0.06038
       6     C     2.87275  2.87275  0.00000  0.25450
       7     C     3.14153  3.14153  0.00000 -0.28306
       8     C     3.16452  3.16452  0.00000 -0.32903
       9     C     3.16448  3.16448  0.00000 -0.32897
      10     H     0.44882  0.44882  0.00000  0.10235
      11     H     0.44880  0.44880  0.00000  0.10239
      12     H     0.45939  0.45939  0.00000  0.08123
      13     H     0.44510  0.44510  0.00000  0.10980
      14     H     0.44837  0.44837  0.00000  0.10325
      15     H     0.44942  0.44942  0.00000  0.10116
      16     H     0.44511  0.44511  0.00000  0.10979
      17     H     0.44839  0.44839  0.00000  0.10322
      18     H     0.44943  0.44943  0.00000  0.10113

   Total alpha = 25.00000, Total beta = 25.00000, Total charge =  0.00000

*** Psi4 exiting successfully. Buy a developer a beer!
