  ==> Input File <==

--------------------------------------------------------------------------
set {
	reference rhf
	basis 6-31G*
}

set_num_threads( 4 )
memory 2 gb

molecule MOL {
0 1

H	 1.174913	 -0.379430	 1.534776
O	 1.353483	 -0.423714	 0.605257
C	 0.709265	 0.639550	 -0.033818
C	 -0.793441	 0.596080	 0.058728
H	 1.011468	 0.595019	 -1.073959
H	 1.063344	 1.594870	 0.352209
C	 -1.530462	 -0.493172	 -0.025500
H	 -1.268471	 1.554324	 0.202247
H	 -1.092586	 -1.461565	 -0.186463
H	 -2.602122	 -0.450675	 0.050101

	symmetry c1
}
set optking {
	frozen_dihedral = ("
		5 3 4 7
	")
}

ee = optimize('scf')
oeprop('DIPOLE', 'QUADRUPOLE', 'MULLIKEN_CHARGES')
f=open( 'psi4out.xyz', 'w' )
f.write( "10  " )
f.write( str(ee) + "\n" )
f.write( MOL.save_string_xyz() )
f.close()
--------------------------------------------------------------------------

    Molecular point group: c1
  Charge       = 0
  Multiplicity = 1
  Basis Set: 6-31G*
  Basis Set:
  @DF-RHF Final Energy:  -191.91429769254489
    Total Energy =                       -191.9142976925448920
    Molecular point group: c1
  Basis Set: 6-31G*
  Basis Set:
  Basis Set: 6-31G*
  Basis Set:
  @DF-RHF Final Energy:  -191.91493242372854
    Total Energy =                       -191.9149324237285157
  Basis Set: 6-31G*
  Basis Set:
  Basis Set: 6-31G*
  Basis Set:
  @DF-RHF Final Energy:  -191.91498802088853
    Total Energy =                       -191.9149880208885577
  Basis Set: 6-31G*
  Basis Set:
  Basis Set: 6-31G*
  Basis Set:
  @DF-RHF Final Energy:  -191.91499150298091
    Total Energy =                       -191.9149915029808540
  Basis Set: 6-31G*
  Basis Set:
  Charge       = 0
  Multiplicity = 1
  Basis Set: 6-31G*
  Basis Set:

    Orbital Energies (a.u.)
    -----------------------

    Doubly Occupied:

       1A    -20.556853     2A    -11.276202     3A    -11.230654
       4A    -11.222560     5A     -1.364312     6A     -1.058025
       7A     -0.924558     8A     -0.772674     9A     -0.680060
      10A     -0.661024    11A     -0.607158    12A     -0.574673
      13A     -0.547051    14A     -0.480022    15A     -0.447903
      16A     -0.366633

  @DF-RHF Final Energy:  -191.91499227969655

   => Energetics <=

    Nuclear Repulsion Energy =            119.0654302994340696
    One-Electron Energy =                -496.4201219435771009
    Two-Electron Energy =                 185.4396993644464260
    DFT Exchange-Correlation Energy =       0.0000000000000000
    Empirical Dispersion Energy =           0.0000000000000000
    PCM Polarization Energy =               0.0000000000000000
    EFP Energy =                            0.0000000000000000
    Total Energy =                       -191.9149922796966052
    Molecular point group: c1
  Basis Set: 6-31G*
  Basis Set:

  -Total Gradient:
     Atom            X                  Y                   Z
    ------   -----------------  -----------------  -----------------
       1       -0.000013135702     0.000020603792    -0.000016294282
       2        0.000040772173     0.000000140174    -0.000004283663
       3       -0.000272223805     0.004656761743    -0.001938369748
       4        0.000371639084    -0.001378793820     0.005084229884
       5        0.000140744503    -0.003627676569     0.000252925248
       6       -0.000013437498    -0.000021873756    -0.000010144896
       7       -0.000240829970     0.000342327481    -0.003342666963
       8       -0.000007146160    -0.000006159488     0.000000881598
       9       -0.000005770156     0.000010283900    -0.000007114308
      10       -0.000000612467     0.000004386544    -0.000019162872

  **** Optimization is complete! (in 5 steps) ****
    Final optimized geometry and variables:
    Molecular point group: c1

    Geometry (in Angstrom), charge = 0, multiplicity = 1:

    H            1.044372494205    -0.554505318411     1.295505324516
    O            1.334414980893    -0.495563914004     0.395347251244
    C            0.700421596461     0.595993353052    -0.217186024213
    C           -0.807699825306     0.547295162033    -0.112300135471
    H            0.998674710093     0.539104127258    -1.256873836928
    H            1.071927620524     1.535063386431     0.185693087694
    C           -1.517223554400    -0.562127017339    -0.179894800674
    H           -1.311312204665     1.497339684141    -0.029690624094
    H           -1.047990769648    -1.525229856654    -0.276376652471
    H           -2.591141528930    -0.546603476868    -0.127593242667

  Mulliken Charges: (a.u.)
   Center  Symbol    Alpha    Beta     Spin     Total
       1     H     0.28262  0.28262  0.00000  0.43475
       2     O     4.36809  4.36809  0.00000 -0.73618
       3     C     2.99692  2.99692  0.00000  0.00617
       4     C     3.10867  3.10867  0.00000 -0.21734
       5     H     0.40731  0.40731  0.00000  0.18539
       6     H     0.42594  0.42594  0.00000  0.14812
       7     C     3.18864  3.18864  0.00000 -0.37729
       8     H     0.40880  0.40880  0.00000  0.18240
       9     H     0.40251  0.40251  0.00000  0.19497
      10     H     0.41050  0.41050  0.00000  0.17901

   Total alpha = 16.00000, Total beta = 16.00000, Total charge = -0.00000
