                              Psi4 1.0.54 Driver

  ==> Input File <==

--------------------------------------------------------------------------
set {
	reference rhf
	basis cc-pvtz
}

set_num_threads( 4 )
memory 2 gb

molecule MOL {
0 1

H	 -0.289159	 -1.109064	 0.816311
N	 -0.625934	 -0.663929	 -0.000707
C	 -1.978635	 -0.158664	 0.001017
C	 0.209390	 -0.561027	 -1.058170
H	 -2.519057	 -0.493535	 -0.876362
H	 -1.938890	 0.917202	 -0.004137
H	 -2.514266	 -0.485137	 0.884506
C	 1.582421	 -1.156496	 -0.836759
O	 -0.097959	 -0.038373	 -2.088435
H	 1.504532	 -2.214594	 -0.615488
H	 2.171346	 -1.018672	 -1.728521
H	 2.074664	 -0.673627	 -0.000605

	symmetry c1
}
set optking {
	frozen_dihedral = ("
		4 2 3 5
	")
}

ee,wfn = optimize('scf', return_wfn=True)
oeprop( wfn, 'DIPOLE', 'QUADRUPOLE', 'MULLIKEN_CHARGES')
f=open( 'psi4out.xyz', 'w' )
f.write( "12  " )
f.write( str(ee) + "\n" )
f.write( MOL.save_string_xyz() )
f.close()
--------------------------------------------------------------------------

    Molecular point group: c1
  Charge       = 0
  Multiplicity = 1
  Basis Set: CC-PVTZ
  Basis Set:
  @DF-RHF Final Energy:  -247.10046146019138
    Total Energy =                       -247.1004614601913545
    Molecular point group: c1
  Basis Set: CC-PVTZ
  Basis Set:
  Basis Set: CC-PVTZ
  Basis Set:
  @DF-RHF Final Energy:  -247.10113033814275
    Total Energy =                       -247.1011303381427524
  Basis Set: CC-PVTZ
  Basis Set:
  Basis Set: CC-PVTZ
  Basis Set:
  @DF-RHF Final Energy:  -247.10109941748007
    Total Energy =                       -247.1010994174799862
  Basis Set: CC-PVTZ
  Basis Set:
  Basis Set: CC-PVTZ
  Basis Set:
  @DF-RHF Final Energy:  -247.10125179417147
    Total Energy =                       -247.1012517941713895
  Basis Set: CC-PVTZ
  Basis Set:
  @DF-RHF Final Energy:  -247.10125667901255
    Total Energy =                       -247.1012566790126357
  @DF-RHF Final Energy:  -247.10126546522204
    Total Energy =                       -247.1012654652222409
  Basis Set: CC-PVTZ
  Basis Set:
  @DF-RHF Final Energy:  -247.10127823477757
    Total Energy =                       -247.1012782347775101
  Basis Set: CC-PVTZ
  Basis Set:
  Basis Set: CC-PVTZ
  Basis Set:
  @DF-RHF Final Energy:  -247.10128180098593
    Total Energy =                       -247.1012818009859870
  Basis Set: CC-PVTZ
  Basis Set:
  Basis Set: CC-PVTZ
  Basis Set:
  @DF-RHF Final Energy:  -247.10128328876982
    Total Energy =                       -247.1012832887699915
  Basis Set: CC-PVTZ
  Basis Set:
  Charge       = 0
  Multiplicity = 1
  Basis Set: CC-PVTZ
  Basis Set:

    Orbital Energies (a.u.)
    -----------------------

    Doubly Occupied:

       1A    -20.507374     2A    -15.574303     3A    -11.335240
       4A    -11.253805     5A    -11.228140     6A     -1.389002
       7A     -1.230423     8A     -1.016461     9A     -0.932896
      10A     -0.789006    11A     -0.690550    12A     -0.651011
      13A     -0.636266    14A     -0.584729    15A     -0.582769
      16A     -0.557983    17A     -0.546775    18A     -0.507699
      19A     -0.417670    20A     -0.390476

  @DF-RHF Final Energy:  -247.10128364715945

   => Energetics <=

    Nuclear Repulsion Energy =            181.8598402759962482
    One-Electron Energy =                -696.2770981152355034
    Two-Electron Energy =                 267.3159741920796932
    DFT Exchange-Correlation Energy =       0.0000000000000000
    Empirical Dispersion Energy =           0.0000000000000000
    PCM Polarization Energy =               0.0000000000000000
    EFP Energy =                            0.0000000000000000
    Total Energy =                       -247.1012836471595620
    Molecular point group: c1
  Basis Set: CC-PVTZ
  Basis Set:

  -Total Gradient:
     Atom            X                  Y                   Z
    ------   -----------------  -----------------  -----------------
       1       -0.000012935781    -0.000011930035    -0.000007622502
       2        0.000057097268     0.000152269574     0.000055346447
       3       -0.000035939492    -0.000128837462     0.000020308230
       4       -0.000037919734    -0.000075225924    -0.000002663110
       5        0.000029016424     0.000063756393    -0.000028748388
       6       -0.000003353253    -0.000001231189    -0.000004579293
       7        0.000001889224     0.000005617383     0.000003700724
       8        0.000018801120     0.000026562267     0.000009272450
       9       -0.000009067857    -0.000009273436    -0.000032724938
      10       -0.000009479912    -0.000012345776    -0.000021677266
      11        0.000006283034     0.000008135112    -0.000000978260
      12       -0.000004391041    -0.000017496906     0.000010365906

  **** Optimization is complete! (in 10 steps) ****
    Final optimized geometry and variables:
    Molecular point group: c1

    Geometry (in Angstrom), charge = 0, multiplicity = 1:

    H           -0.098248856987    -0.540296000687     1.638925992789
    N           -0.441193803746    -0.170221367309     0.788547874521
    C           -1.773561605237     0.387563155452     0.758802633046
    C            0.404489032442    -0.055741185612    -0.257901398797
    H           -2.282472426972     0.087466703529    -0.144746501434
    H           -1.758406928603     1.470295914239     0.793683788939
    H           -2.324943688561     0.017570968925     1.611742877304
    C            1.781844393300    -0.640731158693    -0.038898010371
    O            0.083523661849     0.463565370195    -1.285756012368
    H            1.712097227799    -1.694362613045     0.204484063801
    H            2.362307839031    -0.516238469211    -0.938328766977
    H            2.279383602392    -0.138311238810     0.782765902034

  Mulliken Charges: (a.u.)
   Center  Symbol    Alpha    Beta     Spin     Total
       1     H     0.41194  0.41194  0.00000  0.17611
       2     N     3.61798  3.61798  0.00000 -0.23595
       3     C     3.07735  3.07735  0.00000 -0.15470
       4     C     2.83772  2.83772  0.00000  0.32456
       5     H     0.44308  0.44308  0.00000  0.11385
       6     H     0.45469  0.45469  0.00000  0.09062
       7     H     0.45566  0.45566  0.00000  0.08868
       8     C     3.15357  3.15357  0.00000 -0.30714
       9     O     4.21473  4.21473  0.00000 -0.42945
      10     H     0.44914  0.44914  0.00000  0.10171
      11     H     0.43366  0.43366  0.00000  0.13268
      12     H     0.45049  0.45049  0.00000  0.09903

   Total alpha = 20.00000, Total beta = 20.00000, Total charge =  0.00000

*** Psi4 exiting successfully. Buy a developer a beer!
