  ==> Input File <==

--------------------------------------------------------------------------
set {
	reference rhf
	basis 6-31G*
}

set_num_threads( 4 )
memory 2 gb

molecule MOL {
0 1

O	 -2.324811	 1.361668	 -0.277141
C	 -2.105949	 0.203097	 -0.092081
C	 -0.889235	 -0.467034	 -0.705952
C	 -3.002726	 -0.644460	 0.782455
C	 -0.930723	 -0.379046	 -2.240122
H	 -0.899359	 -1.508343	 -0.402839
H	 0.025236	 -0.014890	 -0.332675
C	 0.266215	 -1.074500	 -2.893036
H	 -1.860763	 -0.821185	 -2.579124
H	 -0.949071	 0.665623	 -2.546844
C	 0.311232	 -0.956649	 -4.420825
H	 0.264929	 -2.126543	 -2.613876
H	 1.182396	 -0.651983	 -2.485677
C	 -0.826148	 -1.677594	 -5.146498
H	 1.258830	 -1.361548	 -4.766958
H	 0.311081	 0.094974	 -4.700425
H	 -0.855865	 -2.729836	 -4.877004
H	 -0.695037	 -1.616504	 -6.222359
H	 -1.794836	 -1.248929	 -4.912659
H	 -3.496582	 -1.399307	 0.176174
H	 -3.747939	 -0.023774	 1.260148
H	 -2.421318	 -1.168775	 1.535358

	symmetry c1
}
set optking {
	frozen_dihedral = ("
		6 3 2 1
	")
}

ee = optimize('scf')
oeprop('DIPOLE', 'QUADRUPOLE', 'MULLIKEN_CHARGES')
f=open( 'psi4out.xyz', 'w' )
f.write( "22  " )
f.write( str(ee) + "\n" )
f.write( MOL.save_string_xyz() )
f.close()
--------------------------------------------------------------------------

    Molecular point group: c1
  Charge       = 0
  Multiplicity = 1
  Basis Set: 6-31G*
  Basis Set:
  @DF-RHF Final Energy:  -348.09733617854994
    Total Energy =                       -348.0973361785506768
    Molecular point group: c1
  Basis Set: 6-31G*
  Basis Set:
  Basis Set: 6-31G*
  Basis Set:
  @DF-RHF Final Energy:  -348.09687837825919
    Total Energy =                       -348.0968783782590776
  Basis Set: 6-31G*
  Basis Set:
  Basis Set: 6-31G*
  Basis Set:
  @DF-RHF Final Energy:  -348.09793204302832
    Total Energy =                       -348.0979320430282087
  Basis Set: 6-31G*
  Basis Set:
  Basis Set: 6-31G*
  Basis Set:
  @DF-RHF Final Energy:  -348.09837025863942
    Total Energy =                       -348.0983702586393065
  Basis Set: 6-31G*
  Basis Set:
  @DF-RHF Final Energy:  -348.09805413639214
    Total Energy =                       -348.0980541363919656
  @DF-RHF Final Energy:  -348.09827419220898
    Total Energy =                       -348.0982741922092032
  Basis Set: 6-31G*
  Basis Set:
  @DF-RHF Final Energy:  -348.09837825003478
    Total Energy =                       -348.0983782500348411
  Basis Set: 6-31G*
  Basis Set:
  Basis Set: 6-31G*
  Basis Set:
  @DF-RHF Final Energy:  -348.09835618895943
    Total Energy =                       -348.0983561889594853
  Basis Set: 6-31G*
  Basis Set:
  Basis Set: 6-31G*
  Basis Set:
  @DF-RHF Final Energy:  -348.09838345471485
    Total Energy =                       -348.0983834547148490
  Basis Set: 6-31G*
  Basis Set:
  Charge       = 0
  Multiplicity = 1
  Basis Set: 6-31G*
  Basis Set:

    Orbital Energies (a.u.)
    -----------------------

    Doubly Occupied:

       1A    -20.547852     2A    -11.325466     3A    -11.229974
       4A    -11.228637     5A    -11.224031     6A    -11.219998
       7A    -11.218555     8A    -11.210904     9A     -1.393911
      10A     -1.092841    11A     -1.042921    12A     -1.001000
      13A     -0.936655    14A     -0.856094    15A     -0.784108
      16A     -0.732200    17A     -0.658183    18A     -0.648236
      19A     -0.627501    20A     -0.613331    21A     -0.600973
      22A     -0.583876    23A     -0.556647    24A     -0.549447
      25A     -0.526887    26A     -0.519979    27A     -0.499984
      28A     -0.482184    29A     -0.466423    30A     -0.462498
      31A     -0.460709    32A     -0.396843

  @DF-RHF Final Energy:  -348.09838374497451

   => Energetics <=

    Nuclear Repulsion Energy =            372.4192252848778253
    One-Electron Energy =               -1209.6375238853624978
    Two-Electron Energy =                 489.1199148555101033
    DFT Exchange-Correlation Energy =       0.0000000000000000
    Empirical Dispersion Energy =           0.0000000000000000
    PCM Polarization Energy =               0.0000000000000000
    EFP Energy =                            0.0000000000000000
    Total Energy =                       -348.0983837449745693
    Molecular point group: c1
  Basis Set: 6-31G*
  Basis Set:

  -Total Gradient:
     Atom            X                  Y                   Z
    ------   -----------------  -----------------  -----------------
       1        0.000405556667     0.000166055335     0.000537796284
       2       -0.000461811426    -0.000202930730    -0.000618495103
       3       -0.000358101298    -0.000148755632    -0.000490640141
       4        0.000005969346     0.000008491954     0.000010337864
       5       -0.000000812948     0.000003209225     0.000011198703
       6        0.000405519527     0.000173759266     0.000553259189
       7        0.000001176020     0.000002587376     0.000004451549
       8       -0.000000352546    -0.000002879080     0.000004083783
       9        0.000003143165     0.000000437120     0.000002797270
      10       -0.000000041802     0.000003351333    -0.000004788586
      11       -0.000005709456    -0.000004142524     0.000010512669
      12       -0.000001072603     0.000001422775    -0.000003241061
      13       -0.000000148116    -0.000000370528    -0.000000075928
      14        0.000002859465     0.000007390986    -0.000008684863
      15       -0.000012584881     0.000002150573    -0.000000491165
      16       -0.000004644146    -0.000014109598    -0.000006211976
      17        0.000006831256     0.000008378462     0.000004757240
      18       -0.000000651171     0.000001868436     0.000000822167
      19        0.000012887630    -0.000001086127     0.000004018367
      20        0.000002919334     0.000006623008     0.000002624023
      21        0.000005388477    -0.000008098965    -0.000006460884
      22       -0.000006320493    -0.000003352663    -0.000007569406

  **** Optimization is complete! (in 10 steps) ****
    Final optimized geometry and variables:
    Molecular point group: c1

    Geometry (in Angstrom), charge = 0, multiplicity = 1:

    O           -1.100512604584     1.815897683057     1.584889925796
    C           -0.904440359344     0.659532393608     1.805308728375
    C            0.267007736625    -0.067237269125     1.161840905250
    C           -1.794598650929    -0.133225086563     2.734787961082
    C            0.241046067661     0.038299230162    -0.367779074537
    H            0.289577248938    -1.106932990755     1.474712672095
    H            1.173209742957     0.398356771439     1.541848919187
    C            1.456975340568    -0.627014183895    -1.016607321800
    H           -0.674873025834    -0.413931777015    -0.738931729862
    H            0.202720774166     1.087705029619    -0.639556785002
    C            1.524161218760    -0.475499784122    -2.540624405510
    H            1.472726850364    -1.685461389774    -0.760729934249
    H            2.359169241575    -0.196885771408    -0.586685076496
    C            0.409931903468    -1.196833515136    -3.301107853390
    H            2.483028328040    -0.858473197823    -2.880764220616
    H            1.511427911567     0.581625433182    -2.796629114902
    H            0.389966584636    -2.254966314732    -3.053713581466
    H            0.559155896944    -1.112233159926    -4.372995713142
    H           -0.568391326467    -0.785110167051    -3.076755707588
    H           -2.233274273977    -0.973913290732     2.203938370503
    H           -2.578335546596     0.499347497632     3.127518783713
    H           -1.209360494234    -0.542894768634     3.553552639824

  Mulliken Charges: (a.u.)
   Center  Symbol    Alpha    Beta     Spin     Total
       1     O     4.26354  4.26354  0.00000 -0.52708
       2     C     2.73531  2.73531  0.00000  0.52937
       3     C     3.20376  3.20376  0.00000 -0.40752
       4     C     3.28910  3.28910  0.00000 -0.57820
       5     C     3.15903  3.15903  0.00000 -0.31806
       6     H     0.41612  0.41612  0.00000  0.16775
       7     H     0.40268  0.40268  0.00000  0.19465
       8     C     3.15357  3.15357  0.00000 -0.30714
       9     H     0.41892  0.41892  0.00000  0.16216
      10     H     0.40344  0.40344  0.00000  0.19312
      11     C     3.15304  3.15304  0.00000 -0.30608
      12     H     0.42461  0.42461  0.00000  0.15079
      13     H     0.42051  0.42051  0.00000  0.15899
      14     C     3.24195  3.24195  0.00000 -0.48391
      15     H     0.42013  0.42013  0.00000  0.15973
      16     H     0.42052  0.42052  0.00000  0.15896
      17     H     0.42279  0.42279  0.00000  0.15443
      18     H     0.41796  0.41796  0.00000  0.16408
      19     H     0.41919  0.41919  0.00000  0.16163
      20     H     0.40852  0.40852  0.00000  0.18295
      21     H     0.39726  0.39726  0.00000  0.20549
      22     H     0.40805  0.40805  0.00000  0.18389

   Total alpha = 32.00000, Total beta = 32.00000, Total charge = -0.00000
