  ==> Input File <==

--------------------------------------------------------------------------
set {
	reference rhf
	basis 6-31G*
}

set_num_threads( 4 )
memory 2 gb

molecule MOL {
0 1

H	 -0.944757	 -0.000069	 1.678017
O	 -0.042387	 -0.000390	 1.388199
C	 -0.001487	 0.000018	 -0.026623
C	 -0.478959	 1.355136	 -0.552282
C	 1.423774	 -0.295391	 -0.497799
C	 -0.953598	 -1.111654	 -0.453343
H	 -0.499370	 1.374242	 -1.637232
H	 0.181685	 2.152803	 -0.220345
H	 -1.476145	 1.570107	 -0.184283
H	 1.481367	 -0.341435	 -1.580690
H	 2.109579	 0.479662	 -0.163290
H	 1.764000	 -1.242251	 -0.093349
H	 -0.995111	 -1.194378	 -1.534629
H	 -1.952763	 -0.911775	 -0.082932
H	 -0.626717	 -2.061667	 -0.045892

	symmetry c1
}
set optking {
	frozen_dihedral = ("
		4 3 2 1
	")
}

ee = optimize('scf')
oeprop('DIPOLE', 'QUADRUPOLE', 'MULLIKEN_CHARGES')
f=open( 'psi4out.xyz', 'w' )
f.write( "15  " )
f.write( str(ee) + "\n" )
f.write( MOL.save_string_xyz() )
f.close()
--------------------------------------------------------------------------

    Molecular point group: c1
  Charge       = 0
  Multiplicity = 1
  Basis Set: 6-31G*
  Basis Set:
  @DF-RHF Final Energy:  -232.15079127382890
    Total Energy =                       -232.1507912738288155
    Molecular point group: c1
  Basis Set: 6-31G*
  Basis Set:
  Basis Set: 6-31G*
  Basis Set:
  @DF-RHF Final Energy:  -232.15275346264622
    Total Energy =                       -232.1527534626461033
  Basis Set: 6-31G*
  Basis Set:
  Basis Set: 6-31G*
  Basis Set:
  @DF-RHF Final Energy:  -232.15322084760840
    Total Energy =                       -232.1532208476088499
  Basis Set: 6-31G*
  Basis Set:
  Basis Set: 6-31G*
  Basis Set:
  @DF-RHF Final Energy:  -232.15321414095956
    Total Energy =                       -232.1532141409594487
  Basis Set: 6-31G*
  Basis Set:
  Basis Set: 6-31G*
  Basis Set:
  @DF-RHF Final Energy:  -232.15322862844866
    Total Energy =                       -232.1532286284485167
  Basis Set: 6-31G*
  Basis Set:
  Basis Set: 6-31G*
  Basis Set:
  @DF-RHF Final Energy:  -232.15322984418722
    Total Energy =                       -232.1532298441871944
  Basis Set: 6-31G*
  Basis Set:
  Charge       = 0
  Multiplicity = 1
  Basis Set: 6-31G*
  Basis Set:

    Orbital Energies (a.u.)
    -----------------------

    Doubly Occupied:

       1A    -20.549059     2A    -11.281828     3A    -11.212860
       4A    -11.209397     5A    -11.205100     6A     -1.360521
       7A     -1.063292     8A     -0.942086     9A     -0.938637
      10A     -0.775603    11A     -0.670163    12A     -0.622403
      13A     -0.621133    14A     -0.574675    15A     -0.556791
      16A     -0.531430    17A     -0.516788    18A     -0.508928
      19A     -0.502977    20A     -0.457081    21A     -0.425213

  @DF-RHF Final Energy:  -232.15322973028231

   => Energetics <=

    Nuclear Repulsion Energy =            200.3500158162377716
    One-Electron Energy =                -711.9545600959709191
    Two-Electron Energy =                 279.4513145494510127
    DFT Exchange-Correlation Energy =       0.0000000000000000
    Empirical Dispersion Energy =           0.0000000000000000
    PCM Polarization Energy =               0.0000000000000000
    EFP Energy =                            0.0000000000000000
    Total Energy =                       -232.1532297302821348
    Molecular point group: c1
  Basis Set: 6-31G*
  Basis Set:

  -Total Gradient:
     Atom            X                  Y                   Z
    ------   -----------------  -----------------  -----------------
       1       -0.000024136553    -0.000983755173     0.000062425565
       2        0.000221585560     0.001280895318     0.000042962243
       3       -0.000739917899    -0.000451909332     0.000056719089
       4        0.000536572568     0.000193321037    -0.000073822728
       5       -0.000001893249    -0.000020760537    -0.000001458406
       6        0.000010479505    -0.000008053431    -0.000064740961
       7       -0.000008290902     0.000014491313    -0.000011008088
       8        0.000001529954    -0.000023506914    -0.000007805966
       9       -0.000007870998     0.000024482928    -0.000003936965
      10        0.000002069589     0.000021994290    -0.000000004777
      11        0.000016650611    -0.000023309281     0.000002229780
      12       -0.000006270628    -0.000006762201    -0.000012031612
      13       -0.000018373617    -0.000011239763     0.000009832555
      14        0.000001562631     0.000002086070     0.000004094538
      15        0.000016303427    -0.000007974324    -0.000003454268

  **** Optimization is complete! (in 7 steps) ****
    Final optimized geometry and variables:
    Molecular point group: c1

    Geometry (in Angstrom), charge = 0, multiplicity = 1:

    H           -0.827103872926     0.076213310127     1.739357670593
    O            0.052165809432     0.037555337931     1.387850537650
    C           -0.004253611062     0.000420337941    -0.026277507668
    C           -0.472803041494     1.358736733950    -0.552013151890
    C            1.424610100868    -0.286362821653    -0.475316339019
    C           -0.947793900268    -1.116063355495    -0.476647983562
    H           -0.491653173313     1.379478441516    -1.637257175066
    H            0.189500618098     2.142853031712    -0.202658985890
    H           -1.475949143094     1.584125678117    -0.198131397412
    H            1.493825319438    -0.315428707944    -1.558002072177
    H            2.093684914930     0.483309606197    -0.107206749953
    H            1.758070942541    -1.239590407863    -0.080785420970
    H           -0.978599705783    -1.194865977453    -1.558499664759
    H           -1.962350455881    -0.928387471198    -0.131646436519
    H           -0.624471675258    -2.068540145833    -0.070881023980

  Mulliken Charges: (a.u.)
   Center  Symbol    Alpha    Beta     Spin     Total
       1     H     0.28375  0.28375  0.00000  0.43250
       2     O     4.37619  4.37619  0.00000 -0.75238
       3     C     2.85312  2.85312  0.00000  0.29377
       4     C     3.23818  3.23818  0.00000 -0.47636
       5     C     3.23361  3.23361  0.00000 -0.46722
       6     C     3.24486  3.24486  0.00000 -0.48972
       7     H     0.42235  0.42235  0.00000  0.15530
       8     H     0.41236  0.41236  0.00000  0.17529
       9     H     0.42640  0.42640  0.00000  0.14720
      10     H     0.42414  0.42414  0.00000  0.15171
      11     H     0.41295  0.41295  0.00000  0.17410
      12     H     0.41401  0.41401  0.00000  0.17198
      13     H     0.41947  0.41947  0.00000  0.16106
      14     H     0.42644  0.42644  0.00000  0.14713
      15     H     0.41217  0.41217  0.00000  0.17565

   Total alpha = 21.00000, Total beta = 21.00000, Total charge = -0.00000
