  ==> Input File <==

--------------------------------------------------------------------------
set {
	reference rhf
	basis 6-31G*
}

set_num_threads( 1 )
memory 2 gb

molecule MOL {
0 1

H	 -1.836216	 1.387520	 -0.000064
C	 -1.301823	 0.443321	 -0.000031
O	 -0.003969	 0.658512	 0.000451
O	 -1.829879	 -0.616434	 -0.000857
C	 0.484137	 1.723260	 0.816080
C	 1.987631	 1.769951	 0.649811
H	 0.198986	 1.535293	 1.842079
H	 0.016111	 2.646152	 0.502205
H	 2.438503	 0.834717	 0.961395
H	 2.400318	 2.569304	 1.256407
H	 2.254912	 1.950945	 -0.384930

	symmetry c1
}
set optking {
	frozen_dihedral = ("
		7 5 3 2
	")
}

ee = energy('scf')
oeprop('DIPOLE', 'QUADRUPOLE', 'MULLIKEN_CHARGES')
f=open( 'psi4out.xyz', 'w' )
f.write( "11  " )
f.write( str(ee) + "\n" )
f.write( MOL.save_string_xyz() )
f.close()
--------------------------------------------------------------------------

    Molecular point group: c1

    Geometry (in Angstrom), charge = 0, multiplicity = 1:

       Center              X                  Y                   Z               Mass
    ------------   -----------------  -----------------  -----------------  -----------------
           H         -1.704153734728     0.591688123193    -0.294425857861     1.007825032070
           C         -1.169760734728    -0.352510876807    -0.294392857861    12.000000000000
           O          0.128093265272    -0.137319876807    -0.293910857861    15.994914619560
           O         -1.697816734728    -1.412265876807    -0.295218857861    15.994914619560
           C          0.616199265272     0.927428123193     0.521718142139    12.000000000000
           C          2.119693265272     0.974119123193     0.355449142139    12.000000000000
           H          0.331048265272     0.739461123193     1.547717142139     1.007825032070
           H          0.148173265272     1.850320123193     0.207843142139     1.007825032070
           H          2.570565265272     0.038885123193     0.667033142139     1.007825032070
           H          2.532380265272     1.773472123193     0.962045142139     1.007825032070
           H          2.386974265272     1.155113123193    -0.679291857861     1.007825032070

  Charge       = 0
  Multiplicity = 1
  Basis Set: 6-31G*
  Basis Set:

    Orbital Energies (a.u.)
    -----------------------

    Doubly Occupied:

       1A    -20.606357     2A    -20.560682     3A    -11.379534
       4A    -11.308914     5A    -11.234997     6A     -1.471693
       7A     -1.379289     8A     -1.057128     9A     -0.890630
      10A     -0.846590    11A     -0.739221    12A     -0.692994
      13A     -0.664817    14A     -0.615408    15A     -0.568306
      16A     -0.558126    17A     -0.535546    18A     -0.515146
      19A     -0.461340    20A     -0.450452

  @DF-RHF Final Energy:  -266.81437806566390

   => Energetics <=

    Nuclear Repulsion Energy =            176.3460480590581483
    One-Electron Energy =                -713.2465160988807611
    Two-Electron Energy =                 270.0860899741583125
    DFT Exchange-Correlation Energy =       0.0000000000000000
    Empirical Dispersion Energy =           0.0000000000000000
    PCM Polarization Energy =               0.0000000000000000
    EFP Energy =                            0.0000000000000000
    Total Energy =                       -266.8143780656643003

  Mulliken Charges: (a.u.)
   Center  Symbol    Alpha    Beta     Spin     Total
       1     H     0.43594  0.43594  0.00000  0.12812
       2     C     2.72031  2.72031  0.00000  0.55938
       3     O     4.28841  4.28841  0.00000 -0.57681
       4     O     4.24429  4.24429  0.00000 -0.48859
       5     C     3.00963  3.00963  0.00000 -0.01927
       6     C     3.24741  3.24741  0.00000 -0.49482
       7     H     0.41110  0.41110  0.00000  0.17781
       8     H     0.41686  0.41686  0.00000  0.16629
       9     H     0.40391  0.40391  0.00000  0.19218
      10     H     0.41529  0.41529  0.00000  0.16942
      11     H     0.40686  0.40686  0.00000  0.18629

   Total alpha = 20.00000, Total beta = 20.00000, Total charge =  0.00000
