                              Psi4 1.0.54 Driver

  ==> Input File <==

--------------------------------------------------------------------------
set {
	reference rhf
	basis cc-pvtz
}

set_num_threads( 4 )
memory 2 gb

molecule MOL {
0 1

H	 3.459101	 0.139266	 -0.762951
C	 2.749156	 -0.051729	 0.031265
C	 1.322304	 0.099773	 -0.484271
H	 2.929445	 -1.053887	 0.403481
H	 2.954281	 0.646699	 0.834672
C	 0.308557	 -0.162619	 0.622645
H	 1.143368	 -0.594400	 -1.295960
H	 1.169532	 1.100095	 -0.870217
N	 -1.069352	 -0.004081	 0.085342
H	 0.371632	 -1.172932	 0.991288
H	 0.400391	 0.548875	 1.426218
O	 -1.950244	 -0.514266	 0.692234
O	 -1.190550	 0.597018	 -0.929021

	symmetry c1
}
set optking {
	frozen_dihedral = ("
		12 9 6 3
	")
}

ee,wfn = optimize('scf', return_wfn=True)
oeprop( wfn, 'DIPOLE', 'QUADRUPOLE', 'MULLIKEN_CHARGES')
f=open( 'psi4out.xyz', 'w' )
f.write( "13  " )
f.write( str(ee) + "\n" )
f.write( MOL.save_string_xyz() )
f.close()
--------------------------------------------------------------------------

    Molecular point group: c1
  Charge       = 0
  Multiplicity = 1
  Basis Set: CC-PVTZ
  Basis Set:
  @DF-RHF Final Energy:  -321.85872984344280
    Total Energy =                       -321.8587298434426884
    Molecular point group: c1
  Basis Set: CC-PVTZ
  Basis Set:
  Basis Set: CC-PVTZ
  Basis Set:
  @DF-RHF Final Energy:  -321.61585655438250
    Total Energy =                       -321.6158565543822760
  Basis Set: CC-PVTZ
  Basis Set:
  Basis Set: CC-PVTZ
  Basis Set:
  @DF-RHF Final Energy:  -321.76433327403981
    Total Energy =                       -321.7643332740400410
  Basis Set: CC-PVTZ
  Basis Set:
  Basis Set: CC-PVTZ
  Basis Set:
  @DF-RHF Final Energy:  -321.84881741499322
    Total Energy =                       -321.8488174149934480
  Basis Set: CC-PVTZ
  Basis Set:
  @DF-RHF Final Energy:  -321.85593223719502
    Total Energy =                       -321.8559322371951339
  @DF-RHF Final Energy:  -321.85848038259348
    Total Energy =                       -321.8584803825934841
  @DF-RHF Final Energy:  -321.85643368365629
    Total Energy =                       -321.8564336836562347
  Basis Set: CC-PVTZ
  Basis Set:
  @DF-RHF Final Energy:  -321.86048290189512
    Total Energy =                       -321.8604829018952387
  Basis Set: CC-PVTZ
  Basis Set:
  Basis Set: CC-PVTZ
  Basis Set:
  @DF-RHF Final Energy:  -321.86058246491024
    Total Energy =                       -321.8605824649102942
  Basis Set: CC-PVTZ
  Basis Set:
  Basis Set: CC-PVTZ
  Basis Set:
  @DF-RHF Final Energy:  -321.86061224162415
    Total Energy =                       -321.8606122416242101
  Basis Set: CC-PVTZ
  Basis Set:
  Charge       = 0
  Multiplicity = 1
  Basis Set: CC-PVTZ
  Basis Set:

    Orbital Energies (a.u.)
    -----------------------

    Doubly Occupied:

       1A    -20.592626     2A    -20.588757     3A    -15.838389
       4A    -11.298989     5A    -11.247490     6A    -11.235066
       7A     -1.637185     8A     -1.421257     9A     -1.131787
      10A     -1.026794    11A     -0.884846    12A     -0.827244
      13A     -0.763398    14A     -0.750978    15A     -0.730839
      16A     -0.658816    17A     -0.607081    18A     -0.577468
      19A     -0.553405    20A     -0.522336    21A     -0.509754
      22A     -0.488017    23A     -0.474491    24A     -0.453971

  @DF-RHF Final Energy:  -321.86061267320997

   => Energetics <=

    Nuclear Repulsion Energy =            247.6372226099409488
    One-Electron Energy =                -929.3536976200582558
    Two-Electron Energy =                 359.8558623369074212
    DFT Exchange-Correlation Energy =       0.0000000000000000
    Empirical Dispersion Energy =           0.0000000000000000
    PCM Polarization Energy =               0.0000000000000000
    EFP Energy =                            0.0000000000000000
    Total Energy =                       -321.8606126732098573
    Molecular point group: c1
  Basis Set: CC-PVTZ
  Basis Set:

  -Total Gradient:
     Atom            X                  Y                   Z
    ------   -----------------  -----------------  -----------------
       1       -0.000010974730     0.000012070200     0.000000981601
       2       -0.000008524300     0.000018948057     0.000037263331
       3        0.000009645529     0.000134187003     0.000069486386
       4       -0.000006655563    -0.000001554488    -0.000005408891
       5        0.000012955450    -0.000003264916     0.000007432388
       6       -0.000003892932    -0.000197131508    -0.000065753740
       7       -0.000004181411     0.000005749943    -0.000016986874
       8       -0.000002118141     0.000009584100    -0.000006198930
       9       -0.000031140785    -0.000205208806    -0.000257742869
      10       -0.000011462424     0.000014110652    -0.000007128875
      11        0.000011197957    -0.000003273922     0.000028145489
      12        0.000040358600     0.000236778560     0.000192127697
      13        0.000004792748    -0.000020994876     0.000023783286

  **** Optimization is complete! (in 11 steps) ****
    Final optimized geometry and variables:
    Molecular point group: c1

    Geometry (in Angstrom), charge = 0, multiplicity = 1:

    H            2.716363403814     0.556310973483    -2.275473434945
    C            2.431786736752     0.117230597500    -1.328202728065
    C            0.947021502705     0.348611703619    -1.061141297617
    H            2.669318777303    -0.940015356386    -1.368840689505
    H            3.047430889819     0.567640618323    -0.557224738797
    C            0.543602659916    -0.263918673408     0.264916624948
    H            0.354247462398    -0.089738384313    -1.854666465222
    H            0.727901895606     1.406457574597    -1.053367990176
    N           -0.906508762809    -0.102357120175     0.585229858071
    H            0.721545637291    -1.325810625476     0.310639876873
    H            1.053157535268     0.200143115838     1.098612602027
    O           -1.350797047378    -0.849349071177     1.391183915489
    O           -1.509695336204     0.763841180396     0.049463838978

  Mulliken Charges: (a.u.)
   Center  Symbol    Alpha    Beta     Spin     Total
       1     H     0.44130  0.44130  0.00000  0.11741
       2     C     3.15249  3.15249  0.00000 -0.30499
       3     C     3.09187  3.09187  0.00000 -0.18374
       4     H     0.45289  0.45289  0.00000  0.09423
       5     H     0.45305  0.45305  0.00000  0.09391
       6     C     3.04574  3.04574  0.00000 -0.09148
       7     H     0.44231  0.44231  0.00000  0.11539
       8     H     0.43605  0.43605  0.00000  0.12791
       9     N     3.27377  3.27377  0.00000  0.45247
      10     H     0.43202  0.43202  0.00000  0.13596
      11     H     0.43533  0.43533  0.00000  0.12935
      12     O     4.17324  4.17324  0.00000 -0.34648
      13     O     4.16996  4.16996  0.00000 -0.33991

   Total alpha = 24.00000, Total beta = 24.00000, Total charge = -0.00000

*** Psi4 exiting successfully. Buy a developer a beer!
