  ==> Input File <==

--------------------------------------------------------------------------
set {
	reference rhf
	basis 6-31G*
}

set_num_threads( 4 )
memory 2 gb

molecule MOL {
0 1

H	 -3.650283	 0.221984	 0.000000
C	 -2.577024	 0.154109	 0.000000
C	 -1.960329	 -1.089307	 0.000000
C	 -1.811733	 1.307557	 0.000000
H	 -2.554473	 -1.985285	 0.000000
C	 -0.581547	 -1.175855	 0.000000
H	 -2.287118	 2.271701	 0.000000
C	 -0.428719	 1.219221	 0.000000
H	 -0.090826	 -2.129898	 0.000000
C	 0.198341	 -0.021559	 0.000000
H	 0.149947	 2.124040	 0.000000
C	 1.691355	 -0.173192	 0.000000
C	 2.292392	 -1.544139	 0.229789
O	 2.398280	 0.774258	 -0.178801
H	 1.994680	 -1.940953	 1.195028
H	 3.368834	 -1.457108	 0.195344
H	 1.963912	 -2.243903	 -0.531926

	symmetry c1
}
set optking {
	frozen_dihedral = ("
		13 12 10 8
	")
}

ee = optimize('scf')
oeprop('DIPOLE', 'QUADRUPOLE', 'MULLIKEN_CHARGES')
f=open( 'psi4out.xyz', 'w' )
f.write( "17  " )
f.write( str(ee) + "\n" )
f.write( MOL.save_string_xyz() )
f.close()
--------------------------------------------------------------------------

    Molecular point group: c1
  Charge       = 0
  Multiplicity = 1
  Basis Set: 6-31G*
  Basis Set:
  @DF-RHF Final Energy:  -382.47347700396239
    Total Energy =                       -382.4734770039619889
    Molecular point group: c1
  Basis Set: 6-31G*
  Basis Set:
  Basis Set: 6-31G*
  Basis Set:
  @DF-RHF Final Energy:  -382.47477595350080
    Total Energy =                       -382.4747759535005116
  Basis Set: 6-31G*
  Basis Set:
  Basis Set: 6-31G*
  Basis Set:
  @DF-RHF Final Energy:  -382.47315423176730
    Total Energy =                       -382.4731542317670119
  Basis Set: 6-31G*
  Basis Set:
  Basis Set: 6-31G*
  Basis Set:
  @DF-RHF Final Energy:  -382.47554330648632
    Total Energy =                       -382.4755433064864292
  Basis Set: 6-31G*
  Basis Set:
  Basis Set: 6-31G*
  Basis Set:
  @DF-RHF Final Energy:  -382.47558526776595
    Total Energy =                       -382.4755852677658368
  Basis Set: 6-31G*
  Basis Set:
  Basis Set: 6-31G*
  Basis Set:
  @DF-RHF Final Energy:  -382.47559068608473
    Total Energy =                       -382.4755906860843879
  Basis Set: 6-31G*
  Basis Set:
  Charge       = 0
  Multiplicity = 1
  Basis Set: 6-31G*
  Basis Set:

    Orbital Energies (a.u.)
    -----------------------

    Doubly Occupied:

       1A    -20.550168     2A    -11.331691     3A    -11.248816
       4A    -11.246082     5A    -11.243050     6A    -11.240528
       7A    -11.240340     8A    -11.237949     9A    -11.229655
      10A     -1.396677    11A     -1.165617    12A     -1.049757
      13A     -1.026409    14A     -0.996197    15A     -0.861080
      16A     -0.834797    17A     -0.759633    18A     -0.709136
      19A     -0.654949    20A     -0.646598    21A     -0.625246
      22A     -0.607174    23A     -0.598356    24A     -0.596446
      25A     -0.553189    26A     -0.524576    27A     -0.518056
      28A     -0.500296    29A     -0.491218    30A     -0.410606
      31A     -0.345599    32A     -0.341387

  @DF-RHF Final Energy:  -382.47559140992718

   => Energetics <=

    Nuclear Repulsion Energy =            403.5543365119106625
    One-Electron Energy =               -1318.4972953398987556
    Two-Electron Energy =                 532.4673674180605758
    DFT Exchange-Correlation Energy =       0.0000000000000000
    Empirical Dispersion Energy =           0.0000000000000000
    PCM Polarization Energy =               0.0000000000000000
    EFP Energy =                            0.0000000000000000
    Total Energy =                       -382.4755914099275742
    Molecular point group: c1
  Basis Set: 6-31G*
  Basis Set:

  -Total Gradient:
     Atom            X                  Y                   Z
    ------   -----------------  -----------------  -----------------
       1       -0.000001471908    -0.000013962463     0.000010714218
       2        0.000034724467     0.000129752827    -0.000029676332
       3        0.000100319712    -0.000063333302     0.000003129893
       4       -0.000110634471    -0.000042983158     0.000008333041
       5       -0.000011041500     0.000009385793     0.000003400357
       6       -0.000090132987    -0.000066362667     0.000016474256
       7        0.000003032194     0.000000738024    -0.000004552850
       8        0.000023817504    -0.000032595177     0.001077718592
       9        0.000001149870     0.000019052117     0.000006835979
      10        0.000017038534     0.000164897225    -0.001085441737
      11        0.000007021583    -0.000000223962    -0.000003745721
      12        0.000056351811    -0.000228169437    -0.000976032794
      13        0.000025381252     0.000174894518     0.000990275778
      14       -0.000047888427    -0.000019827625     0.000011974808
      15       -0.000002178655     0.000002458929    -0.000009540090
      16       -0.000004113736    -0.000025521515    -0.000002131511
      17       -0.000001375244    -0.000008200124    -0.000017735886

  **** Optimization is complete! (in 7 steps) ****
    Final optimized geometry and variables:
    Molecular point group: c1

    Geometry (in Angstrom), charge = 0, multiplicity = 1:

    H           -3.640312187160     0.345670039648     0.006194517112
    C           -2.569473243066     0.246567778582    -0.000002018279
    C           -1.991889385391    -1.011667947540     0.001916015987
    C           -1.767794106592     1.379229956453    -0.007854256514
    H           -2.611020898152    -1.890499506020     0.007816301843
    C           -0.612131432265    -1.138835285975    -0.000928223811
    H           -2.215922084236     2.356439184403    -0.006444694460
    C           -0.392025105672     1.250982487909    -0.017834625115
    H           -0.180016928100    -2.122157842854     0.004534459426
    C            0.199377258011    -0.009959974130    -0.016291255179
    H            0.240339757444     2.117743099484    -0.028084676718
    C            1.697819536980    -0.092114970137    -0.013961742723
    C            2.360091457135    -1.434337404540     0.217670361875
    O            2.360129594038     0.890407323479    -0.172561462874
    H            2.019252516003    -1.879729347061     1.146415772829
    H            3.429839666562    -1.287600656154     0.257372082111
    H            2.126573746550    -2.125132412994    -0.586538895026

  Mulliken Charges: (a.u.)
   Center  Symbol    Alpha    Beta     Spin     Total
       1     H     0.39531  0.39531  0.00000  0.20938
       2     C     3.09225  3.09225  0.00000 -0.18451
       3     C     3.10434  3.10434  0.00000 -0.20867
       4     C     3.10394  3.10394  0.00000 -0.20788
       5     H     0.39642  0.39642  0.00000  0.20716
       6     C     3.10291  3.10291  0.00000 -0.20581
       7     H     0.39519  0.39519  0.00000  0.20963
       8     C     3.08872  3.08872  0.00000 -0.17744
       9     H     0.39353  0.39353  0.00000  0.21294
      10     C     3.05791  3.05791  0.00000 -0.11582
      11     H     0.37640  0.37640  0.00000  0.24721
      12     C     2.72627  2.72627  0.00000  0.54745
      13     C     3.29279  3.29279  0.00000 -0.58558
      14     O     4.26842  4.26842  0.00000 -0.53684
      15     H     0.40576  0.40576  0.00000  0.18849
      16     H     0.39331  0.39331  0.00000  0.21339
      17     H     0.40654  0.40654  0.00000  0.18692

   Total alpha = 32.00000, Total beta = 32.00000, Total charge = -0.00000
