  ==> Input File <==

--------------------------------------------------------------------------
set {
	reference rhf
	basis cc-pvtz
}

set_num_threads( 4 )
memory 2 gb

molecule MOL {
0 1

H	 -2.816458	 -0.841657	 -0.064679
N	 -1.878861	 -0.711874	 0.250184
C	 -1.341419	 0.551458	 -0.220231
H	 -1.333674	 -1.468530	 -0.105118
C	 0.082190	 0.731516	 0.254705
H	 -1.357065	 0.652078	 -1.304747
H	 -1.939897	 1.357530	 0.189797
O	 0.675474	 1.758734	 -0.480512
H	 0.089469	 0.978361	 1.315454
H	 0.633547	 -0.195782	 0.116679
C	 2.014768	 1.979022	 -0.185577
H	 2.362931	 2.791044	 -0.807500
H	 2.152055	 2.254825	 0.857869
H	 2.617486	 1.097333	 -0.390314

	symmetry c1
}
set optking {
	frozen_dihedral = ("
		8 5 3 6
	")
}

ee = optimize('scf')
oeprop('DIPOLE', 'QUADRUPOLE', 'MULLIKEN_CHARGES')
f=open( 'psi4out.xyz', 'w' )
f.write( "14  " )
f.write( str(ee) + "\n" )
f.write( MOL.save_string_xyz() )
f.close()
--------------------------------------------------------------------------

    Molecular point group: c1
  Charge       = 0
  Multiplicity = 1
  Basis Set: CC-PVTZ
  Basis Set:
  @DF-RHF Final Energy:  -248.22327031141074
    Total Energy =                       -248.2232703114107153
    Molecular point group: c1
  Basis Set: CC-PVTZ
  Basis Set:
  Basis Set: CC-PVTZ
  Basis Set:
  @DF-RHF Final Energy:  -248.22388888846433
    Total Energy =                       -248.2238888884641597
  Basis Set: CC-PVTZ
  Basis Set:
  Basis Set: CC-PVTZ
  Basis Set:
  @DF-RHF Final Energy:  -248.22400339724314
    Total Energy =                       -248.2240033972432229
  Basis Set: CC-PVTZ
  Basis Set:
  Basis Set: CC-PVTZ
  Basis Set:
  @DF-RHF Final Energy:  -248.22401753672031
    Total Energy =                       -248.2240175367203392
  Basis Set: CC-PVTZ
  Basis Set:
  Charge       = 0
  Multiplicity = 1
  Basis Set: CC-PVTZ
  Basis Set:

    Orbital Energies (a.u.)
    -----------------------

    Doubly Occupied:

       1A    -20.548641     2A    -15.532542     3A    -11.262302
       4A    -11.262234     5A    -11.239688     6A     -1.383081
       7A     -1.182779     8A     -0.999904     9A     -0.900370
      10A     -0.823584    11A     -0.688156    12A     -0.667425
      13A     -0.653611    14A     -0.622414    15A     -0.587877
      16A     -0.570030    17A     -0.515727    18A     -0.498145
      19A     -0.471409    20A     -0.417056    21A     -0.390135

  @DF-RHF Final Energy:  -248.22401815360382

   => Energetics <=

    Nuclear Repulsion Energy =            191.1052813638992234
    One-Electron Energy =                -716.2243859990448982
    Two-Electron Energy =                 276.8950864815415684
    DFT Exchange-Correlation Energy =       0.0000000000000000
    Empirical Dispersion Energy =           0.0000000000000000
    PCM Polarization Energy =               0.0000000000000000
    EFP Energy =                            0.0000000000000000
    Total Energy =                       -248.2240181536041632
    Molecular point group: c1
  Basis Set: CC-PVTZ
  Basis Set:

  -Total Gradient:
     Atom            X                  Y                   Z
    ------   -----------------  -----------------  -----------------
       1        0.000000416001     0.000006926375    -0.000008907363
       2        0.000033278318    -0.000010804848     0.000009789601
       3        0.000713513476    -0.003918954665    -0.000773539515
       4       -0.000002680684    -0.000029620037    -0.000001010520
       5       -0.000937558871     0.002640447075     0.002032961201
       6       -0.000420773229     0.002860225067     0.000265235499
       7        0.000006501359     0.000023450053    -0.000006265670
       8        0.000661569963    -0.001538849890    -0.001533063888
       9       -0.000018557694    -0.000009719178     0.000017322167
      10       -0.000003428067    -0.000018204893     0.000006522035
      11       -0.000006053445     0.000015091339     0.000005764766
      12       -0.000002434625    -0.000005411974    -0.000009057582
      13       -0.000010618007    -0.000009485468    -0.000002059592
      14       -0.000013174489    -0.000005088956    -0.000003691140

  **** Optimization is complete! (in 5 steps) ****
    Final optimized geometry and variables:
    Molecular point group: c1

    Geometry (in Angstrom), charge = 0, multiplicity = 1:

    H           -2.786812672273    -1.598580698951     0.239602661500
    N           -1.797624619494    -1.559655884451     0.357123951509
    C           -1.257314923719    -0.311806813195    -0.150495434265
    H           -1.409965973121    -2.343750667787    -0.123952979591
    C            0.178146395783    -0.140630999332     0.309516355397
    H           -1.284520803579    -0.210145712746    -1.233075455359
    H           -1.851232348551     0.502927037925     0.246489325231
    O            0.768868329380     0.880835164882    -0.429336114116
    H            0.207033671014     0.079042592648     1.374017400330
    H            0.723947048442    -1.072640250434     0.157714005373
    C            2.076869229467     1.171352812898    -0.065240789404
    H            2.431311373391     1.965664577933    -0.706128137913
    H            2.139333947250     1.501735126945     0.969182121544
    H            2.725782199665     0.306662130537    -0.188602482451

  Mulliken Charges: (a.u.)
   Center  Symbol    Alpha    Beta     Spin     Total
       1     H     0.42680  0.42680  0.00000  0.14641
       2     N     3.69530  3.69530  0.00000 -0.39061
       3     C     3.03201  3.03201  0.00000 -0.06402
       4     H     0.42895  0.42895  0.00000  0.14210
       5     C     2.95219  2.95219  0.00000  0.09562
       6     H     0.46262  0.46262  0.00000  0.07477
       7     H     0.45564  0.45564  0.00000  0.08871
       8     O     4.17409  4.17409  0.00000 -0.34818
       9     H     0.47054  0.47054  0.00000  0.05892
      10     H     0.48055  0.48055  0.00000  0.03890
      11     C     3.03100  3.03100  0.00000 -0.06199
      12     H     0.44728  0.44728  0.00000  0.10543
      13     H     0.47083  0.47083  0.00000  0.05835
      14     H     0.47220  0.47220  0.00000  0.05560

   Total alpha = 21.00000, Total beta = 21.00000, Total charge = -0.00000
