  ==> Input File <==

--------------------------------------------------------------------------
set {
	reference rhf
	basis 6-31G*
}

set_num_threads( 4 )
memory 2 gb

molecule MOL {
0 1

O	 0.606207	 -0.181888	 0.343649
C	 1.705091	 0.115954	 0.001797
C	 2.136937	 1.481293	 -0.474885
O	 2.721346	 -0.737485	 -0.000216
C	 1.005003	 2.504099	 -0.490263
H	 2.952316	 1.805954	 0.165790
H	 2.569668	 1.357986	 -1.463955
C	 1.470384	 3.877587	 -0.976074
H	 0.585522	 2.588220	 0.507308
H	 0.202982	 2.140417	 -1.124932
C	 0.347595	 4.916223	 -0.996992
H	 2.277048	 4.235208	 -0.337797
H	 1.892148	 3.786161	 -1.975893
C	 0.812922	 6.288044	 -1.483644
H	 -0.073089	 5.010612	 0.001635
H	 -0.458586	 4.560818	 -1.634877
H	 1.596186	 6.686122	 -0.844703
H	 -0.004944	 7.001859	 -1.487415
H	 1.208079	 6.232646	 -2.494135
C	 4.024888	 -0.184556	 -0.001949
H	 4.179030	 0.422472	 -0.882452
H	 4.701782	 -1.024608	 -0.003642
H	 4.181981	 0.421185	 0.878906

	symmetry c1
}
set optking {
	frozen_dihedral = ("
		1 2 4 20
	")
}

ee = optimize('scf')
oeprop('DIPOLE', 'QUADRUPOLE', 'MULLIKEN_CHARGES')
f=open( 'psi4out.xyz', 'w' )
f.write( "23  " )
f.write( str(ee) + "\n" )
f.write( MOL.save_string_xyz() )
f.close()
--------------------------------------------------------------------------

    Molecular point group: c1
  Charge       = 0
  Multiplicity = 1
  Basis Set: 6-31G*
  Basis Set:
  @DF-RHF Final Energy:  -422.94994280594864
    Total Energy =                       -422.9499428059489219
    Molecular point group: c1
  Basis Set: 6-31G*
  Basis Set:
  Basis Set: 6-31G*
  Basis Set:
  @DF-RHF Final Energy:  -422.94865939636230
    Total Energy =                       -422.9486593963622454
  Basis Set: 6-31G*
  Basis Set:
  Basis Set: 6-31G*
  Basis Set:
  @DF-RHF Final Energy:  -422.95770598686244
    Total Energy =                       -422.9577059868622655
  Basis Set: 6-31G*
  Basis Set:
  Basis Set: 6-31G*
  Basis Set:
  @DF-RHF Final Energy:  -422.95970089819315
    Total Energy =                       -422.9597008981933186
  Basis Set: 6-31G*
  Basis Set:
  @DF-RHF Final Energy:  -422.95881236332627
    Total Energy =                       -422.9588123633263876
  Basis Set: 6-31G*
  Basis Set:
  @DF-RHF Final Energy:  -422.96026917616001
    Total Energy =                       -422.9602691761606366
  Basis Set: 6-31G*
  Basis Set:
  Basis Set: 6-31G*
  Basis Set:
  @DF-RHF Final Energy:  -422.96042505117867
    Total Energy =                       -422.9604250511789587
  Basis Set: 6-31G*
  Basis Set:
  Basis Set: 6-31G*
  Basis Set:
  @DF-RHF Final Energy:  -422.96043295606216
    Total Energy =                       -422.9604329560625047
  Basis Set: 6-31G*
  Basis Set:
  Charge       = 0
  Multiplicity = 1
  Basis Set: 6-31G*
  Basis Set:

    Orbital Energies (a.u.)
    -----------------------

    Doubly Occupied:

       1A    -20.600383     2A    -20.540885     3A    -11.373800
       4A    -11.296250     5A    -11.245430     6A    -11.223502
       7A    -11.221865     8A    -11.219287     9A    -11.212168
      10A     -1.462387    11A     -1.365160    12A     -1.096485
      13A     -1.041861    14A     -0.986610    15A     -0.952460
      16A     -0.854328    17A     -0.799317    18A     -0.766576
      19A     -0.700251    20A     -0.688597    21A     -0.672502
      22A     -0.655215    23A     -0.613786    24A     -0.603250
      25A     -0.579904    26A     -0.567728    27A     -0.561633
      28A     -0.537901    29A     -0.518014    30A     -0.510161
      31A     -0.490117    32A     -0.472795    33A     -0.469254
      34A     -0.464511    35A     -0.447027    36A     -0.429776

  @DF-RHF Final Energy:  -422.96043331738900

   => Energetics <=

    Nuclear Repulsion Energy =            454.7274754280223874
    One-Electron Energy =               -1476.8934632482942106
    Two-Electron Energy =                 599.2055545028825918
    DFT Exchange-Correlation Energy =       0.0000000000000000
    Empirical Dispersion Energy =           0.0000000000000000
    PCM Polarization Energy =               0.0000000000000000
    EFP Energy =                            0.0000000000000000
    Total Energy =                       -422.9604333173891746
    Molecular point group: c1
  Basis Set: 6-31G*
  Basis Set:

  -Total Gradient:
     Atom            X                  Y                   Z
    ------   -----------------  -----------------  -----------------
       1        0.000591906105     0.000536830321     0.002060390532
       2       -0.000829070110    -0.000740002229    -0.001948650247
       3        0.000014847754    -0.000003005619     0.000066147267
       4        0.000224891441     0.000229587404    -0.002118041223
       5        0.000003180297    -0.000004402932    -0.000009973562
       6       -0.000016832621     0.000008001491    -0.000016425388
       7        0.000004464718    -0.000032493182     0.000001900184
       8       -0.000000936400     0.000008043136     0.000003860492
       9       -0.000000514873     0.000001939336     0.000003897027
      10        0.000004391373    -0.000003991793    -0.000000330074
      11       -0.000003238312     0.000001854631    -0.000002799390
      12        0.000001401941    -0.000000004873    -0.000000647389
      13       -0.000002845983    -0.000003917824    -0.000000107191
      14        0.000002805792    -0.000001510167     0.000003006104
      15       -0.000000777077    -0.000000454665     0.000000583901
      16        0.000000080952    -0.000000357680    -0.000001412613
      17        0.000001171666     0.000001118316     0.000000017290
      18        0.000000149971    -0.000002524226     0.000001227545
      19       -0.000000771519    -0.000000100139    -0.000000727516
      20       -0.000034224032    -0.000005639570     0.002013617292
      21       -0.000038096141     0.000023876081    -0.000026482202
      22        0.000011761179     0.000008595399    -0.000009108292
      23        0.000066253884    -0.000021441210    -0.000019942545

  **** Optimization is complete! (in 9 steps) ****
    Final optimized geometry and variables:
    Molecular point group: c1

    Geometry (in Angstrom), charge = 0, multiplicity = 1:

    O           -0.993807329814    -2.080288230045     0.806873040841
    C            0.104540008559    -1.807451644467     0.460349658664
    C            0.510798139491    -0.425207464266    -0.012285633187
    O            1.041144217878    -2.762306515283     0.455943000295
    C           -0.660469164108     0.553284584798    -0.050588694159
    H            1.295093186053    -0.046437503662     0.638086356424
    H            0.959679918691    -0.522350012864    -0.997866649364
    C           -0.238638375723     1.942037516742    -0.532620958336
    H           -1.099261627434     0.621115567013     0.939110757175
    H           -1.435179528183     0.155514154772    -0.697530311106
    C           -1.400764090703     2.935740649761    -0.577914467748
    H            0.541062664672     2.333578809830     0.119448838520
    H            0.204752437593     1.865205780495    -1.524452799273
    C           -0.980003846995     4.323887821476    -1.058718634720
    H           -1.844140556220     3.014932983780     0.412039784183
    H           -2.179502966282     2.547734873103    -1.230479015271
    H           -0.225517269565     4.753600059547    -0.405693314086
    H           -1.824997271554     5.004871003524    -1.079843549319
    H           -0.563707456887     4.282585192937    -2.061365800055
    C            2.419032017199    -2.473244547180     0.464544547397
    H            2.730823457716    -1.955063027978    -0.433478980367
    H            2.918867507412    -3.428178295948     0.510439084755
    H            2.693946433140    -1.889753446821     1.334792077538

  Mulliken Charges: (a.u.)
   Center  Symbol    Alpha    Beta     Spin     Total
       1     O     4.26555  4.26555  0.00000 -0.53110
       2     C     2.59834  2.59834  0.00000  0.80332
       3     C     3.23394  3.23394  0.00000 -0.46788
       4     O     4.30436  4.30436  0.00000 -0.60873
       5     C     3.14884  3.14884  0.00000 -0.29768
       6     H     0.40510  0.40510  0.00000  0.18981
       7     H     0.40297  0.40297  0.00000  0.19406
       8     C     3.15385  3.15385  0.00000 -0.30769
       9     H     0.40874  0.40874  0.00000  0.18252
      10     H     0.40903  0.40903  0.00000  0.18193
      11     C     3.15188  3.15188  0.00000 -0.30377
      12     H     0.42507  0.42507  0.00000  0.14985
      13     H     0.42458  0.42458  0.00000  0.15085
      14     C     3.23970  3.23970  0.00000 -0.47940
      15     H     0.42056  0.42056  0.00000  0.15888
      16     H     0.42041  0.42041  0.00000  0.15917
      17     H     0.42200  0.42200  0.00000  0.15600
      18     H     0.41774  0.41774  0.00000  0.16452
      19     H     0.42186  0.42186  0.00000  0.15629
      20     C     3.09393  3.09393  0.00000 -0.18786
      21     H     0.41747  0.41747  0.00000  0.16505
      22     H     0.39819  0.39819  0.00000  0.20363
      23     H     0.41589  0.41589  0.00000  0.16822

   Total alpha = 36.00000, Total beta = 36.00000, Total charge = -0.00000
