  ==> Input File <==

--------------------------------------------------------------------------
set {
	reference rhf
	basis cc-pvtz
}

set_num_threads( 4 )
memory 2 gb

molecule MOL {
0 1

H	 -1.175523	 0.425763	 2.678038
O	 -0.275776	 0.336467	 2.419322
C	 -0.043877	 1.074286	 1.259376
C	 -0.793473	 0.591216	 0.050087
H	 1.020762	 1.015284	 1.066077
H	 -0.272166	 2.126764	 1.417086
C	 -1.534243	 -0.493009	 -0.013340
H	 -0.687693	 1.214824	 -0.822364
H	 -1.101195	 -1.466332	 -0.144046
H	 -2.604242	 -0.437780	 0.050785

	symmetry c1
}
set optking {
	frozen_dihedral = ("
		3 4 7 9
	")
}

ee = optimize('scf')
oeprop('DIPOLE', 'QUADRUPOLE', 'MULLIKEN_CHARGES')
f=open( 'psi4out.xyz', 'w' )
f.write( "10  " )
f.write( str(ee) + "\n" )
f.write( MOL.save_string_xyz() )
f.close()
--------------------------------------------------------------------------

    Molecular point group: c1
  Charge       = 0
  Multiplicity = 1
  Basis Set: CC-PVTZ
  Basis Set:
  @DF-RHF Final Energy:  -191.85732273249266
    Total Energy =                       -191.8573227324926620
    Molecular point group: c1
  Basis Set: CC-PVTZ
  Basis Set:
  Basis Set: CC-PVTZ
  Basis Set:
  @DF-RHF Final Energy:  -191.89421921732827
    Total Energy =                       -191.8942192173281853
  Basis Set: CC-PVTZ
  Basis Set:
  Basis Set: CC-PVTZ
  Basis Set:
  @DF-RHF Final Energy:  -191.92094053931513
    Total Energy =                       -191.9209405393152963
  Basis Set: CC-PVTZ
  Basis Set:
  Basis Set: CC-PVTZ
  Basis Set:
  @DF-RHF Final Energy:  -191.94431651701359
    Total Energy =                       -191.9443165170137320
  Basis Set: CC-PVTZ
  Basis Set:
  @DF-RHF Final Energy:  -191.94848598734421
    Total Energy =                       -191.9484859873442133
  @DF-RHF Final Energy:  -191.94910571239370
    Total Energy =                       -191.9491057123937310
  @DF-RHF Final Energy:  -191.94932042210093
    Total Energy =                       -191.9493204221008398
  @DF-RHF Final Energy:  -191.94938364714534
    Total Energy =                       -191.9493836471454529
  @DF-RHF Final Energy:  -191.85415800229811
    Total Energy =                       -191.8541580022981634
  @DF-RHF Final Energy:  -191.93420064297641
    Total Energy =                       -191.9342006429764069
  @DF-RHF Final Energy:  -191.91584414709254
    Total Energy =                       -191.9158441470924856
  @DF-RHF Final Energy:  -191.90413109040580
    Total Energy =                       -191.9041310904058832
  @DF-RHF Final Energy:  -191.94174837902480
    Total Energy =                       -191.9417483790250003
  @DF-RHF Final Energy:  -191.94830847798988
    Total Energy =                       -191.9483084779898832
  @DF-RHF Final Energy:  -191.94901536706828
    Total Energy =                       -191.9490153670680854
  @DF-RHF Final Energy:  -191.94911410703233
    Total Energy =                       -191.9491141070324431
  @DF-RHF Final Energy:  -191.94920707539151
    Total Energy =                       -191.9492070753914845
  @DF-RHF Final Energy:  -191.94921614159068
    Total Energy =                       -191.9492161415906537
  @DF-RHF Final Energy:  -191.94748836463646
    Total Energy =                       -191.9474883646363992
  @DF-RHF Final Energy:  -191.94667553870880
    Total Energy =                       -191.9466755387088597
  @DF-RHF Final Energy:  -191.87670525806220
    Total Energy =                       -191.8767052580621737
  @DF-RHF Final Energy:  -191.93092135868596
    Total Energy =                       -191.9309213586859073
  @DF-RHF Final Energy:  -191.94439006577187
    Total Energy =                       -191.9443900657717563
  @DF-RHF Final Energy:  -191.94671416169328
    Total Energy =                       -191.9467141616933077
  @DF-RHF Final Energy:  -191.94814381790869
    Total Energy =                       -191.9481438179087434
  @DF-RHF Final Energy:  -191.94874671408073
    Total Energy =                       -191.9487467140806984
  @DF-RHF Final Energy:  -191.94898735171435
    Total Energy =                       -191.9489873517144360
  @DF-RHF Final Energy:  -191.94916345617753
    Total Energy =                       -191.9491634561774163
  @DF-RHF Final Energy:  -191.87183611925866
    Total Energy =                       -191.8718361192586883
  @DF-RHF Final Energy:  -191.88564918781674
    Total Energy =                       -191.8856491878166537
  @DF-RHF Final Energy:  -191.90436581554667
    Total Energy =                       -191.9043658155466403
  @DF-RHF Final Energy:  -191.93732814225905
    Total Energy =                       -191.9373281422590765
  @DF-RHF Final Energy:  -191.94553673830765
    Total Energy =                       -191.9455367383077373
  @DF-RHF Final Energy:  -191.94795718913363
    Total Energy =                       -191.9479571891336604
  @DF-RHF Final Energy:  -191.94886734914979
    Total Energy =                       -191.9488673491498787
  @DF-RHF Final Energy:  -191.94903865332100
    Total Energy =                       -191.9490386533210540
  Basis Set: CC-PVTZ
  Basis Set:
  @DF-RHF Final Energy:  -191.92404568193371
    Total Energy =                       -191.9240456819335918
  Basis Set: CC-PVTZ
  Basis Set:
  Basis Set: CC-PVTZ
  Basis Set:
  @DF-RHF Final Energy:  -191.94601724285104
    Total Energy =                       -191.9460172428511555
  Basis Set: CC-PVTZ
  Basis Set:
  Basis Set: CC-PVTZ
  Basis Set:
  @DF-RHF Final Energy:  -191.94907096407135
    Total Energy =                       -191.9490709640715522
  Basis Set: CC-PVTZ
  Basis Set:
  Charge       = 0
  Multiplicity = 1
  Basis Set: CC-PVTZ
  Basis Set:

    Orbital Energies (a.u.)
    -----------------------

    Doubly Occupied:

       1A    -20.553141     2A    -11.285309     3A    -11.251518
       4A    -11.224564     5A     -1.374453     6A     -1.066567
       7A     -0.939409     8A     -0.778028     9A     -0.687115
      10A     -0.655359    11A     -0.630314    12A     -0.570318
      13A     -0.537600    14A     -0.503056    15A     -0.446842
      16A     -0.357907

  @DF-RHF Final Energy:  -191.94920118655835

   => Energetics <=

    Nuclear Repulsion Energy =            118.0708839002885924
    One-Electron Energy =                -494.3171698446220717
    Two-Electron Energy =                 184.2970847577751670
    DFT Exchange-Correlation Energy =       0.0000000000000000
    Empirical Dispersion Energy =           0.0000000000000000
    PCM Polarization Energy =               0.0000000000000000
    EFP Energy =                            0.0000000000000000
    Total Energy =                       -191.9492011865582981
    Molecular point group: c1
  Basis Set: CC-PVTZ
  Basis Set:

  -Total Gradient:
     Atom            X                  Y                   Z
    ------   -----------------  -----------------  -----------------
       1        0.000881970002     0.000268040785    -0.000620688730
       2       -0.000266417690    -0.000435881072     0.001383363006
       3       -0.019468047180     0.022964070831    -0.003800878097
       4        0.033859817337    -0.042534392865    -0.015782139376
       5        0.000646384917    -0.000049595392    -0.000334073439
       6       -0.000650964380     0.000543777096     0.001181460637
       7       -0.025118537578     0.026961505015     0.059839838182
       8        0.002745275486     0.000616110219    -0.001325073192
       9        0.006946199857    -0.008728172684    -0.040108952298
      10        0.000424319230     0.000394538066    -0.000432856691

    Molecular point group: c1

    Geometry (in Angstrom), charge = 0, multiplicity = 1:

    H           -0.223495519077    -0.328135304767     1.613000229129
    O            0.634131763655    -0.006342142318     1.397305029783
    C            0.569074088759     0.723732926103     0.212829507111
    C           -0.118738094649     0.043830849959    -0.941249061626
    H            1.586361123539     0.998163500961    -0.040353518503
    H            0.012604613466     1.648332895388     0.353028491784
    C           -1.156865725655    -0.801714015870    -0.934019276819
    H           -0.130717780977     0.754485425455    -1.761720030640
    H           -1.139882460554    -1.858534347506    -0.714607593520
    H           -1.756472770241    -0.707036713673    -1.831218038374

  Mulliken Charges: (a.u.)
   Center  Symbol    Alpha    Beta     Spin     Total
       1     H     0.38835  0.38835  0.00000  0.22331
       2     O     4.20129  4.20129  0.00000 -0.40259
       3     C     2.95297  2.95297  0.00000  0.09406
       4     C     3.05286  3.05286  0.00000 -0.10571
       5     H     0.45146  0.45146  0.00000  0.09708
       6     H     0.46585  0.46585  0.00000  0.06831
       7     C     3.19364  3.19364  0.00000 -0.38728
       8     H     0.43477  0.43477  0.00000  0.13046
       9     H     0.41913  0.41913  0.00000  0.16175
      10     H     0.43969  0.43969  0.00000  0.12062

   Total alpha = 16.00000, Total beta = 16.00000, Total charge = -0.00000
