  ==> Input File <==

--------------------------------------------------------------------------
set {
	reference rhf
	basis 6-31G*
}

set_num_threads( 4 )
memory 2 gb

molecule MOL {
0 1

H	 -2.817379	 -0.274430	 0.811810
C	 -2.645458	 0.373282	 -0.045542
O	 -1.289006	 0.489545	 -0.331653
H	 -3.125747	 -0.058833	 -0.912572
H	 -3.096429	 1.343428	 0.159079
C	 -0.534021	 1.042280	 0.699720
C	 0.927453	 1.016298	 0.318112
H	 -0.838963	 2.073768	 0.880656
H	 -0.673388	 0.484293	 1.623425
O	 1.392611	 -0.295398	 0.366430
H	 1.044709	 1.432037	 -0.680597
H	 1.490129	 1.642784	 1.011369
C	 2.706965	 -0.449871	 -0.062409
H	 2.756559	 -0.644779	 -1.131878
H	 3.305899	 0.433456	 0.155466
H	 3.125548	 -1.294566	 0.467107

	symmetry c1
}
set optking {
	frozen_dihedral = ("
		7 10 13 14
	")
}

ee = optimize('scf')
oeprop('DIPOLE', 'QUADRUPOLE', 'MULLIKEN_CHARGES')
f=open( 'psi4out.xyz', 'w' )
f.write( "16  " )
f.write( str(ee) + "\n" )
f.write( MOL.save_string_xyz() )
f.close()
--------------------------------------------------------------------------

    Molecular point group: c1
  Charge       = 0
  Multiplicity = 1
  Basis Set: 6-31G*
  Basis Set:
  @DF-RHF Final Energy:  -306.97574258213484
    Total Energy =                       -306.9757425821346715
    Molecular point group: c1
  Basis Set: 6-31G*
  Basis Set:
  Basis Set: 6-31G*
  Basis Set:
  @DF-RHF Final Energy:  -306.97583658029043
    Total Energy =                       -306.9758365802904905
  Basis Set: 6-31G*
  Basis Set:
  Charge       = 0
  Multiplicity = 1
  Basis Set: 6-31G*
  Basis Set:

    Orbital Energies (a.u.)
    -----------------------

    Doubly Occupied:

       1A    -20.553360     2A    -20.551641     3A    -11.269070
       4A    -11.268227     5A    -11.263366     6A    -11.263139
       7A     -1.386956     8A     -1.369090     9A     -1.030666
      10A     -0.936082    11A     -0.891915    12A     -0.823651
      13A     -0.683387    14A     -0.679698    15A     -0.656362
      16A     -0.634208    17A     -0.629094    18A     -0.596500
      19A     -0.551813    20A     -0.537502    21A     -0.508142
      22A     -0.477114    23A     -0.462259    24A     -0.418099
      25A     -0.408983

  @DF-RHF Final Energy:  -306.97585200470542

   => Energetics <=

    Nuclear Repulsion Energy =            258.6594407209757946
    One-Electron Energy =                -931.5699369564360950
    Two-Electron Energy =                 365.9346442307548841
    DFT Exchange-Correlation Energy =       0.0000000000000000
    Empirical Dispersion Energy =           0.0000000000000000
    PCM Polarization Energy =               0.0000000000000000
    EFP Energy =                            0.0000000000000000
    Total Energy =                       -306.9758520047054162
    Molecular point group: c1
  Basis Set: 6-31G*
  Basis Set:

  -Total Gradient:
     Atom            X                  Y                   Z
    ------   -----------------  -----------------  -----------------
       1        0.000001501289    -0.000000289269    -0.000000322807
       2       -0.000003509426     0.000000757268    -0.000002883065
       3       -0.000027279891     0.000007098883    -0.000006675888
       4        0.000003453453     0.000001228433     0.000000830074
       5       -0.000002163799     0.000000884046    -0.000000196102
       6        0.000072694461    -0.000132425226    -0.000029321740
       7        0.000795914649     0.000544466196     0.002385689074
       8        0.000067763138    -0.000016440778    -0.000022276526
       9       -0.000018767745    -0.000001053653     0.000032803405
      10       -0.001171549784    -0.001383673769    -0.003177994548
      11       -0.000019061156    -0.000014887926    -0.000000486138
      12       -0.000021884211     0.000001119745     0.000000505286
      13        0.000532022902     0.004098147418     0.000244734316
      14       -0.000188185952    -0.003110094865     0.000537961725
      15       -0.000001039134    -0.000016263530     0.000034663470
      16       -0.000019908793     0.000021427032     0.000002969463

  **** Optimization is complete! (in 3 steps) ****
    Final optimized geometry and variables:
    Molecular point group: c1

    Geometry (in Angstrom), charge = 0, multiplicity = 1:

    H           -2.905170733972    -0.641554957974     0.658262109032
    C           -2.737934025110     0.009228427691    -0.197690767834
    O           -1.382600589772     0.132819913893    -0.486134221732
    H           -3.217990918729    -0.422735788808    -1.064913966772
    H           -3.192690390488     0.976779188623     0.010550505936
    C           -0.628169288799     0.686526982726     0.545194116515
    C            0.832685765379     0.668575561703     0.161606196823
    H           -0.937467236806     1.716187595042     0.729194577109
    H           -0.763266092803     0.125595519300     1.467750997826
    O            1.302444275326    -0.642285716964     0.210526473095
    H            0.944082010378     1.087754991030    -0.836226217633
    H            1.393250703160     1.295383878533     0.855332311475
    C            2.619530041942    -0.811861691721    -0.213916670015
    H            2.663888562127    -1.011414081633    -1.281646393174
    H            3.236744408208     0.052862270555     0.016497345986
    H            3.025431860597    -1.671423684409     0.304482707598

  Mulliken Charges: (a.u.)
   Center  Symbol    Alpha    Beta     Spin     Total
       1     H     0.42808  0.42808  0.00000  0.14385
       2     C     3.07946  3.07946  0.00000 -0.15893
       3     O     4.30090  4.30090  0.00000 -0.60180
       4     H     0.41133  0.41133  0.00000  0.17733
       5     H     0.43192  0.43192  0.00000  0.13615
       6     C     2.99341  2.99341  0.00000  0.01318
       7     C     2.99355  2.99355  0.00000  0.01290
       8     H     0.43243  0.43243  0.00000  0.13514
       9     H     0.42279  0.42279  0.00000  0.15441
      10     O     4.30319  4.30319  0.00000 -0.60638
      11     H     0.42280  0.42280  0.00000  0.15440
      12     H     0.43182  0.43182  0.00000  0.13636
      13     C     3.07776  3.07776  0.00000 -0.15552
      14     H     0.42390  0.42390  0.00000  0.15220
      15     H     0.43179  0.43179  0.00000  0.13642
      16     H     0.41486  0.41486  0.00000  0.17028

   Total alpha = 25.00000, Total beta = 25.00000, Total charge = -0.00000
