                              Psi4 1.0.54 Driver

  ==> Input File <==

--------------------------------------------------------------------------
set {
	reference rhf
	basis cc-pvtz
}

set_num_threads( 4 )
memory 2 gb

molecule MOL {
0 1

H	 -1.970548	 0.107610	 -2.371943
O	 -2.116347	 0.013079	 -1.448522
C	 -1.079716	 0.620830	 -0.730068
C	 0.195183	 -0.196598	 -0.795153
H	 -0.884740	 1.627696	 -1.085503
H	 -1.408180	 0.693863	 0.296801
O	 1.172093	 0.457955	 -0.054438
H	 0.512955	 -0.308481	 -1.833132
H	 0.008195	 -1.193589	 -0.401938
C	 2.395478	 -0.199028	 -0.000366
H	 2.505946	 -0.901710	 -0.823354
H	 3.174616	 0.545641	 -0.071768
H	 2.513730	 -0.742241	 0.934223

	symmetry c1
}
set optking {
	frozen_dihedral = ("
		4 7 10 13
	")
}

ee,wfn = optimize('scf', return_wfn=True)
oeprop( wfn, 'DIPOLE', 'QUADRUPOLE', 'MULLIKEN_CHARGES')
f=open( 'psi4out.xyz', 'w' )
f.write( "13  " )
f.write( str(ee) + "\n" )
f.write( MOL.save_string_xyz() )
f.close()
--------------------------------------------------------------------------

    Molecular point group: c1
  Charge       = 0
  Multiplicity = 1
  Basis Set: CC-PVTZ
  Basis Set:
  @DF-RHF Final Energy:  -268.05947118836480
    Total Energy =                       -268.0594711883649097
    Molecular point group: c1
  Basis Set: CC-PVTZ
  Basis Set:
  Basis Set: CC-PVTZ
  Basis Set:
  @DF-RHF Final Energy:  -268.05962983447859
    Total Energy =                       -268.0596298344786419
  Basis Set: CC-PVTZ
  Basis Set:
  Basis Set: CC-PVTZ
  Basis Set:
  @DF-RHF Final Energy:  -268.05966100631440
    Total Energy =                       -268.0596610063142862
  Basis Set: CC-PVTZ
  Basis Set:
  Charge       = 0
  Multiplicity = 1
  Basis Set: CC-PVTZ
  Basis Set:

    Orbital Energies (a.u.)
    -----------------------

    Doubly Occupied:

       1A    -20.553462     2A    -20.552616     3A    -11.269606
       4A    -11.267412     5A    -11.267059     6A     -1.388710
       7A     -1.368590     8A     -1.019523     9A     -0.914196
      10A     -0.842489    11A     -0.711137    12A     -0.674325
      13A     -0.661987    14A     -0.637500    15A     -0.598647
      16A     -0.569651    17A     -0.550151    18A     -0.491006
      19A     -0.483563    20A     -0.441298    21A     -0.420340

  @DF-RHF Final Energy:  -268.05966135664960

   => Energetics <=

    Nuclear Repulsion Energy =            190.2394870871146679
    One-Electron Energy =                -743.2317637217396395
    Two-Electron Energy =                 284.9326152779753443
    DFT Exchange-Correlation Energy =       0.0000000000000000
    Empirical Dispersion Energy =           0.0000000000000000
    PCM Polarization Energy =               0.0000000000000000
    EFP Energy =                            0.0000000000000000
    Total Energy =                       -268.0596613566496558
    Molecular point group: c1
  Basis Set: CC-PVTZ
  Basis Set:

  -Total Gradient:
     Atom            X                  Y                   Z
    ------   -----------------  -----------------  -----------------
       1       -0.000014138537    -0.000005761376    -0.000005826520
       2       -0.000056194005     0.000003031985    -0.000041701122
       3        0.000008485529    -0.000030109302    -0.000010497646
       4        0.000561693672     0.000971023305    -0.001669054374
       5       -0.000003178280     0.000003533097     0.000008465838
       6        0.000020606208     0.000001127429    -0.000003523483
       7       -0.000463372435    -0.000855171523     0.002742230492
       8        0.000007901155     0.000015451770     0.000017932015
       9        0.000000432477     0.000011733986    -0.000010086623
      10       -0.001107326863    -0.002202323834    -0.002032718995
      11       -0.000001657157    -0.000002858985    -0.000005580859
      12        0.000011912633     0.000000040762    -0.000000762248
      13        0.001034835601     0.002090282685     0.001011123527

  **** Optimization is complete! (in 4 steps) ****
    Final optimized geometry and variables:
    Molecular point group: c1

    Geometry (in Angstrom), charge = 0, multiplicity = 1:

    H           -2.091623719241    -0.025741783484    -1.724252013692
    O           -2.228777783425    -0.109076037066    -0.798432085432
    C           -1.177159160322     0.493526655069    -0.097259043668
    C            0.086812884565    -0.340172201200    -0.166506742994
    H           -0.973022685358     1.493851092374    -0.465866592110
    H           -1.494012482227     0.582298392303     0.931991757605
    O            1.079670383130     0.317878936659     0.551172101206
    H            0.389585090079    -0.469413662919    -1.206203051677
    H           -0.110070682120    -1.328686176226     0.242686114435
    C            2.312630088273    -0.329347618503     0.618391802872
    H            2.441880465147    -1.041255111937    -0.190245960131
    H            3.094817811063     0.415278938806     0.546456600634
    H            2.426090573560    -0.844664769180     1.567157304941

  Mulliken Charges: (a.u.)
   Center  Symbol    Alpha    Beta     Spin     Total
       1     H     0.39414  0.39414  0.00000  0.21173
       2     O     4.20214  4.20214  0.00000 -0.40428
       3     C     2.97484  2.97484  0.00000  0.05033
       4     C     2.96489  2.96489  0.00000  0.07023
       5     H     0.46719  0.46719  0.00000  0.06561
       6     H     0.45266  0.45266  0.00000  0.09469
       7     O     4.17909  4.17909  0.00000 -0.35817
       8     H     0.48115  0.48115  0.00000  0.03770
       9     H     0.47017  0.47017  0.00000  0.05965
      10     C     3.02846  3.02846  0.00000 -0.05693
      11     H     0.47192  0.47192  0.00000  0.05616
      12     H     0.45236  0.45236  0.00000  0.09528
      13     H     0.46100  0.46100  0.00000  0.07800

   Total alpha = 21.00000, Total beta = 21.00000, Total charge = -0.00000

*** Psi4 exiting successfully. Buy a developer a beer!
