  ==> Input File <==

--------------------------------------------------------------------------
set {
	reference rhf
	basis 6-31G*
}

set_num_threads( 4 )
memory 2 gb

molecule MOL {
0 1

H	 0.390825	 1.896979	 0.490606
O	 0.055946	 1.300438	 -0.164479
C	 0.004957	 -0.004114	 0.366649
C	 1.201664	 -0.828089	 -0.095740
C	 -1.317755	 -0.601827	 -0.081511
H	 0.013527	 0.048298	 1.454924
H	 1.216388	 -0.895289	 -1.178704
H	 2.135132	 -0.372895	 0.226467
H	 1.166770	 -1.832878	 0.313827
H	 -1.355732	 -0.658248	 -1.164429
H	 -2.141614	 0.017037	 0.254547
H	 -1.447303	 -1.600817	 0.322594

	symmetry c1
}
set optking {
	frozen_dihedral = ("
		1 2 3 4
	")
}

ee = optimize('scf')
oeprop('DIPOLE', 'QUADRUPOLE', 'MULLIKEN_CHARGES')
f=open( 'psi4out.xyz', 'w' )
f.write( "12  " )
f.write( str(ee) + "\n" )
f.write( MOL.save_string_xyz() )
f.close()
--------------------------------------------------------------------------

    Molecular point group: c1
  Charge       = 0
  Multiplicity = 1
  Basis Set: 6-31G*
  Basis Set:
  @DF-RHF Final Energy:  -193.11341997180935
    Total Energy =                       -193.1134199718093214
    Molecular point group: c1
  Basis Set: 6-31G*
  Basis Set:
  Basis Set: 6-31G*
  Basis Set:
  @DF-RHF Final Energy:  -193.11359078895686
    Total Energy =                       -193.1135907889568557
  Basis Set: 6-31G*
  Basis Set:
  Basis Set: 6-31G*
  Basis Set:
  @DF-RHF Final Energy:  -193.11363330707405
    Total Energy =                       -193.1136333070741102
  Basis Set: 6-31G*
  Basis Set:
  Charge       = 0
  Multiplicity = 1
  Basis Set: 6-31G*
  Basis Set:

    Orbital Energies (a.u.)
    -----------------------

    Doubly Occupied:

       1A    -20.549775     2A    -11.276214     3A    -11.207034
       4A    -11.205826     5A     -1.358421     6A     -1.040828
       7A     -0.935215     8A     -0.798621     9A     -0.710471
      10A     -0.609680    11A     -0.598029    12A     -0.554461
      13A     -0.537638    14A     -0.523192    15A     -0.505704
      16A     -0.464751    17A     -0.428518

  @DF-RHF Final Energy:  -193.11363381743689

   => Energetics <=

    Nuclear Repulsion Energy =            135.3370452533918069
    One-Electron Energy =                -530.2926006409346655
    Two-Electron Energy =                 201.8419215701059670
    DFT Exchange-Correlation Energy =       0.0000000000000000
    Empirical Dispersion Energy =           0.0000000000000000
    PCM Polarization Energy =               0.0000000000000000
    EFP Energy =                            0.0000000000000000
    Total Energy =                       -193.1136338174368916
    Molecular point group: c1
  Basis Set: 6-31G*
  Basis Set:

  -Total Gradient:
     Atom            X                  Y                   Z
    ------   -----------------  -----------------  -----------------
       1       -0.001618472045     0.000326989894     0.000507686127
       2        0.001759218257    -0.000475378102    -0.000931891741
       3        0.000441846305     0.000646148186     0.001221024857
       4       -0.000586692252    -0.000393482532    -0.000825164304
       5        0.000006011232    -0.000051251582     0.000034123754
       6       -0.000010016659    -0.000033283308    -0.000010182210
       7        0.000010194493     0.000005712018     0.000002689466
       8       -0.000042634546     0.000014101126     0.000007971216
       9        0.000011241093    -0.000048840105    -0.000013912035
      10        0.000019305295     0.000014395297     0.000001694538
      11        0.000010413685     0.000002687358     0.000005786111
      12       -0.000000414858    -0.000007798251     0.000000174222

  **** Optimization is complete! (in 4 steps) ****
    Final optimized geometry and variables:
    Molecular point group: c1

    Geometry (in Angstrom), charge = 0, multiplicity = 1:

    H            0.421632308362     1.900280834953     0.465622668599
    O            0.083789325408     1.297928927757    -0.179698853923
    C            0.004115145822    -0.004657248476     0.364372212584
    C            1.200940708138    -0.827790736533    -0.095679824507
    C           -1.316665099227    -0.610953058755    -0.085011830972
    H            0.009008369919     0.053744568181     1.451018760287
    H            1.216457765139    -0.886029531831    -1.178926204034
    H            2.129640507091    -0.368435694104     0.228494015807
    H            1.162917249143    -1.836660404801     0.304787149272
    H           -1.359892415586    -0.645509199398    -1.168774818410
    H           -2.147496286464    -0.009395729659     0.266106265696
    H           -1.433152733344    -1.620739860692     0.296570452796

  Mulliken Charges: (a.u.)
   Center  Symbol    Alpha    Beta     Spin     Total
       1     H     0.28049  0.28049  0.00000  0.43903
       2     O     4.37357  4.37357  0.00000 -0.74714
       3     C     2.92496  2.92496  0.00000  0.15008
       4     C     3.23793  3.23793  0.00000 -0.47586
       5     C     3.23691  3.23691  0.00000 -0.47382
       6     H     0.43080  0.43080  0.00000  0.13839
       7     H     0.41446  0.41446  0.00000  0.17108
       8     H     0.42167  0.42167  0.00000  0.15665
       9     H     0.42441  0.42441  0.00000  0.15119
      10     H     0.41467  0.41467  0.00000  0.17067
      11     H     0.41580  0.41580  0.00000  0.16839
      12     H     0.42433  0.42433  0.00000  0.15134

   Total alpha = 17.00000, Total beta = 17.00000, Total charge =  0.00000
