                              Psi4 1.0.54 Driver

  ==> Input File <==

--------------------------------------------------------------------------
set {
	reference rhf
	basis cc-pvtz
}

set_num_threads( 4 )
memory 2 gb

molecule MOL {
0 1

O	 -1.278239	 1.034789	 -0.784693
C	 -1.204115	 0.062668	 -0.112312
C	 -2.386398	 -0.667698	 0.460323
O	 -0.068058	 -0.518372	 0.226882
H	 -2.382952	 -1.693172	 0.114333
H	 -3.296656	 -0.175702	 0.158400
H	 -2.312537	 -0.685191	 1.540100
C	 1.169086	 0.037484	 -0.230612
C	 1.374998	 1.317433	 0.554528
C	 1.109159	 0.264077	 -1.730503
H	 1.953770	 -0.667719	 -0.002470
H	 1.406372	 1.113579	 1.617171
H	 2.310352	 1.782504	 0.267240
H	 0.570944	 2.018316	 0.364275
H	 2.040716	 0.696321	 -2.076722
H	 0.954769	 -0.669082	 -2.253978
H	 0.303234	 0.944922	 -1.979936

	symmetry c1
}
set optking {
	frozen_dihedral = ("
		11 8 4 2
	")
}

ee,wfn = optimize('scf', return_wfn=True)
oeprop( wfn, 'DIPOLE', 'QUADRUPOLE', 'MULLIKEN_CHARGES')
f=open( 'psi4out.xyz', 'w' )
f.write( "17  " )
f.write( str(ee) + "\n" )
f.write( MOL.save_string_xyz() )
f.close()
--------------------------------------------------------------------------

    Molecular point group: c1
  Charge       = 0
  Multiplicity = 1
  Basis Set: CC-PVTZ
  Basis Set:
  @DF-RHF Final Energy:  -345.02836021767871
    Total Energy =                       -345.0283602176789373
    Molecular point group: c1
  Basis Set: CC-PVTZ
  Basis Set:
  Basis Set: CC-PVTZ
  Basis Set:
  @DF-RHF Final Energy:  -345.03677198807964
    Total Energy =                       -345.0367719880794084
  Basis Set: CC-PVTZ
  Basis Set:
  Basis Set: CC-PVTZ
  Basis Set:
  @DF-RHF Final Energy:  -345.03749107739975
    Total Energy =                       -345.0374910773997499
  Basis Set: CC-PVTZ
  Basis Set:
  Basis Set: CC-PVTZ
  Basis Set:
  @DF-RHF Final Energy:  -345.03569813148687
    Total Energy =                       -345.0356981314867539
  Basis Set: CC-PVTZ
  Basis Set:
  Basis Set: CC-PVTZ
  Basis Set:
  @DF-RHF Final Energy:  -345.03818205402945
    Total Energy =                       -345.0381820540294484
  Basis Set: CC-PVTZ
  Basis Set:
  Basis Set: CC-PVTZ
  Basis Set:
  @DF-RHF Final Energy:  -345.03822989909952
    Total Energy =                       -345.0382298990994627
  Basis Set: CC-PVTZ
  Basis Set:
  Basis Set: CC-PVTZ
  Basis Set:
  @DF-RHF Final Energy:  -345.03823418412844
    Total Energy =                       -345.0382341841286120
  Basis Set: CC-PVTZ
  Basis Set:
  Charge       = 0
  Multiplicity = 1
  Basis Set: CC-PVTZ
  Basis Set:

    Orbital Energies (a.u.)
    -----------------------

    Doubly Occupied:

       1A    -20.589633     2A    -20.529931     3A    -11.366612
       4A    -11.292357     5A    -11.229107     6A    -11.213301
       7A    -11.211766     8A     -1.465405     9A     -1.363750
      10A     -1.077157    11A     -1.003702    12A     -0.946557
      13A     -0.868506    14A     -0.732196    15A     -0.697873
      16A     -0.673092    17A     -0.662803    18A     -0.616008
      19A     -0.586271    20A     -0.581092    21A     -0.570320
      22A     -0.552468    23A     -0.529776    24A     -0.520365
      25A     -0.499527    26A     -0.484152    27A     -0.448827
      28A     -0.431496

  @DF-RHF Final Energy:  -345.03823504812641

   => Energetics <=

    Nuclear Repulsion Energy =            327.3314015207915304
    One-Electron Energy =               -1119.2511721103460332
    Two-Electron Energy =                 446.8815355414277519
    DFT Exchange-Correlation Energy =       0.0000000000000000
    Empirical Dispersion Energy =           0.0000000000000000
    PCM Polarization Energy =               0.0000000000000000
    EFP Energy =                            0.0000000000000000
    Total Energy =                       -345.0382350481266940
    Molecular point group: c1
  Basis Set: CC-PVTZ
  Basis Set:

  -Total Gradient:
     Atom            X                  Y                   Z
    ------   -----------------  -----------------  -----------------
       1       -0.000033308967    -0.000033602947     0.000024061014
       2       -0.000178336650    -0.001359031048    -0.001889594395
       3        0.000011443819    -0.000015698964    -0.000074649811
       4        0.000225688619     0.001931555227     0.002519194962
       5        0.000012222903    -0.000008096227     0.000027879305
       6        0.000005434632     0.000005132949     0.000010768620
       7       -0.000001177300     0.000026334530    -0.000004128950
       8        0.000433259997     0.000584035458     0.001537817840
       9        0.000005389415    -0.000006639533     0.000032641347
      10       -0.000025046453     0.000023573994    -0.000006053666
      11       -0.000448556978    -0.001150780656    -0.002172738832
      12       -0.000004929037     0.000011422228     0.000001218804
      13       -0.000009929927    -0.000004184332    -0.000006890089
      14       -0.000001592670     0.000017594740     0.000004240044
      15        0.000002585664     0.000003937613     0.000004380090
      16       -0.000009146076    -0.000016904577    -0.000006195704
      17        0.000015999007    -0.000008648455    -0.000001950581

  **** Optimization is complete! (in 8 steps) ****
    Final optimized geometry and variables:
    Molecular point group: c1

    Geometry (in Angstrom), charge = 0, multiplicity = 1:

    O           -1.263295840187     0.814079784323    -0.405168560793
    C           -1.062255148974    -0.181653776742     0.203895442795
    C           -2.144444435111    -1.032751318840     0.809843839015
    O            0.130780384414    -0.686011597998     0.451404656167
    H           -2.096885246527    -2.031219860692     0.394717139591
    H           -3.106912250751    -0.591496717353     0.607892414017
    H           -1.987530458823    -1.113707245307     1.877650561471
    C            1.339346716384    -0.120555743638    -0.078819877829
    C            1.695538793272     1.171208562698     0.634984066530
    C            1.323208589081     0.000376695569    -1.595612737940
    H            2.063783110551    -0.881771724465     0.173681341964
    H            1.705131060904     1.020388377063     1.707500579327
    H            2.684989017160     1.491689958779     0.329956663804
    H            0.991353002990     1.955838012066     0.397955021804
    H            2.334946534226     0.188829409140    -1.936499751241
    H            0.988733594784    -0.927262009314    -2.045010700386
    H            0.686776531519     0.801461799807    -1.935527813785

  Mulliken Charges: (a.u.)
   Center  Symbol    Alpha    Beta     Spin     Total
       1     O     4.20188  4.20188  0.00000 -0.40375
       2     C     2.80090  2.80090  0.00000  0.39820
       3     C     3.13713  3.13713  0.00000 -0.27425
       4     O     4.16350  4.16350  0.00000 -0.32699
       5     H     0.44644  0.44644  0.00000  0.10712
       6     H     0.43882  0.43882  0.00000  0.12236
       7     H     0.44544  0.44544  0.00000  0.10911
       8     C     2.93804  2.93804  0.00000  0.12393
       9     C     3.15699  3.15699  0.00000 -0.31397
      10     C     3.16123  3.16123  0.00000 -0.32245
      11     H     0.43990  0.43990  0.00000  0.12020
      12     H     0.44763  0.44763  0.00000  0.10474
      13     H     0.45081  0.45081  0.00000  0.09838
      14     H     0.43839  0.43839  0.00000  0.12322
      15     H     0.44994  0.44994  0.00000  0.10012
      16     H     0.44884  0.44884  0.00000  0.10232
      17     H     0.43414  0.43414  0.00000  0.13172

   Total alpha = 28.00000, Total beta = 28.00000, Total charge = -0.00000

*** Psi4 exiting successfully. Buy a developer a beer!
