                              Psi4 1.0.54 Driver

  ==> Input File <==

--------------------------------------------------------------------------
set {
	reference rhf
	basis cc-pvtz
}

set_num_threads( 4 )
memory 2 gb

molecule MOL {
0 1

H	 -2.266619	 1.169943	 0.000098
O	 -1.438073	 1.611259	 0.000041
C	 -0.408657	 0.734701	 0.000005
C	 0.818302	 1.212281	 0.421784
C	 -0.561286	 -0.587058	 -0.402203
H	 0.895197	 2.238230	 0.724185
C	 1.912106	 0.373290	 0.447367
C	 0.554617	 -1.407421	 -0.366246
C	 -1.900906	 -1.106698	 -0.862198
H	 2.861467	 0.751045	 0.775993
C	 1.786033	 -0.944517	 0.052500
H	 0.453125	 -2.431619	 -0.673959
H	 -2.264707	 -0.568374	 -1.732931
H	 -1.832354	 -2.149911	 -1.135049
H	 -2.653878	 -1.025416	 -0.083256
H	 2.632522	 -1.602945	 0.069760

	symmetry c1
}
set optking {
	frozen_dihedral = ("
		4 3 2 1
	")
}

ee,wfn = optimize('scf', return_wfn=True)
oeprop( wfn, 'DIPOLE', 'QUADRUPOLE', 'MULLIKEN_CHARGES')
f=open( 'psi4out.xyz', 'w' )
f.write( "16  " )
f.write( str(ee) + "\n" )
f.write( MOL.save_string_xyz() )
f.close()
--------------------------------------------------------------------------

    Molecular point group: c1
  Charge       = 0
  Multiplicity = 1
  Basis Set: CC-PVTZ
  Basis Set:
  @DF-RHF Final Energy:  -344.71890107255564
    Total Energy =                       -344.7189010725557523
    Molecular point group: c1
  Basis Set: CC-PVTZ
  Basis Set:
  Basis Set: CC-PVTZ
  Basis Set:
  @DF-RHF Final Energy:  -344.71894429766132
    Total Energy =                       -344.7189442976614941
  Basis Set: CC-PVTZ
  Basis Set:
  Basis Set: CC-PVTZ
  Basis Set:
  @DF-RHF Final Energy:  -344.71895333690168
    Total Energy =                       -344.7189533369016772
  Basis Set: CC-PVTZ
  Basis Set:
  Charge       = 0
  Multiplicity = 1
  Basis Set: CC-PVTZ
  Basis Set:

    Orbital Energies (a.u.)
    -----------------------

    Doubly Occupied:

       1A    -20.580456     2A    -11.290200     3A    -11.233638
       4A    -11.231539     5A    -11.228415     6A    -11.227257
       7A    -11.217965     8A    -11.217380     9A     -1.410477
      10A     -1.153493    11A     -1.051718    12A     -1.007865
      13A     -0.943469    14A     -0.828561    15A     -0.823073
      16A     -0.734235    17A     -0.680150    18A     -0.647898
      19A     -0.615510    20A     -0.602108    21A     -0.577362
      22A     -0.571674    23A     -0.557301    24A     -0.551889
      25A     -0.505294    26A     -0.486292    27A     -0.477448
      28A     -0.333734    29A     -0.310561

  @DF-RHF Final Energy:  -344.71895421920470

   => Energetics <=

    Nuclear Repulsion Energy =            351.0049581926136284
    One-Electron Energy =               -1163.2538916921623695
    Two-Electron Energy =                 467.5299792803439232
    DFT Exchange-Correlation Energy =       0.0000000000000000
    Empirical Dispersion Energy =           0.0000000000000000
    PCM Polarization Energy =               0.0000000000000000
    EFP Energy =                            0.0000000000000000
    Total Energy =                       -344.7189542192047611
    Molecular point group: c1
  Basis Set: CC-PVTZ
  Basis Set:

  -Total Gradient:
     Atom            X                  Y                   Z
    ------   -----------------  -----------------  -----------------
       1       -0.000019842101    -0.000008830431     0.001226432810
       2       -0.000056683424    -0.000048648488    -0.001165377255
       3        0.000265434804     0.000238223481    -0.000834504061
       4       -0.000150539074    -0.000227950703     0.000771425920
       5       -0.000015256797     0.000063440024    -0.000014753168
       6       -0.000007878313     0.000006453726     0.000020758319
       7       -0.000029744085     0.000084534542     0.000006733335
       8        0.000101783427    -0.000021722711    -0.000040145600
       9        0.000047814842     0.000008482584    -0.000082064652
      10       -0.000004363033    -0.000003205175    -0.000004525517
      11       -0.000084605349    -0.000073213558     0.000018623367
      12       -0.000007235598    -0.000002762126     0.000016223158
      13        0.000011762685     0.000020085225     0.000032571707
      14       -0.000009328667    -0.000021720396     0.000046759516
      15       -0.000049982381    -0.000019032643     0.000014104400
      16        0.000008663064     0.000005866647    -0.000012262277

  **** Optimization is complete! (in 4 steps) ****
    Final optimized geometry and variables:
    Molecular point group: c1

    Geometry (in Angstrom), charge = 0, multiplicity = 1:

    H           -2.275999294554     1.161595099402     0.051989879178
    O           -1.446884943706     1.602518275150     0.067361586310
    C           -0.418788757739     0.721450330567     0.097169408524
    C            0.801136091432     1.193655628889     0.542056468744
    C           -0.569081148935    -0.598500121434    -0.312175777451
    H            0.874897165560     2.217372939726     0.852728289570
    C            1.894062303910     0.352757180537     0.577542449797
    C            0.542462811545    -1.423208468376    -0.258456323255
    C           -1.901245402928    -1.107762305343    -0.803160764981
    H            2.839440576785     0.726647193797     0.921612111594
    C            1.769134136259    -0.963553689500     0.179033325796
    H            0.443346890777    -2.446272982589    -0.570580458873
    H           -2.260380499317    -0.531325423441    -1.649386750397
    H           -1.824164804223    -2.139153914670    -1.116202474659
    H           -2.662514443066    -1.065812321979    -0.027889062109
    H            2.613635076897    -1.624293894087     0.206596349437

  Mulliken Charges: (a.u.)
   Center  Symbol    Alpha    Beta     Spin     Total
       1     H     0.38636  0.38636  0.00000  0.22727
       2     O     4.17482  4.17482  0.00000 -0.34964
       3     C     2.87530  2.87530  0.00000  0.24940
       4     C     3.11171  3.11171  0.00000 -0.22341
       5     C     3.00942  3.00942  0.00000 -0.01884
       6     H     0.41966  0.41966  0.00000  0.16067
       7     C     3.06634  3.06634  0.00000 -0.13268
       8     C     3.08479  3.08479  0.00000 -0.16957
       9     C     3.16212  3.16212  0.00000 -0.32424
      10     H     0.42248  0.42248  0.00000  0.15505
      11     C     3.09053  3.09053  0.00000 -0.18106
      12     H     0.42555  0.42555  0.00000  0.14889
      13     H     0.44426  0.44426  0.00000  0.11149
      14     H     0.44616  0.44616  0.00000  0.10767
      15     H     0.45555  0.45555  0.00000  0.08890
      16     H     0.42495  0.42495  0.00000  0.15010

   Total alpha = 29.00000, Total beta = 29.00000, Total charge = -0.00000

*** Psi4 exiting successfully. Buy a developer a beer!
