  ==> Input File <==

--------------------------------------------------------------------------
set {
	reference rhf
	basis 6-31G*
}

set_num_threads( 1 )
memory 2 gb

molecule MOL {
0 1

H	 -3.062107	 0.239319	 0.403411
O	 -2.347518	 -0.290803	 0.079804
C	 -1.184022	 0.487508	 -0.006784
C	 0.062599	 -0.378592	 0.031606
H	 -1.176523	 1.099369	 -0.904519
H	 -1.187323	 1.153111	 0.844927
O	 1.171513	 0.459272	 -0.058250
H	 0.050699	 -1.089204	 -0.797170
H	 0.078739	 -0.954914	 0.954740
C	 2.397842	 -0.198080	 -0.002151
H	 2.508049	 -0.905315	 -0.822092
H	 3.173794	 0.550865	 -0.078850
H	 2.517602	 -0.735921	 0.936026

	symmetry c1
}
set optking {
	frozen_dihedral = ("
		8 4 3 5,
		10 7 4 8,
		4 7 10 13
	")
}

ee = energy('scf')
oeprop('DIPOLE', 'QUADRUPOLE', 'MULLIKEN_CHARGES')
f=open( 'psi4out.xyz', 'w' )
f.write( "13  " )
f.write( str(ee) + "\n" )
f.write( MOL.save_string_xyz() )
f.close()
--------------------------------------------------------------------------

    Molecular point group: c1

    Geometry (in Angstrom), charge = 0, multiplicity = 1:

       Center              X                  Y                   Z               Mass
    ------------   -----------------  -----------------  -----------------  -----------------
           H         -3.054646014853     0.226473122391     0.388191534747     1.007825032070
           O         -2.340057014853    -0.303648877609     0.064584534747    15.994914619560
           C         -1.176561014853     0.474662122391    -0.022003465253    12.000000000000
           C          0.070059985147    -0.391437877609     0.016386534747    12.000000000000
           H         -1.169062014853     1.086523122391    -0.919738465253     1.007825032070
           H         -1.179862014853     1.140265122391     0.829707534747     1.007825032070
           O          1.178973985147     0.446426122391    -0.073469465253    15.994914619560
           H          0.058159985147    -1.102049877609    -0.812389465253     1.007825032070
           H          0.086199985147    -0.967759877609     0.939520534747     1.007825032070
           C          2.405302985147    -0.210925877609    -0.017370465253    12.000000000000
           H          2.515509985147    -0.918160877609    -0.837311465253     1.007825032070
           H          3.181254985147     0.538019122391    -0.094069465253     1.007825032070
           H          2.525062985147    -0.748766877609     0.920806534747     1.007825032070

  Charge       = 0
  Multiplicity = 1
  Basis Set: 6-31G*
  Basis Set:

    Orbital Energies (a.u.)
    -----------------------

    Doubly Occupied:

       1A    -20.560555     2A    -20.556729     3A    -11.269667
       4A    -11.268660     5A    -11.268568     6A     -1.386692
       7A     -1.363009     8A     -1.017891     9A     -0.911773
      10A     -0.832468    11A     -0.707077    12A     -0.683183
      13A     -0.643828    14A     -0.638382    15A     -0.617967
      16A     -0.551840    17A     -0.541017    18A     -0.495261
      19A     -0.469968    20A     -0.438355    21A     -0.419008

  @DF-RHF Final Energy:  -267.94903296087330

   => Energetics <=

    Nuclear Repulsion Energy =            189.8529152860621423
    One-Electron Energy =                -742.3200671691731714
    Two-Electron Energy =                 284.5181189222374769
    DFT Exchange-Correlation Energy =       0.0000000000000000
    Empirical Dispersion Energy =           0.0000000000000000
    PCM Polarization Energy =               0.0000000000000000
    EFP Energy =                            0.0000000000000000
    Total Energy =                       -267.9490329608735237

  Mulliken Charges: (a.u.)
   Center  Symbol    Alpha    Beta     Spin     Total
       1     H     0.27746  0.27746  0.00000  0.44509
       2     O     4.37595  4.37595  0.00000 -0.75191
       3     C     2.99915  2.99915  0.00000  0.00170
       4     C     2.99399  2.99399  0.00000  0.01202
       5     H     0.42185  0.42185  0.00000  0.15630
       6     H     0.42653  0.42653  0.00000  0.14694
       7     O     4.30824  4.30824  0.00000 -0.61648
       8     H     0.42431  0.42431  0.00000  0.15137
       9     H     0.42550  0.42550  0.00000  0.14899
      10     C     3.07965  3.07965  0.00000 -0.15930
      11     H     0.42796  0.42796  0.00000  0.14408
      12     H     0.41115  0.41115  0.00000  0.17770
      13     H     0.42825  0.42825  0.00000  0.14351

   Total alpha = 21.00000, Total beta = 21.00000, Total charge =  0.00000
