                              Psi4 1.0.54 Driver

  ==> Input File <==

--------------------------------------------------------------------------
set {
	reference rhf
	basis cc-pvtz
}

set_num_threads( 4 )
memory 2 gb

molecule MOL {
0 1

H	 2.342730	 0.877684	 -1.045694
C	 2.360424	 0.000000	 -0.411793
C	 1.173749	 0.000000	 0.526870
H	 3.286567	 0.000000	 0.151574
H	 2.342730	 -0.877684	 -1.045694
O	 0.000000	 0.000000	 -0.223739
H	 1.203779	 0.876757	 1.172538
H	 1.203779	 -0.876757	 1.172538
C	 -1.173749	 0.000000	 0.526870
C	 -1.083997	 -1.078563	 1.584193
H	 -2.031076	 -0.177703	 -0.121130
H	 -1.318594	 0.973774	 0.992998
H	 -0.954780	 -2.050482	 1.124683
H	 -1.988410	 -1.096924	 2.181539
H	 -0.241545	 -0.897787	 2.239989

	symmetry c1
}
set optking {
	frozen_dihedral = ("
		11 9 6 3
	")
}

ee,wfn = optimize('scf', return_wfn=True)
oeprop( wfn, 'DIPOLE', 'QUADRUPOLE', 'MULLIKEN_CHARGES')
f=open( 'psi4out.xyz', 'w' )
f.write( "15  " )
f.write( str(ee) + "\n" )
f.write( MOL.save_string_xyz() )
f.close()
--------------------------------------------------------------------------

    Molecular point group: c1
  Charge       = 0
  Multiplicity = 1
  Basis Set: CC-PVTZ
  Basis Set:
  @DF-RHF Final Energy:  -232.22125221177768
    Total Energy =                       -232.2212522117776530
    Molecular point group: c1
  Basis Set: CC-PVTZ
  Basis Set:
  Basis Set: CC-PVTZ
  Basis Set:
  @DF-RHF Final Energy:  -230.96712077122180
    Total Energy =                       -230.9671207712217722
  Basis Set: CC-PVTZ
  Basis Set:
  Basis Set: CC-PVTZ
  Basis Set:
  @DF-RHF Final Energy:  -231.14815906812220
    Total Energy =                       -231.1481590681222258
  Basis Set: CC-PVTZ
  Basis Set:
  Basis Set: CC-PVTZ
  Basis Set:
  @DF-RHF Final Energy:  -231.50589812403271
    Total Energy =                       -231.5058981240327967
  Basis Set: CC-PVTZ
  Basis Set:
  @DF-RHF Final Energy:  -231.84665134652008
    Total Energy =                       -231.8466513465200762
  @DF-RHF Final Energy:  -232.11322464190465
    Total Energy =                       -232.1132246419046510
  @DF-RHF Final Energy:  -232.21104831895775
    Total Energy =                       -232.2110483189576939
  @DF-RHF Final Energy:  -232.22725255328459
    Total Energy =                       -232.2272525532846430
  @DF-RHF Final Energy:  -232.22857418096859
    Total Energy =                       -232.2285741809685646
  Basis Set: CC-PVTZ
  Basis Set:
  @DF-RHF Final Energy:  -232.22877031115078
    Total Energy =                       -232.2287703111509245
  Basis Set: CC-PVTZ
  Basis Set:
  Basis Set: CC-PVTZ
  Basis Set:
  @DF-RHF Final Energy:  -232.22897449403087
    Total Energy =                       -232.2289744940309788
  Basis Set: CC-PVTZ
  Basis Set:
  Basis Set: CC-PVTZ
  Basis Set:
  @DF-RHF Final Energy:  -232.22897991883991
    Total Energy =                       -232.2289799188400252
  Basis Set: CC-PVTZ
  Basis Set:
  Charge       = 0
  Multiplicity = 1
  Basis Set: CC-PVTZ
  Basis Set:

    Orbital Energies (a.u.)
    -----------------------

    Doubly Occupied:

       1A    -20.543083     2A    -11.266597     3A    -11.265077
       4A    -11.211710     5A    -11.206053     6A     -1.376743
       7A     -1.040823     8A     -0.989594     9A     -0.869313
      10A     -0.803062    11A     -0.676634    12A     -0.658335
      13A     -0.630853    14A     -0.590026    15A     -0.547541
      16A     -0.539006    17A     -0.524707    18A     -0.503498
      19A     -0.491851    20A     -0.453765    21A     -0.410146

  @DF-RHF Final Energy:  -232.22898054098565

   => Energetics <=

    Nuclear Repulsion Energy =            193.4461138158152664
    One-Electron Energy =                -698.1533540083328262
    Two-Electron Energy =                 272.4782596515320847
    DFT Exchange-Correlation Energy =       0.0000000000000000
    Empirical Dispersion Energy =           0.0000000000000000
    PCM Polarization Energy =               0.0000000000000000
    EFP Energy =                            0.0000000000000000
    Total Energy =                       -232.2289805409855035
    Molecular point group: c1
  Basis Set: CC-PVTZ
  Basis Set:

  -Total Gradient:
     Atom            X                  Y                   Z
    ------   -----------------  -----------------  -----------------
       1        0.000001004035    -0.000015592891     0.000004360642
       2        0.000044068723    -0.000007108582    -0.000005444945
       3        0.001524800841    -0.002789707065    -0.000338941954
       4       -0.000002073894     0.000005162131    -0.000003456001
       5        0.000004051182     0.000010227893    -0.000004075214
       6       -0.001907567114     0.003401122933     0.000585155548
       7       -0.000018473681    -0.000018862757     0.000013834101
       8       -0.000012571857     0.000007880243    -0.000033613116
       9       -0.001466264820     0.002772964367    -0.000470810251
      10        0.000015259957     0.000023856707     0.000013482962
      11        0.001804064763    -0.003390577770     0.000238129317
      12        0.000004689663    -0.000005172897     0.000001932301
      13        0.000002735798    -0.000000824495    -0.000000461031
      14        0.000004939398     0.000011218982    -0.000003795515
      15        0.000001337007    -0.000004586797     0.000003703158

  **** Optimization is complete! (in 13 steps) ****
    Final optimized geometry and variables:
    Molecular point group: c1

    Geometry (in Angstrom), charge = 0, multiplicity = 1:

    H            1.472847275040     2.340358257918     0.276866157245
    C            1.775094102976     1.362969171621     0.631465632164
    C            0.585959718101     0.428478809326     0.696116229234
    H            2.222038842874     1.473591461262     1.613142412941
    H            2.524784024539     0.973154272413    -0.045928470344
    O            0.054281339412     0.300779063674    -0.586838062662
    H           -0.165073825918     0.825720550061     1.378943320743
    H            0.896948533279    -0.537542940344     1.082284815625
    C           -1.171560222799    -0.357270097663    -0.715373681979
    C           -1.247995755119    -1.720969247521    -0.042302157067
    H           -1.306840260216    -0.503182984902    -1.778534502381
    H           -1.974886888438     0.280505075247    -0.350278439556
    H           -0.433877075971    -2.357379703457    -0.369830959026
    H           -2.181833764142    -2.198583652607    -0.316832723066
    H           -1.219015949381    -1.655446704146     1.037940926198

  Mulliken Charges: (a.u.)
   Center  Symbol    Alpha    Beta     Spin     Total
       1     H     0.45162  0.45162  0.00000  0.09677
       2     C     3.13598  3.13598  0.00000 -0.27196
       3     C     2.96699  2.96699  0.00000  0.06601
       4     H     0.45949  0.45949  0.00000  0.08101
       5     H     0.45132  0.45132  0.00000  0.09736
       6     O     4.18045  4.18045  0.00000 -0.36091
       7     H     0.47421  0.47421  0.00000  0.05159
       8     H     0.46983  0.46983  0.00000  0.06034
       9     C     2.98043  2.98043  0.00000  0.03913
      10     C     3.15799  3.15799  0.00000 -0.31599
      11     H     0.45318  0.45318  0.00000  0.09364
      12     H     0.46791  0.46791  0.00000  0.06418
      13     H     0.44965  0.44965  0.00000  0.10069
      14     H     0.44783  0.44783  0.00000  0.10433
      15     H     0.45311  0.45311  0.00000  0.09378

   Total alpha = 21.00000, Total beta = 21.00000, Total charge =  0.00000

*** Psi4 exiting successfully. Buy a developer a beer!
