  ==> Input File <==

--------------------------------------------------------------------------
set {
	reference rhf
	basis cc-pvtz
}

set_num_threads( 4 )
memory 2 gb

molecule MOL {
0 1

H	 -2.179831	 -0.864659	 1.220112
N	 -1.400854	 -0.241691	 1.194066
C	 -0.561396	 -0.500007	 0.035200
H	 -0.889230	 -0.374002	 2.041456
C	 0.575129	 0.507849	 -0.048832
H	 -1.181822	 -0.412314	 -0.850576
H	 -0.145904	 -1.508827	 0.027319
C	 1.951750	 -0.141983	 0.035101
H	 0.478254	 1.061643	 -0.975981
H	 0.467676	 1.231891	 0.755499
H	 2.101550	 -0.848142	 -0.774949
H	 2.738260	 0.600794	 -0.026526
H	 2.078939	 -0.679792	 0.968824

	symmetry c1
}
set optking {
	frozen_dihedral = ("
		6 3 5 9
	")
}

ee = optimize('scf')
oeprop('DIPOLE', 'QUADRUPOLE', 'MULLIKEN_CHARGES')
f=open( 'psi4out.xyz', 'w' )
f.write( "13  " )
f.write( str(ee) + "\n" )
f.write( MOL.save_string_xyz() )
f.close()
--------------------------------------------------------------------------

    Molecular point group: c1
  Charge       = 0
  Multiplicity = 1
  Basis Set: CC-PVTZ
  Basis Set:
  @DF-RHF Final Energy:  -173.34576878662665
    Total Energy =                       -173.3457687866266212
    Molecular point group: c1
  Basis Set: CC-PVTZ
  Basis Set:
  Basis Set: CC-PVTZ
  Basis Set:
  @DF-RHF Final Energy:  -173.34615294180406
    Total Energy =                       -173.3461529418039504
  Basis Set: CC-PVTZ
  Basis Set:
  Basis Set: CC-PVTZ
  Basis Set:
  @DF-RHF Final Energy:  -173.34626141908126
    Total Energy =                       -173.3462614190810882
  Basis Set: CC-PVTZ
  Basis Set:
  Charge       = 0
  Multiplicity = 1
  Basis Set: CC-PVTZ
  Basis Set:

    Orbital Energies (a.u.)
    -----------------------

    Doubly Occupied:

       1A    -15.527150     2A    -11.238534     3A    -11.210336
       4A    -11.207827     5A     -1.177425     6A     -1.033579
       7A     -0.900822     8A     -0.799101     9A     -0.667533
      10A     -0.626126    11A     -0.596893    12A     -0.564132
      13A     -0.545344    14A     -0.488358    15A     -0.477737
      16A     -0.464933    17A     -0.383010

  @DF-RHF Final Energy:  -173.34626232404216

   => Energetics <=

    Nuclear Repulsion Energy =            132.1474308560889597
    One-Electron Energy =                -495.1697024256073405
    Two-Electron Energy =                 189.6760092454761093
    DFT Exchange-Correlation Energy =       0.0000000000000000
    Empirical Dispersion Energy =           0.0000000000000000
    PCM Polarization Energy =               0.0000000000000000
    EFP Energy =                            0.0000000000000000
    Total Energy =                       -173.3462623240422431
    Molecular point group: c1
  Basis Set: CC-PVTZ
  Basis Set:

  -Total Gradient:
     Atom            X                  Y                   Z
    ------   -----------------  -----------------  -----------------
       1       -0.000019052247     0.000009432753     0.000005672037
       2       -0.000013807068    -0.000025977806    -0.000051058598
       3       -0.000381494719     0.000520325595     0.000435728756
       4        0.000010852745    -0.000003350626    -0.000059781644
       5        0.000412447574    -0.000484957336    -0.000369707093
       6        0.000251518370    -0.000341005588    -0.000186072303
       7        0.000002348787    -0.000008921921    -0.000016974104
       8        0.000023415639    -0.000011721971     0.000012702789
       9       -0.000274948942     0.000344587547     0.000227543918
      10        0.000011044265    -0.000013847552    -0.000003298740
      11       -0.000014475943     0.000005328197     0.000005956979
      12       -0.000004224634     0.000011891022    -0.000006657697
      13       -0.000003623826    -0.000001782314     0.000005945700

  **** Optimization is complete! (in 4 steps) ****
    Final optimized geometry and variables:
    Molecular point group: c1

    Geometry (in Angstrom), charge = 0, multiplicity = 1:

    H           -2.306009896694    -0.768399712832     0.905872728007
    N           -1.540769450378    -0.128217373756     0.870539173871
    C           -0.701119600067    -0.385791174958    -0.291711511879
    H           -1.021655803435    -0.246535955071     1.715891967482
    C            0.459983938830     0.621343915583    -0.382140045328
    H           -1.329979208483    -0.304865969779    -1.169675335316
    H           -0.298140909316    -1.398422690781    -0.296818700017
    C            1.840702380690    -0.022544678116    -0.295612843181
    H            0.386377331210     1.185212549686    -1.305276271868
    H            0.344876981109     1.344923745938     0.416362885194
    H            2.001486198043    -0.720246342597    -1.110651660283
    H            2.624700103463     0.724711065013    -0.341534310328
    H            1.960568733733    -0.571130096676     0.633499023421

  Mulliken Charges: (a.u.)
   Center  Symbol    Alpha    Beta     Spin     Total
       1     H     0.42987  0.42987  0.00000  0.14027
       2     N     3.68764  3.68764  0.00000 -0.37527
       3     C     3.03050  3.03050  0.00000 -0.06100
       4     H     0.43107  0.43107  0.00000  0.13787
       5     C     3.09038  3.09038  0.00000 -0.18077
       6     H     0.45457  0.45457  0.00000  0.09087
       7     H     0.46735  0.46735  0.00000  0.06530
       8     C     3.14704  3.14704  0.00000 -0.29408
       9     H     0.45084  0.45084  0.00000  0.09831
      10     H     0.44816  0.44816  0.00000  0.10368
      11     H     0.45577  0.45577  0.00000  0.08845
      12     H     0.44951  0.44951  0.00000  0.10097
      13     H     0.45729  0.45729  0.00000  0.08542

   Total alpha = 17.00000, Total beta = 17.00000, Total charge = -0.00000
