  ==> Input File <==

--------------------------------------------------------------------------
set {
	reference rhf
	basis 6-31G*
}

set_num_threads( 4 )
memory 2 gb

molecule MOL {
0 1

H	 -3.407059	 -1.043082	 0.000000
O	 -3.119761	 -0.140267	 0.000000
C	 -1.777559	 -0.059267	 0.000000
C	 -1.001972	 -0.602438	 1.020015
C	 -1.177450	 0.595014	 -1.068575
H	 -1.475035	 -1.107944	 1.844627
C	 0.371411	 -0.489047	 0.967267
H	 -1.797112	 1.005551	 -1.843010
C	 0.197274	 0.700287	 -1.107148
H	 0.982072	 -0.903389	 1.747339
C	 0.987519	 0.163089	 -0.095932
H	 0.662821	 1.207216	 -1.935007
C	 2.457714	 0.283586	 -0.150864
O	 3.205644	 -0.146860	 0.671373
H	 2.845197	 0.813816	 -1.027152

	symmetry c1
}
set optking {
	frozen_dihedral = ("
		5 3 2 1
	")
}

ee = optimize('scf')
oeprop('DIPOLE', 'QUADRUPOLE', 'MULLIKEN_CHARGES')
f=open( 'psi4out.xyz', 'w' )
f.write( "15  " )
f.write( str(ee) + "\n" )
f.write( MOL.save_string_xyz() )
f.close()
--------------------------------------------------------------------------

    Molecular point group: c1
  Charge       = 0
  Multiplicity = 1
  Basis Set: 6-31G*
  Basis Set:
  @DF-RHF Final Energy:  -418.28502656178534
    Total Energy =                       -418.2850265617853438
    Molecular point group: c1
  Basis Set: 6-31G*
  Basis Set:
  Basis Set: 6-31G*
  Basis Set:
  @DF-RHF Final Energy:  -418.28542939602835
    Total Energy =                       -418.2854293960281211
  Basis Set: 6-31G*
  Basis Set:
  Basis Set: 6-31G*
  Basis Set:
  @DF-RHF Final Energy:  -418.28538319985671
    Total Energy =                       -418.2853831998567102
  Basis Set: 6-31G*
  Basis Set:
  Basis Set: 6-31G*
  Basis Set:
  @DF-RHF Final Energy:  -418.28532944055354
    Total Energy =                       -418.2853294405535962
  Basis Set: 6-31G*
  Basis Set:
  Basis Set: 6-31G*
  Basis Set:
  @DF-RHF Final Energy:  -418.28547828926179
    Total Energy =                       -418.2854782892621870
  Basis Set: 6-31G*
  Basis Set:
  Charge       = 0
  Multiplicity = 1
  Basis Set: 6-31G*
  Basis Set:

    Orbital Energies (a.u.)
    -----------------------

    Doubly Occupied:

       1A    -20.596989     2A    -20.559915     3A    -11.330809
       4A    -11.315366     5A    -11.260257     6A    -11.254513
       7A    -11.243730     8A    -11.243241     9A    -11.241586
      10A     -1.415170    11A     -1.400960    12A     -1.170703
      13A     -1.041368    14A     -1.037326    15A     -0.887151
      16A     -0.860475    17A     -0.795538    18A     -0.751879
      19A     -0.710057    20A     -0.666817    21A     -0.647758
      22A     -0.630302    23A     -0.617081    24A     -0.607215
      25A     -0.561085    26A     -0.552782    27A     -0.540925
      28A     -0.499133    29A     -0.483163    30A     -0.421435
      31A     -0.355791    32A     -0.337436

  @DF-RHF Final Energy:  -418.28547912131182

   => Energetics <=

    Nuclear Repulsion Energy =            400.9046838325301678
    One-Electron Energy =               -1364.3044112805082477
    Two-Electron Energy =                 545.1142483266662566
    DFT Exchange-Correlation Energy =       0.0000000000000000
    Empirical Dispersion Energy =           0.0000000000000000
    PCM Polarization Energy =               0.0000000000000000
    EFP Energy =                            0.0000000000000000
    Total Energy =                       -418.2854791213118233
    Molecular point group: c1
  Basis Set: 6-31G*
  Basis Set:

  -Total Gradient:
     Atom            X                  Y                   Z
    ------   -----------------  -----------------  -----------------
       1       -0.000091894047     0.000000599394    -0.002838278409
       2        0.000081568417    -0.000901850002     0.003017459230
       3       -0.000069850827     0.002626071475     0.001036313349
       4       -0.000162114033    -0.000021883188    -0.000089933872
       5        0.000202670555    -0.001718452909    -0.001109799811
       6        0.000005447210     0.000004529996     0.000006147395
       7        0.000128198072     0.000088215478    -0.000065916532
       8       -0.000001415509    -0.000004154432     0.000015999086
       9       -0.000096646651    -0.000033116278    -0.000096520083
      10       -0.000010667644    -0.000006617763     0.000001905140
      11        0.000005446784    -0.000061630786     0.000124109118
      12        0.000017673492     0.000010347546     0.000010200604
      13        0.000012748486     0.000042063122    -0.000003003375
      14       -0.000014204568    -0.000016335574    -0.000002382843
      15       -0.000006959739    -0.000007786077    -0.000006298999

  **** Optimization is complete! (in 6 steps) ****
    Final optimized geometry and variables:
    Molecular point group: c1

    Geometry (in Angstrom), charge = 0, multiplicity = 1:

    H           -3.409436411788    -1.067284340215    -0.008796706533
    O           -3.129861123348    -0.161457607503    -0.012355892462
    C           -1.771698900071    -0.079065487195    -0.045274525933
    C           -1.001518505591    -0.623740288107     0.976935755458
    C           -1.172210187972     0.571468942122    -1.110448761885
    H           -1.487896121896    -1.114504652164     1.800737694544
    C            0.371864001683    -0.513801413868     0.928929116824
    H           -1.789616139510     0.980574850599    -1.887688769932
    C            0.206234150275     0.686974570225    -1.143740425179
    H            0.982439721120    -0.927280506508     1.709443991397
    C            0.987780639410     0.145057944811    -0.132538720458
    H            0.675421971911     1.195755743952    -1.968308446903
    C            2.461022708371     0.268062190627    -0.184496229905
    O            3.206047763639    -0.172010675218     0.634243690139
    H            2.849853869275     0.808033931811    -1.053803597335

  Mulliken Charges: (a.u.)
   Center  Symbol    Alpha    Beta     Spin     Total
       1     H     0.26869  0.26869  0.00000  0.46262
       2     O     4.38309  4.38309  0.00000 -0.76617
       3     C     2.80268  2.80268  0.00000  0.39464
       4     C     3.13016  3.13016  0.00000 -0.26033
       5     C     3.12272  3.12272  0.00000 -0.24544
       6     H     0.39165  0.39165  0.00000  0.21671
       7     C     3.08300  3.08300  0.00000 -0.16600
       8     H     0.38724  0.38724  0.00000  0.22552
       9     C     3.09737  3.09737  0.00000 -0.19474
      10     H     0.37490  0.37490  0.00000  0.25020
      11     C     3.06233  3.06233  0.00000 -0.12467
      12     H     0.38988  0.38988  0.00000  0.22023
      13     C     2.83076  2.83076  0.00000  0.33849
      14     O     4.25187  4.25187  0.00000 -0.50374
      15     H     0.42365  0.42365  0.00000  0.15269

   Total alpha = 32.00000, Total beta = 32.00000, Total charge = -0.00000
