  ==> Input File <==

--------------------------------------------------------------------------
set {
	reference rhf
	basis 6-31G*
}

set_num_threads( 4 )
memory 2 gb

molecule MOL {
0 1

O	 0.749854	 1.307668	 -0.000040
C	 0.576249	 0.131685	 -0.000108
C	 -0.766779	 -0.556801	 -0.000461
O	 1.568443	 -0.749345	 -0.000005
C	 -1.945214	 0.412366	 0.000161
H	 -0.796911	 -1.211249	 -0.867467
H	 -0.796854	 -1.212390	 0.865687
C	 -2.925489	 0.122748	 1.135832
H	 -2.457022	 0.354262	 -0.954448
H	 -1.573328	 1.428006	 0.082327
H	 -3.336711	 -0.879870	 1.057685
H	 -3.755351	 0.821624	 1.118401
H	 -2.443536	 0.206878	 2.105944
C	 2.886820	 -0.232538	 0.000322
H	 3.059106	 0.369571	 -0.880203
H	 3.540187	 -1.091012	 0.000050
H	 3.059019	 0.368956	 0.881266

	symmetry c1
}
set optking {
	frozen_dihedral = ("
		9 5 3 6
	")
}

ee = optimize('scf')
oeprop('DIPOLE', 'QUADRUPOLE', 'MULLIKEN_CHARGES')
f=open( 'psi4out.xyz', 'w' )
f.write( "17  " )
f.write( str(ee) + "\n" )
f.write( MOL.save_string_xyz() )
f.close()
--------------------------------------------------------------------------

    Molecular point group: c1
  Charge       = 0
  Multiplicity = 1
  Basis Set: 6-31G*
  Basis Set:
  @DF-RHF Final Energy:  -344.90180142843337
    Total Energy =                       -344.9018014284330320
    Molecular point group: c1
  Basis Set: 6-31G*
  Basis Set:
  Basis Set: 6-31G*
  Basis Set:
  @DF-RHF Final Energy:  -344.90209907196703
    Total Energy =                       -344.9020990719670863
  Basis Set: 6-31G*
  Basis Set:
  Basis Set: 6-31G*
  Basis Set:
  @DF-RHF Final Energy:  -344.90203456161350
    Total Energy =                       -344.9020345616137320
  Basis Set: 6-31G*
  Basis Set:
  Basis Set: 6-31G*
  Basis Set:
  @DF-RHF Final Energy:  -344.90221044266565
    Total Energy =                       -344.9022104426657052
  Basis Set: 6-31G*
  Basis Set:
  Basis Set: 6-31G*
  Basis Set:
  @DF-RHF Final Energy:  -344.90221215328398
    Total Energy =                       -344.9022121532836991
  Basis Set: 6-31G*
  Basis Set:
  Charge       = 0
  Multiplicity = 1
  Basis Set: 6-31G*
  Basis Set:

    Orbital Energies (a.u.)
    -----------------------

    Doubly Occupied:

       1A    -20.604208     2A    -20.546581     3A    -11.373467
       4A    -11.281281     5A    -11.235950     6A    -11.220031
       7A    -11.213288     8A     -1.470247     9A     -1.363599
      10A     -1.077264    11A     -1.001445    12A     -0.938904
      13A     -0.828168    14A     -0.766751    15A     -0.701611
      16A     -0.682127    17A     -0.672812    18A     -0.628798
      19A     -0.601498    20A     -0.571250    21A     -0.570251
      22A     -0.530972    23A     -0.524294    24A     -0.489271
      25A     -0.485965    26A     -0.474809    27A     -0.457786
      28A     -0.439876

  @DF-RHF Final Energy:  -344.90221310928092

   => Energetics <=

    Nuclear Repulsion Energy =            313.0831640881214639
    One-Electron Energy =               -1090.4657421188003354
    Two-Electron Energy =                 432.4803649213980066
    DFT Exchange-Correlation Energy =       0.0000000000000000
    Empirical Dispersion Energy =           0.0000000000000000
    PCM Polarization Energy =               0.0000000000000000
    EFP Energy =                            0.0000000000000000
    Total Energy =                       -344.9022131092808081
    Molecular point group: c1
  Basis Set: 6-31G*
  Basis Set:

  -Total Gradient:
     Atom            X                  Y                   Z
    ------   -----------------  -----------------  -----------------
       1        0.000005518199    -0.000017917053    -0.000015133007
       2       -0.000030234630    -0.000022548759    -0.000020945055
       3       -0.001047978601    -0.001279717742     0.001020841398
       4        0.000020984783     0.000027958869     0.000024914934
       5        0.001088343825     0.001313950268    -0.000730420258
       6        0.000682172419     0.000851051305    -0.000694099977
       7       -0.000008280242    -0.000006737786    -0.000028892610
       8        0.000002697997     0.000003281225    -0.000017056655
       9       -0.000726581866    -0.000891682930     0.000480431421
      10       -0.000001066427     0.000012711709    -0.000005598679
      11        0.000013366320     0.000002853404     0.000001742858
      12       -0.000011669141     0.000001624622     0.000001765321
      13       -0.000001646047     0.000003071957    -0.000011089206
      14        0.000016537841     0.000000310249    -0.000006901816
      15        0.000000649179     0.000000307279    -0.000001854786
      16       -0.000001859554     0.000002064579     0.000000397403
      17       -0.000000954058    -0.000000581196     0.000001898713

  **** Optimization is complete! (in 6 steps) ****
    Final optimized geometry and variables:
    Molecular point group: c1

    Geometry (in Angstrom), charge = 0, multiplicity = 1:

    O            0.724886297789     1.250412738160    -0.153582531555
    C            0.534028197415     0.077248335711    -0.161962353908
    C           -0.813347154111    -0.609895100583    -0.152509551658
    O            1.516165321432    -0.815114693201    -0.178638140812
    C           -2.016153747852     0.348426592932    -0.158488070415
    H           -0.822814980554    -1.273161814671    -1.011480291318
    H           -0.822466269060    -1.258733035391     0.718293883122
    C           -3.017297371728     0.050046960108     0.958564122847
    H           -2.526651559618     0.277985561978    -1.113674887723
    H           -1.662050589844     1.366612483200    -0.067493821039
    H           -3.406198916513    -0.961753360159     0.883714471499
    H           -3.860462063325     0.732005896289     0.915815211616
    H           -2.555096801741     0.156113895593     1.935914197808
    C            2.840642948243    -0.314136574521    -0.185478296418
    H            3.012417835471     0.293753048999    -1.062066342045
    H            3.483480794895    -1.180451361036    -0.199297286894
    H            3.027921259963     0.277080647021     0.699310937207

  Mulliken Charges: (a.u.)
   Center  Symbol    Alpha    Beta     Spin     Total
       1     O     4.28463  4.28463  0.00000 -0.56925
       2     C     2.61421  2.61421  0.00000  0.77157
       3     C     3.20827  3.20827  0.00000 -0.41655
       4     O     4.30494  4.30494  0.00000 -0.60988
       5     C     3.16144  3.16144  0.00000 -0.32288
       6     H     0.39749  0.39749  0.00000  0.20501
       7     H     0.39788  0.39788  0.00000  0.20423
       8     C     3.24293  3.24293  0.00000 -0.48586
       9     H     0.41780  0.41780  0.00000  0.16439
      10     H     0.39321  0.39321  0.00000  0.21359
      11     H     0.42211  0.42211  0.00000  0.15577
      12     H     0.41691  0.41691  0.00000  0.16617
      13     H     0.41972  0.41972  0.00000  0.16056
      14     C     3.09203  3.09203  0.00000 -0.18406
      15     H     0.40894  0.40894  0.00000  0.18211
      16     H     0.40843  0.40843  0.00000  0.18315
      17     H     0.40905  0.40905  0.00000  0.18191

   Total alpha = 28.00000, Total beta = 28.00000, Total charge = -0.00000
