                              Psi4 1.0.54 Driver

  ==> Input File <==

--------------------------------------------------------------------------
set {
	reference rhf
	basis cc-pvtz
}

set_num_threads( 4 )
memory 2 gb

molecule MOL {
0 1

H	 -2.816458	 -0.841657	 -0.064679
N	 -1.878861	 -0.711874	 0.250184
C	 -1.341419	 0.551458	 -0.220231
H	 -1.333674	 -1.468530	 -0.105118
C	 0.082190	 0.731516	 0.254705
H	 -1.357065	 0.652078	 -1.304747
H	 -1.939897	 1.357530	 0.189797
O	 0.881195	 -0.248324	 -0.336237
H	 0.440901	 1.722476	 -0.020063
H	 0.119896	 0.643586	 1.338114
C	 2.034940	 0.235697	 -0.939408
H	 2.567112	 -0.604635	 -1.361331
H	 1.802060	 0.937695	 -1.737318
H	 2.680631	 0.734327	 -0.220370

	symmetry c1
}
set optking {
	frozen_dihedral = ("
		11 8 5 3
	")
}

ee,wfn = optimize('scf', return_wfn=True)
oeprop( wfn, 'DIPOLE', 'QUADRUPOLE', 'MULLIKEN_CHARGES')
f=open( 'psi4out.xyz', 'w' )
f.write( "14  " )
f.write( str(ee) + "\n" )
f.write( MOL.save_string_xyz() )
f.close()
--------------------------------------------------------------------------

    Molecular point group: c1
  Charge       = 0
  Multiplicity = 1
  Basis Set: CC-PVTZ
  Basis Set:
  @DF-RHF Final Energy:  -248.22194108250179
    Total Energy =                       -248.2219410825017576
    Molecular point group: c1
  Basis Set: CC-PVTZ
  Basis Set:
  Basis Set: CC-PVTZ
  Basis Set:
  @DF-RHF Final Energy:  -248.16910854020259
    Total Energy =                       -248.1691085402025010
  Basis Set: CC-PVTZ
  Basis Set:
  Basis Set: CC-PVTZ
  Basis Set:
  @DF-RHF Final Energy:  -248.21968954821253
    Total Energy =                       -248.2196895482126138
  Basis Set: CC-PVTZ
  Basis Set:
  Basis Set: CC-PVTZ
  Basis Set:
  @DF-RHF Final Energy:  -248.22224565708751
    Total Energy =                       -248.2222456570875124
  Basis Set: CC-PVTZ
  Basis Set:
  Basis Set: CC-PVTZ
  Basis Set:
  @DF-RHF Final Energy:  -248.22228132597610
    Total Energy =                       -248.2222813259760983
  Basis Set: CC-PVTZ
  Basis Set:
  Basis Set: CC-PVTZ
  Basis Set:
  @DF-RHF Final Energy:  -248.22228984164883
    Total Energy =                       -248.2222898416487169
  Basis Set: CC-PVTZ
  Basis Set:
  Charge       = 0
  Multiplicity = 1
  Basis Set: CC-PVTZ
  Basis Set:

    Orbital Energies (a.u.)
    -----------------------

    Doubly Occupied:

       1A    -20.548042     2A    -15.522951     3A    -11.265364
       4A    -11.264005     5A    -11.239792     6A     -1.380479
       7A     -1.175584     8A     -0.999575     9A     -0.911492
      10A     -0.813903    11A     -0.682652    12A     -0.676428
      13A     -0.644469    14A     -0.616696    15A     -0.604232
      16A     -0.542786    17A     -0.533446    18A     -0.501108
      19A     -0.473415    20A     -0.416114    21A     -0.381956

  @DF-RHF Final Energy:  -248.22228999118315

   => Energetics <=

    Nuclear Repulsion Energy =            194.5412925193128615
    One-Electron Energy =                -723.1381801754450862
    Two-Electron Energy =                 280.3745976649490785
    DFT Exchange-Correlation Energy =       0.0000000000000000
    Empirical Dispersion Energy =           0.0000000000000000
    PCM Polarization Energy =               0.0000000000000000
    EFP Energy =                            0.0000000000000000
    Total Energy =                       -248.2222899911831746
    Molecular point group: c1
  Basis Set: CC-PVTZ
  Basis Set:

  -Total Gradient:
     Atom            X                  Y                   Z
    ------   -----------------  -----------------  -----------------
       1        0.000000552599     0.000015061356    -0.000001509138
       2       -0.000002713991    -0.000003730455     0.000017911471
       3        0.000316599390     0.000352111321    -0.001077014837
       4        0.000004551377     0.000012471517    -0.000000497725
       5       -0.000689304933    -0.000581087186     0.000948403519
       6       -0.000011006532    -0.000003042902    -0.000017327915
       7       -0.000013674531    -0.000010282428     0.000006275864
       8        0.000939310493     0.000356643304     0.001276246258
       9        0.000000508169     0.000001816531    -0.000004332448
      10        0.000017231035     0.000002942124     0.000015481563
      11       -0.000578437021    -0.000138226759    -0.001154236017
      12       -0.000000689076    -0.000003547484     0.000001254965
      13        0.000010086282     0.000000383937    -0.000009272043
      14        0.000006986742    -0.000001512875    -0.000001383517

  **** Optimization is complete! (in 7 steps) ****
    Final optimized geometry and variables:
    Molecular point group: c1

    Geometry (in Angstrom), charge = 0, multiplicity = 1:

    H           -2.873923325387    -0.562903738699     0.229170715002
    N           -1.941092180657    -0.429460917890     0.556204611715
    C           -1.252859241543     0.582458113837    -0.222955545983
    H           -1.465631936894    -1.303694300537     0.478784520409
    C            0.174769989643     0.739095402582     0.255806288031
    H           -1.235669064313     0.368217304363    -1.291818140952
    H           -1.764226556086     1.530211611522    -0.089844917353
    O            0.878907424457    -0.456566978662     0.054913902124
    H            0.645993393525     1.553802534272    -0.286543602994
    H            0.185372914776     0.984149322085     1.312580485828
    C            2.103898921865    -0.344752383821    -0.591613837366
    H            2.517831017088    -1.338496329124    -0.686164140285
    H            1.995103940360     0.082680218833    -1.585603561633
    H            2.802325642230     0.268559326980    -0.027090080081

  Mulliken Charges: (a.u.)
   Center  Symbol    Alpha    Beta     Spin     Total
       1     H     0.43065  0.43065  0.00000  0.13870
       2     N     3.69299  3.69299  0.00000 -0.38598
       3     C     3.01886  3.01886  0.00000 -0.03772
       4     H     0.42225  0.42225  0.00000  0.15550
       5     C     2.97219  2.97219  0.00000  0.05562
       6     H     0.46984  0.46984  0.00000  0.06032
       7     H     0.46011  0.46011  0.00000  0.07978
       8     O     4.18428  4.18428  0.00000 -0.36855
       9     H     0.46968  0.46968  0.00000  0.06064
      10     H     0.45861  0.45861  0.00000  0.08277
      11     C     3.02973  3.02973  0.00000 -0.05947
      12     H     0.44993  0.44993  0.00000  0.10014
      13     H     0.47222  0.47222  0.00000  0.05557
      14     H     0.46866  0.46866  0.00000  0.06268

   Total alpha = 21.00000, Total beta = 21.00000, Total charge = -0.00000

*** Psi4 exiting successfully. Buy a developer a beer!
