  ==> Input File <==

--------------------------------------------------------------------------
set {
	reference rhf
	basis cc-pvtz
}

set_num_threads( 4 )
memory 2 gb

molecule MOL {
0 1

H	 -0.448986	 -1.535647	 0.432742
N	 -0.625934	 -0.663929	 -0.000707
C	 -1.978635	 -0.158664	 0.001017
C	 0.415768	 -0.010204	 -0.561138
H	 -2.519057	 -0.493535	 -0.876362
H	 -1.938890	 0.917202	 -0.004137
H	 -2.514266	 -0.485137	 0.884506
C	 1.744820	 -0.723067	 -0.441688
O	 0.309538	 1.049224	 -1.104646
H	 1.699668	 -1.691111	 -0.926923
H	 2.507218	 -0.122267	 -0.909508
H	 1.998019	 -0.880874	 0.600236

	symmetry c1
}
set optking {
	frozen_dihedral = ("
		4 2 3 5
	")
}

ee = optimize('scf')
oeprop('DIPOLE', 'QUADRUPOLE', 'MULLIKEN_CHARGES')
f=open( 'psi4out.xyz', 'w' )
f.write( "12  " )
f.write( str(ee) + "\n" )
f.write( MOL.save_string_xyz() )
f.close()
--------------------------------------------------------------------------

    Molecular point group: c1
  Charge       = 0
  Multiplicity = 1
  Basis Set: CC-PVTZ
  Basis Set:
  @DF-RHF Final Energy:  -247.10086490206405
    Total Energy =                       -247.1008649020637904
    Molecular point group: c1
  Basis Set: CC-PVTZ
  Basis Set:
  Basis Set: CC-PVTZ
  Basis Set:
  @DF-RHF Final Energy:  -247.10104853698152
    Total Energy =                       -247.1010485369815797
  Basis Set: CC-PVTZ
  Basis Set:
  Basis Set: CC-PVTZ
  Basis Set:
  @DF-RHF Final Energy:  -247.10086387406156
    Total Energy =                       -247.1008638740613605
  Basis Set: CC-PVTZ
  Basis Set:
  Basis Set: CC-PVTZ
  Basis Set:
  @DF-RHF Final Energy:  -247.10111823956981
    Total Energy =                       -247.1011182395698142
  Basis Set: CC-PVTZ
  Basis Set:
  @DF-RHF Final Energy:  -247.10113103323533
    Total Energy =                       -247.1011310332351627
  @DF-RHF Final Energy:  -247.10115005104240
    Total Energy =                       -247.1011500510424526
  @DF-RHF Final Energy:  -247.10115409994586
    Total Energy =                       -247.1011540999459157
  @DF-RHF Final Energy:  -247.10115625764311
    Total Energy =                       -247.1011562576430833
  @DF-RHF Final Energy:  -247.10115830373203
    Total Energy =                       -247.1011583037318928
  @DF-RHF Final Energy:  -247.10116466392591
    Total Energy =                       -247.1011646639258856
  @DF-RHF Final Energy:  -247.10116598831613
    Total Energy =                       -247.1011659883160405
  @DF-RHF Final Energy:  -247.10117178444349
    Total Energy =                       -247.1011717844434656
  @DF-RHF Final Energy:  -247.10117704696790
    Total Energy =                       -247.1011770469677913
  @DF-RHF Final Energy:  -247.10119018751058
    Total Energy =                       -247.1011901875103831
  @DF-RHF Final Energy:  -247.10119952077360
    Total Energy =                       -247.1011995207736049
  @DF-RHF Final Energy:  -247.10122277040287
    Total Energy =                       -247.1012227704028419
  @DF-RHF Final Energy:  -247.10127593221466
    Total Energy =                       -247.1012759322146621
  @DF-RHF Final Energy:  -247.10131002250455
    Total Energy =                       -247.1013100225046628
  Basis Set: CC-PVTZ
  Basis Set:
  @DF-RHF Final Energy:  -247.10132650630550
    Total Energy =                       -247.1013265063054973
  Basis Set: CC-PVTZ
  Basis Set:
  Basis Set: CC-PVTZ
  Basis Set:
  @DF-RHF Final Energy:  -247.10132956816364
    Total Energy =                       -247.1013295681636350
  Basis Set: CC-PVTZ
  Basis Set:
  Basis Set: CC-PVTZ
  Basis Set:
  @DF-RHF Final Energy:  -247.10133065162481
    Total Energy =                       -247.1013306516248349
  Basis Set: CC-PVTZ
  Basis Set:
  Charge       = 0
  Multiplicity = 1
  Basis Set: CC-PVTZ
  Basis Set:

    Orbital Energies (a.u.)
    -----------------------

    Doubly Occupied:

       1A    -20.504254     2A    -15.577015     3A    -11.336220
       4A    -11.253475     5A    -11.228412     6A     -1.387469
       7A     -1.231892     8A     -1.016103     9A     -0.934211
      10A     -0.789759    11A     -0.690956    12A     -0.652235
      13A     -0.635418    14A     -0.586510    15A     -0.583110
      16A     -0.554850    17A     -0.547481    18A     -0.507144
      19A     -0.416820    20A     -0.390473

  @DF-RHF Final Energy:  -247.10133114358467

   => Energetics <=

    Nuclear Repulsion Energy =            181.7607048477585181
    One-Electron Energy =                -696.0764629331908964
    Two-Electron Energy =                 267.2144269418478757
    DFT Exchange-Correlation Energy =       0.0000000000000000
    Empirical Dispersion Energy =           0.0000000000000000
    PCM Polarization Energy =               0.0000000000000000
    EFP Energy =                            0.0000000000000000
    Total Energy =                       -247.1013311435845594
    Molecular point group: c1
  Basis Set: CC-PVTZ
  Basis Set:

  -Total Gradient:
     Atom            X                  Y                   Z
    ------   -----------------  -----------------  -----------------
       1        0.000003402267    -0.000000263484    -0.000000855957
       2       -0.000083471702    -0.000305507584    -0.000229234248
       3        0.000121337860     0.000330285275    -0.000160594912
       4        0.000031447491     0.000155246523     0.000197915394
       5       -0.000081324187    -0.000190191588     0.000195526168
       6       -0.000003868517     0.000002258105    -0.000001100904
       7        0.000003833005     0.000000199120    -0.000001147914
       8       -0.000002654440    -0.000004781120    -0.000000198275
       9        0.000006706000     0.000004621822     0.000001462700
      10       -0.000002596929     0.000003316958     0.000002523234
      11        0.000003091252     0.000001623037    -0.000007641326
      12        0.000004097898     0.000003192936     0.000003346039

  **** Optimization is complete! (in 22 steps) ****
    Final optimized geometry and variables:
    Molecular point group: c1

    Geometry (in Angstrom), charge = 0, multiplicity = 1:

    H           -0.374277313629    -1.276974480161     1.100388568532
    N           -0.557574836331    -0.463712678893     0.568809233598
    C           -1.920527860874     0.005101648197     0.473886271196
    C            0.447357687295     0.067381423771    -0.158336388034
    H           -2.481917580587    -0.528694320664    -0.284988954045
    H           -1.915878317905     1.052728305827     0.222137844497
    H           -2.413524971468    -0.127303445494     1.427615793121
    C            1.794964862221    -0.600397554026    -0.001422393901
    O            0.296353621454     1.000398370110    -0.891429213068
    H            1.986440383989    -1.195101896050    -0.886236434655
    H            2.553759070093     0.165818348616     0.055270164443
    H            1.857637546320    -1.238746935009     0.869944596798

  Mulliken Charges: (a.u.)
   Center  Symbol    Alpha    Beta     Spin     Total
       1     H     0.41041  0.41041  0.00000  0.17917
       2     N     3.61521  3.61521  0.00000 -0.23043
       3     C     3.08085  3.08085  0.00000 -0.16169
       4     C     2.84192  2.84192  0.00000  0.31616
       5     H     0.45725  0.45725  0.00000  0.08550
       6     H     0.43473  0.43473  0.00000  0.13054
       7     H     0.45530  0.45530  0.00000  0.08940
       8     C     3.14427  3.14427  0.00000 -0.28854
       9     O     4.22041  4.22041  0.00000 -0.44082
      10     H     0.44344  0.44344  0.00000  0.11313
      11     H     0.43764  0.43764  0.00000  0.12471
      12     H     0.45857  0.45857  0.00000  0.08287

   Total alpha = 20.00000, Total beta = 20.00000, Total charge = -0.00000
