  ==> Input File <==

--------------------------------------------------------------------------
set {
	reference rhf
	basis 6-31G*
}

set_num_threads( 1 )
memory 2 gb

molecule MOL {
0 1

O	 -2.042549	 -1.228399	 -0.269030
C	 -1.653912	 -0.146171	 0.050137
C	 -0.332303	 0.024011	 0.778412
C	 -2.438579	 1.106236	 -0.272369
C	 0.845713	 -0.001731	 -0.208243
H	 -0.323783	 0.953829	 1.340327
H	 -0.235459	 -0.796807	 1.480410
C	 2.123994	 0.592255	 0.385230
H	 0.581544	 0.546085	 -1.111125
H	 1.023017	 -1.029993	 -0.508877
C	 3.299463	 0.559767	 -0.590692
H	 1.936903	 1.618871	 0.692610
H	 2.387326	 0.045152	 1.287396
H	 3.079077	 1.127711	 -1.490092
H	 3.531089	 -0.457903	 -0.890925
H	 4.192176	 0.984073	 -0.142301
H	 -3.277823	 0.863061	 -0.908988
H	 -1.806773	 1.843019	 -0.759671
H	 -2.802853	 1.554979	 0.648059

	symmetry c1
}
set optking {
	frozen_dihedral = ("
		11 8 5 9,
		5 3 2 4
	")
}

ee = energy('scf')
oeprop('DIPOLE', 'QUADRUPOLE', 'MULLIKEN_CHARGES')
f=open( 'psi4out.xyz', 'w' )
f.write( "19  " )
f.write( str(ee) + "\n" )
f.write( MOL.save_string_xyz() )
f.close()
--------------------------------------------------------------------------

    Molecular point group: c1

    Geometry (in Angstrom), charge = 0, multiplicity = 1:

       Center              X                  Y                   Z               Mass
    ------------   -----------------  -----------------  -----------------  -----------------
           O         -2.020682242514    -1.361012135751    -0.239461953344    15.994914619560
           C         -1.632045242514    -0.278784135751     0.079705046656    12.000000000000
           C         -0.310436242514    -0.108602135751     0.807980046656    12.000000000000
           C         -2.416712242514     0.973622864249    -0.242800953344    12.000000000000
           C          0.867579757486    -0.134344135751    -0.178674953344    12.000000000000
           H         -0.301916242514     0.821215864249     1.369895046656     1.007825032070
           H         -0.213592242514    -0.929420135751     1.509978046656     1.007825032070
           C          2.145860757486     0.459641864249     0.414798046656    12.000000000000
           H          0.603410757486     0.413471864249    -1.081556953344     1.007825032070
           H          1.044883757486    -1.162606135751    -0.479308953344     1.007825032070
           C          3.321329757486     0.427153864249    -0.561123953344    12.000000000000
           H          1.958769757486     1.486257864249     0.722178046656     1.007825032070
           H          2.409192757486    -0.087461135751     1.316964046656     1.007825032070
           H          3.100943757486     0.995097864249    -1.460523953344     1.007825032070
           H          3.552955757486    -0.590516135751    -0.861356953344     1.007825032070
           H          4.214042757486     0.851459864249    -0.112732953344     1.007825032070
           H         -3.255956242514     0.730447864249    -0.879419953344     1.007825032070
           H         -1.784906242514     1.710405864249    -0.730102953344     1.007825032070
           H         -2.780986242514     1.422365864249     0.677627046656     1.007825032070

  Charge       = 0
  Multiplicity = 1
  Basis Set: 6-31G*
  Basis Set:

    Orbital Energies (a.u.)
    -----------------------

    Doubly Occupied:

       1A    -20.547158     2A    -11.324492     3A    -11.230723
       4A    -11.229037     5A    -11.228503     6A    -11.225495
       7A    -11.215330     8A     -1.392993     9A     -1.091831
      10A     -1.029297    11A     -0.984076    12A     -0.890148
      13A     -0.807337    14A     -0.733687    15A     -0.661708
      16A     -0.647317    17A     -0.622076    18A     -0.612881
      19A     -0.583317    20A     -0.573823    21A     -0.552935
      22A     -0.538065    23A     -0.508359    24A     -0.503927
      25A     -0.482459    26A     -0.476602    27A     -0.466329
      28A     -0.396553

  @DF-RHF Final Energy:  -309.06378796268501

   => Energetics <=

    Nuclear Repulsion Energy =            301.5257995283236028
    One-Electron Energy =               -1016.0663375800479571
    Two-Electron Energy =                 405.4767500890401948
    DFT Exchange-Correlation Energy =       0.0000000000000000
    Empirical Dispersion Energy =           0.0000000000000000
    PCM Polarization Energy =               0.0000000000000000
    EFP Energy =                            0.0000000000000000
    Total Energy =                       -309.0637879626841027

  Mulliken Charges: (a.u.)
   Center  Symbol    Alpha    Beta     Spin     Total
       1     O     4.26201  4.26201  0.00000 -0.52402
       2     C     2.73787  2.73787  0.00000  0.52426
       3     C     3.20093  3.20093  0.00000 -0.40185
       4     C     3.28951  3.28951  0.00000 -0.57901
       5     C     3.15868  3.15868  0.00000 -0.31736
       6     H     0.41666  0.41666  0.00000  0.16669
       7     H     0.40043  0.40043  0.00000  0.19914
       8     C     3.15296  3.15296  0.00000 -0.30593
       9     H     0.42013  0.42013  0.00000  0.15974
      10     H     0.40723  0.40723  0.00000  0.18553
      11     C     3.24036  3.24036  0.00000 -0.48072
      12     H     0.42250  0.42250  0.00000  0.15499
      13     H     0.41971  0.41971  0.00000  0.16057
      14     H     0.42080  0.42080  0.00000  0.15840
      15     H     0.41901  0.41901  0.00000  0.16198
      16     H     0.41752  0.41752  0.00000  0.16496
      17     H     0.39690  0.39690  0.00000  0.20620
      18     H     0.41012  0.41012  0.00000  0.17976
      19     H     0.40667  0.40667  0.00000  0.18667

   Total alpha = 28.00000, Total beta = 28.00000, Total charge =  0.00000
