  ==> Input File <==

--------------------------------------------------------------------------
set {
	reference rhf
	basis 6-31G*
}

set_num_threads( 4 )
memory 2 gb

molecule MOL {
0 1

H	 -3.345493	 -0.839388	 -0.658064
O	 -3.517110	 -0.026191	 -0.205115
C	 -2.306886	 0.532354	 0.237577
C	 -1.177863	 -0.397191	 -0.171080
H	 -2.156308	 1.517575	 -0.201710
H	 -2.315015	 0.655684	 1.319734
C	 0.198102	 0.111031	 0.262842
H	 -1.208843	 -0.518759	 -1.250427
H	 -1.368741	 -1.376554	 0.258909
C	 1.331804	 -0.827780	 -0.158768
H	 0.361943	 1.100838	 -0.156218
H	 0.217265	 0.229072	 1.345532
C	 2.723619	 -0.410569	 0.329459
H	 1.342964	 -0.912588	 -1.244120
H	 1.116806	 -1.824343	 0.220779
C	 3.243875	 0.895854	 -0.272975
H	 3.424222	 -1.207124	 0.091250
H	 2.714788	 -0.329854	 1.414619
H	 3.251977	 0.848779	 -1.358681
H	 2.637085	 1.747371	 0.016682
H	 4.259473	 1.094070	 0.055697

	symmetry c1
}
set optking {
	frozen_dihedral = ("
		1 2 3 5
	")
}

ee = optimize('scf')
oeprop('DIPOLE', 'QUADRUPOLE', 'MULLIKEN_CHARGES')
f=open( 'psi4out.xyz', 'w' )
f.write( "21  " )
f.write( str(ee) + "\n" )
f.write( MOL.save_string_xyz() )
f.close()
--------------------------------------------------------------------------

    Molecular point group: c1
  Charge       = 0
  Multiplicity = 1
  Basis Set: 6-31G*
  Basis Set:
  @DF-RHF Final Energy:  -310.20853643448231
    Total Energy =                       -310.2085364344827099
    Molecular point group: c1
  Basis Set: 6-31G*
  Basis Set:
  Basis Set: 6-31G*
  Basis Set:
  @DF-RHF Final Energy:  -310.20984259166374
    Total Energy =                       -310.2098425916636870
  Basis Set: 6-31G*
  Basis Set:
  Basis Set: 6-31G*
  Basis Set:
  @DF-RHF Final Energy:  -310.21021210391677
    Total Energy =                       -310.2102121039168878
  Basis Set: 6-31G*
  Basis Set:
  Basis Set: 6-31G*
  Basis Set:
  @DF-RHF Final Energy:  -310.21021681022580
    Total Energy =                       -310.2102168102255177
  Basis Set: 6-31G*
  Basis Set:
  Basis Set: 6-31G*
  Basis Set:
  @DF-RHF Final Energy:  -310.21021183572321
    Total Energy =                       -310.2102118357231006
  Basis Set: 6-31G*
  Basis Set:
  Charge       = 0
  Multiplicity = 1
  Basis Set: 6-31G*
  Basis Set:

    Orbital Energies (a.u.)
    -----------------------

    Doubly Occupied:

       1A    -20.548344     2A    -11.265877     3A    -11.224901
       4A    -11.223301     5A    -11.220261     6A    -11.219495
       7A    -11.211704     8A     -1.355803     9A     -1.092890
      10A     -1.038015    11A     -0.957135    12A     -0.881607
      13A     -0.826859    14A     -0.784308    15A     -0.668050
      16A     -0.660545    17A     -0.626345    18A     -0.620986
      19A     -0.591975    20A     -0.576187    21A     -0.547770
      22A     -0.531377    23A     -0.508115    24A     -0.498332
      25A     -0.487722    26A     -0.467208    27A     -0.461855
      28A     -0.441639    29A     -0.430909

  @DF-RHF Final Energy:  -310.21021797489152

   => Energetics <=

    Nuclear Repulsion Energy =            312.4324937247702110
    One-Electron Energy =               -1039.3463885775747713
    Two-Electron Energy =                 416.7036768779130398
    DFT Exchange-Correlation Energy =       0.0000000000000000
    Empirical Dispersion Energy =           0.0000000000000000
    PCM Polarization Energy =               0.0000000000000000
    EFP Energy =                            0.0000000000000000
    Total Energy =                       -310.2102179748915205
    Molecular point group: c1
  Basis Set: 6-31G*
  Basis Set:

  -Total Gradient:
     Atom            X                  Y                   Z
    ------   -----------------  -----------------  -----------------
       1       -0.000006391170    -0.000121954777     0.000208183819
       2        0.000028978626     0.000211598830    -0.000200183085
       3        0.000052349164    -0.000177082992    -0.000168687728
       4        0.000022175756     0.000007580761     0.000007173678
       5       -0.000097392956     0.000084431203     0.000160509422
       6       -0.000000280009     0.000001252270     0.000001409237
       7       -0.000048492302    -0.000003795222    -0.000008039249
       8       -0.000004884293    -0.000001914809    -0.000000479045
       9       -0.000002651671     0.000002170257    -0.000004885954
      10        0.000022046706     0.000003233372     0.000005062363
      11        0.000004394952    -0.000004336504     0.000005242045
      12        0.000007049323     0.000005506642    -0.000002996875
      13        0.000009725855    -0.000014486057    -0.000005297136
      14       -0.000000920544     0.000003457851     0.000003073917
      15        0.000001140023     0.000003383758    -0.000001032702
      16        0.000001343394    -0.000000092640    -0.000000815360
      17        0.000009887248     0.000001549067     0.000003750238
      18       -0.000001276395     0.000000257154    -0.000001303132
      19        0.000000497150     0.000000901795    -0.000000874888
      20        0.000003487018    -0.000000773534    -0.000000001581
      21       -0.000000785876    -0.000000886427     0.000000192014

  **** Optimization is complete! (in 6 steps) ****
    Final optimized geometry and variables:
    Molecular point group: c1

    Geometry (in Angstrom), charge = 0, multiplicity = 1:

    H           -3.483405638557    -0.764465704643    -0.648189047551
    O           -3.575587148635     0.043639040635    -0.165994146091
    C           -2.312298411433     0.519939576560     0.229518375230
    C           -1.172771555089    -0.406507437896    -0.174777809674
    H           -2.163736119119     1.502680124222    -0.208557049103
    H           -2.320909783902     0.644927163902     1.308101247539
    C            0.200178258097     0.108786807968     0.260529367371
    H           -1.188599121574    -0.531608954069    -1.256830716488
    H           -1.349075496560    -1.389575200928     0.259389478410
    C            1.341014425545    -0.824274415976    -0.154491064735
    H            0.356214446003     1.097930991769    -0.161436381606
    H            0.211911535204     0.229950386269     1.342302729242
    C            2.727865012110    -0.395032882678     0.337560668956
    H            1.357178477205    -0.912204433508    -1.239617507996
    H            1.132141152139    -1.821148806314     0.227997319506
    C            3.240125577836     0.913513539778    -0.267008644049
    H            3.434815460067    -1.187209818899     0.104048150368
    H            2.714241849412    -0.311519198064     1.422334516617
    H            3.252409714239     0.863479582247    -1.352524666189
    H            2.626531179594     1.761520989850     0.018420973279
    H            4.253017383329     1.119770606878     0.064591198039

  Mulliken Charges: (a.u.)
   Center  Symbol    Alpha    Beta     Spin     Total
       1     H     0.27947  0.27947  0.00000  0.44106
       2     O     4.37997  4.37997  0.00000 -0.75994
       3     C     2.96730  2.96730  0.00000  0.06541
       4     C     3.18876  3.18876  0.00000 -0.37751
       5     H     0.42631  0.42631  0.00000  0.14738
       6     H     0.42550  0.42550  0.00000  0.14901
       7     C     3.15947  3.15947  0.00000 -0.31894
       8     H     0.42070  0.42070  0.00000  0.15861
       9     H     0.41994  0.41994  0.00000  0.16011
      10     C     3.15246  3.15246  0.00000 -0.30493
      11     H     0.41806  0.41806  0.00000  0.16388
      12     H     0.42053  0.42053  0.00000  0.15894
      13     C     3.15290  3.15290  0.00000 -0.30580
      14     H     0.42320  0.42320  0.00000  0.15361
      15     H     0.42137  0.42137  0.00000  0.15725
      16     C     3.24165  3.24165  0.00000 -0.48331
      17     H     0.41995  0.41995  0.00000  0.16010
      18     H     0.42251  0.42251  0.00000  0.15497
      19     H     0.42184  0.42184  0.00000  0.15633
      20     H     0.41989  0.41989  0.00000  0.16023
      21     H     0.41822  0.41822  0.00000  0.16356

   Total alpha = 29.00000, Total beta = 29.00000, Total charge = -0.00000
