  ==> Input File <==

--------------------------------------------------------------------------
set {
	reference rhf
	basis 6-31G*
}

set_num_threads( 1 )
memory 2 gb

molecule MOL {
0 1

H	 -1.836216	 1.387520	 -0.000064
C	 -1.301823	 0.443321	 -0.000031
O	 -0.003969	 0.658512	 0.000451
O	 -1.829879	 -0.616434	 -0.000857
C	 0.747153	 0.141252	 -1.097477
C	 2.196424	 0.514094	 -0.871817
H	 0.361262	 0.565215	 -2.014353
H	 0.609743	 -0.930464	 -1.140331
H	 2.313832	 1.590628	 -0.823618
H	 2.804484	 0.138299	 -1.688073
H	 2.563671	 0.087780	 0.054613

	symmetry c1
}
set optking {
	frozen_dihedral = ("
		7 5 3 2
	")
}

ee = energy('scf')
oeprop('DIPOLE', 'QUADRUPOLE', 'MULLIKEN_CHARGES')
f=open( 'psi4out.xyz', 'w' )
f.write( "11  " )
f.write( str(ee) + "\n" )
f.write( MOL.save_string_xyz() )
f.close()
--------------------------------------------------------------------------

    Molecular point group: c1

    Geometry (in Angstrom), charge = 0, multiplicity = 1:

       Center              X                  Y                   Z               Mass
    ------------   -----------------  -----------------  -----------------  -----------------
           H         -1.798922688275     1.161710189800     0.395606001838     1.007825032070
           C         -1.264529688275     0.217511189800     0.395639001838    12.000000000000
           O          0.033324311725     0.432702189800     0.396121001838    15.994914619560
           O         -1.792585688275    -0.842243810200     0.394813001838    15.994914619560
           C          0.784446311725    -0.084557810200    -0.701806998162    12.000000000000
           C          2.233717311725     0.288284189800    -0.476146998162    12.000000000000
           H          0.398555311725     0.339405189800    -1.618682998162     1.007825032070
           H          0.647036311725    -1.156273810200    -0.744660998162     1.007825032070
           H          2.351125311725     1.364818189800    -0.427947998162     1.007825032070
           H          2.841777311725    -0.087510810200    -1.292402998162     1.007825032070
           H          2.600964311725    -0.138029810200     0.450283001838     1.007825032070

  Charge       = 0
  Multiplicity = 1
  Basis Set: 6-31G*
  Basis Set:

    Orbital Energies (a.u.)
    -----------------------

    Doubly Occupied:

       1A    -20.597426     2A    -20.564903     3A    -11.378911
       4A    -11.299559     5A    -11.229010     6A     -1.471802
       7A     -1.376014     8A     -1.052984     9A     -0.897049
      10A     -0.818594    11A     -0.741529    12A     -0.687558
      13A     -0.660901    14A     -0.625625    15A     -0.563156
      16A     -0.545467    17A     -0.531538    18A     -0.506066
      19A     -0.464819    20A     -0.449602

  @DF-RHF Final Energy:  -266.81334367136503

   => Energetics <=

    Nuclear Repulsion Energy =            178.2093861215830373
    One-Electron Energy =                -717.1205086028634241
    Two-Electron Energy =                 272.0977788099152122
    DFT Exchange-Correlation Energy =       0.0000000000000000
    Empirical Dispersion Energy =           0.0000000000000000
    PCM Polarization Energy =               0.0000000000000000
    EFP Energy =                            0.0000000000000000
    Total Energy =                       -266.8133436713651463

  Mulliken Charges: (a.u.)
   Center  Symbol    Alpha    Beta     Spin     Total
       1     H     0.42178  0.42178  0.00000  0.15644
       2     C     2.72767  2.72767  0.00000  0.54466
       3     O     4.29746  4.29746  0.00000 -0.59493
       4     O     4.24440  4.24440  0.00000 -0.48880
       5     C     3.00625  3.00625  0.00000 -0.01250
       6     C     3.24860  3.24860  0.00000 -0.49719
       7     H     0.41743  0.41743  0.00000  0.16514
       8     H     0.40403  0.40403  0.00000  0.19195
       9     H     0.41011  0.41011  0.00000  0.17979
      10     H     0.41560  0.41560  0.00000  0.16879
      11     H     0.40667  0.40667  0.00000  0.18666

   Total alpha = 20.00000, Total beta = 20.00000, Total charge =  0.00000
