  ==> Input File <==

--------------------------------------------------------------------------
set {
	reference rhf
	basis 6-31G*
}

set_num_threads( 4 )
memory 2 gb

molecule MOL {
0 1

H	 -2.365627	 -1.312883	 -0.379134
C	 -1.358347	 -1.274295	 0.019669
C	 -0.681945	 0.000119	 -0.470601
H	 -0.826096	 -2.155117	 -0.321105
H	 -1.409554	 -1.292283	 1.100109
C	 -1.357790	 1.274691	 0.020220
N	 0.739525	 -0.000142	 0.006128
H	 -0.594190	 0.000341	 -1.545128
H	 -2.364980	 1.313977	 -0.378631
H	 -0.825080	 2.155361	 -0.320114
H	 -1.409060	 1.292170	 1.100671
O	 1.146192	 0.993280	 0.524121
O	 1.374293	 -0.996953	 -0.163688

	symmetry c1
}
set optking {
	frozen_dihedral = ("
		12 7 3 8
	")
}

ee = optimize('scf')
oeprop('DIPOLE', 'QUADRUPOLE', 'MULLIKEN_CHARGES')
f=open( 'psi4out.xyz', 'w' )
f.write( "13  " )
f.write( str(ee) + "\n" )
f.write( MOL.save_string_xyz() )
f.close()
--------------------------------------------------------------------------

    Molecular point group: c1
  Charge       = 0
  Multiplicity = 1
  Basis Set: 6-31G*
  Basis Set:
  @DF-RHF Final Energy:  -321.73655380855109
    Total Energy =                       -321.7365538085510934
    Molecular point group: c1
  Basis Set: 6-31G*
  Basis Set:
  Basis Set: 6-31G*
  Basis Set:
  @DF-RHF Final Energy:  -321.73360550501434
    Total Energy =                       -321.7336055050143955
  Basis Set: 6-31G*
  Basis Set:
  Basis Set: 6-31G*
  Basis Set:
  @DF-RHF Final Energy:  -321.73462796987894
    Total Energy =                       -321.7346279698789431
  Basis Set: 6-31G*
  Basis Set:
  Basis Set: 6-31G*
  Basis Set:
  @DF-RHF Final Energy:  -321.73743491177208
    Total Energy =                       -321.7374349117720840
  Basis Set: 6-31G*
  Basis Set:
  Basis Set: 6-31G*
  Basis Set:
  @DF-RHF Final Energy:  -321.73749975362790
    Total Energy =                       -321.7374997536277306
  Basis Set: 6-31G*
  Basis Set:
  Basis Set: 6-31G*
  Basis Set:
  @DF-RHF Final Energy:  -321.73751519689426
    Total Energy =                       -321.7375151968942646
  Basis Set: 6-31G*
  Basis Set:
  Basis Set: 6-31G*
  Basis Set:
  @DF-RHF Final Energy:  -321.73751647082167
    Total Energy =                       -321.7375164708217881
  Basis Set: 6-31G*
  Basis Set:
  Charge       = 0
  Multiplicity = 1
  Basis Set: 6-31G*
  Basis Set:

    Orbital Energies (a.u.)
    -----------------------

    Doubly Occupied:

       1A    -20.602282     2A    -20.596799     3A    -15.844444
       4A    -11.308337     5A    -11.243846     6A    -11.240231
       7A     -1.629453     8A     -1.414363     9A     -1.141548
      10A     -0.968833    11A     -0.958955    12A     -0.812873
      13A     -0.761398    14A     -0.725180    15A     -0.720200
      16A     -0.640893    17A     -0.594776    18A     -0.586486
      19A     -0.571122    20A     -0.524041    21A     -0.521699
      22A     -0.480618    23A     -0.471775    24A     -0.447128

  @DF-RHF Final Energy:  -321.73751664362055

   => Energetics <=

    Nuclear Repulsion Energy =            256.6928204528884407
    One-Electron Energy =                -947.2461125353966054
    Two-Electron Energy =                 368.8157754388877265
    DFT Exchange-Correlation Energy =       0.0000000000000000
    Empirical Dispersion Energy =           0.0000000000000000
    PCM Polarization Energy =               0.0000000000000000
    EFP Energy =                            0.0000000000000000
    Total Energy =                       -321.7375166436204381
    Molecular point group: c1
  Basis Set: 6-31G*
  Basis Set:

  -Total Gradient:
     Atom            X                  Y                   Z
    ------   -----------------  -----------------  -----------------
       1       -0.000002780725    -0.000005622109     0.000004430675
       2       -0.000020573248    -0.000007353996     0.000000547176
       3        0.000109647569    -0.001131075740    -0.000381506166
       4       -0.000008267267     0.000006630124     0.000000969163
       5       -0.000003025351    -0.000005738478     0.000002316934
       6        0.000000801693    -0.000005327777    -0.000011615249
       7       -0.000464145644    -0.000345103049     0.001383851976
       8        0.000016057516     0.001120257850     0.000004606633
       9       -0.000001420209    -0.000005376493    -0.000000527358
      10        0.000001592410    -0.000000568888    -0.000004668661
      11        0.000003660326    -0.000005077771     0.000002347752
      12        0.000346160014     0.000383693215    -0.000998148833
      13        0.000022292913     0.000000663112    -0.000002604043

  **** Optimization is complete! (in 8 steps) ****
    Final optimized geometry and variables:
    Molecular point group: c1

    Geometry (in Angstrom), charge = 0, multiplicity = 1:

    H           -2.387328997988    -1.271700583680    -0.365913149525
    C           -1.372987774237    -1.263827327167     0.015647589239
    C           -0.684688357651     0.015988288400    -0.446290986279
    H           -0.857832871049    -2.140953337497    -0.346023410714
    H           -1.418716721050    -1.305150808177     1.098628485079
    C           -1.388866811619     1.283040434852     0.010848677422
    N            0.748388098561    -0.003267842800     0.021347509504
    H           -0.581893553211     0.014495723917    -1.524308405453
    H           -2.396887518296     1.274750601683    -0.388916118431
    H           -0.884917323650     2.170720683738    -0.343422804409
    H           -1.447989842852     1.331231728060     1.091020599878
    O            1.192618666634     0.973629292546     0.538136860415
    O            1.366470164139    -1.001802323642    -0.192799857700

  Mulliken Charges: (a.u.)
   Center  Symbol    Alpha    Beta     Spin     Total
       1     H     0.40910  0.40910  0.00000  0.18181
       2     C     3.24838  3.24838  0.00000 -0.49675
       3     C     3.02759  3.02759  0.00000 -0.05517
       4     H     0.39065  0.39065  0.00000  0.21869
       5     H     0.40763  0.40763  0.00000  0.18473
       6     C     3.24170  3.24170  0.00000 -0.48340
       7     N     3.21678  3.21678  0.00000  0.56644
       8     H     0.38549  0.38549  0.00000  0.22903
       9     H     0.41241  0.41241  0.00000  0.17518
      10     H     0.39780  0.39780  0.00000  0.20439
      11     H     0.40491  0.40491  0.00000  0.19018
      12     O     4.22776  4.22776  0.00000 -0.45552
      13     O     4.22980  4.22980  0.00000 -0.45960

   Total alpha = 24.00000, Total beta = 24.00000, Total charge =  0.00000
