  ==> Input File <==

--------------------------------------------------------------------------
set {
	reference rhf
	basis 6-31G*
}

set_num_threads( 1 )
memory 2 gb

molecule MOL {
0 1

O	 -0.988096	 -1.408613	 0.050699
C	 -0.676749	 -0.249230	 -0.009274
C	 -1.746085	 0.827156	 -0.009539
N	 0.623947	 0.147590	 -0.102813
H	 -1.701500	 1.431508	 -0.908902
H	 -2.703425	 0.330732	 0.036390
H	 -1.647323	 1.487769	 0.845106
C	 1.224495	 0.831092	 1.025922
C	 1.351128	 0.252740	 -1.348765
H	 2.253407	 0.507488	 1.138337
H	 0.675972	 0.595108	 1.921117
H	 1.218182	 1.909583	 0.883657
H	 2.398373	 0.042655	 -1.166607
H	 0.997319	 -0.460237	 -2.076376
H	 1.279004	 1.250267	 -1.778360

	symmetry c1
}
set optking {
	frozen_dihedral = ("
		2 4 8 10
	")
}

ee = energy('scf')
oeprop('DIPOLE', 'QUADRUPOLE', 'MULLIKEN_CHARGES')
f=open( 'psi4out.xyz', 'w' )
f.write( "15  " )
f.write( str(ee) + "\n" )
f.write( MOL.save_string_xyz() )
f.close()
--------------------------------------------------------------------------

    Molecular point group: c1

    Geometry (in Angstrom), charge = 0, multiplicity = 1:

       Center              X                  Y                   Z               Mass
    ------------   -----------------  -----------------  -----------------  -----------------
           O         -0.960046990941    -1.484731942981     0.117806384430    15.994914619560
           C         -0.648699990941    -0.325348942981     0.057833384430    12.000000000000
           C         -1.718035990941     0.751037057019     0.057568384430    12.000000000000
           N          0.651996009059     0.071471057019    -0.035705615570    14.003074004780
           H         -1.673450990941     1.355389057019    -0.841794615570     1.007825032070
           H         -2.675375990941     0.254613057019     0.103497384430     1.007825032070
           H         -1.619273990941     1.411650057019     0.912213384430     1.007825032070
           C          1.252544009059     0.754973057019     1.093029384430    12.000000000000
           C          1.379177009059     0.176621057019    -1.281657615570    12.000000000000
           H          2.281456009059     0.431369057019     1.205444384430     1.007825032070
           H          0.704021009059     0.518989057019     1.988224384430     1.007825032070
           H          1.246231009059     1.833464057019     0.950764384430     1.007825032070
           H          2.426422009059    -0.033463942981    -1.099499615570     1.007825032070
           H          1.025368009059    -0.536355942981    -2.009268615570     1.007825032070
           H          1.307053009059     1.174148057019    -1.711252615570     1.007825032070

  Charge       = 0
  Multiplicity = 1
  Basis Set: 6-31G*
  Basis Set:

    Orbital Energies (a.u.)
    -----------------------

    Doubly Occupied:

       1A    -20.545502     2A    -15.549906     3A    -11.347575
       4A    -11.259753     5A    -11.259455     6A    -11.225400
       7A     -1.396550     8A     -1.237198     9A     -1.007127
      10A     -0.973340    11A     -0.917992    12A     -0.739934
      13A     -0.675304    14A     -0.659758    15A     -0.645107
      16A     -0.600673    17A     -0.584553    18A     -0.577526
      19A     -0.558359    20A     -0.548146    21A     -0.535936
      22A     -0.484394    23A     -0.423618    24A     -0.351289

  @DF-RHF Final Energy:  -285.99435208729619

   => Energetics <=

    Nuclear Repulsion Energy =            251.1341831949778509
    One-Electron Energy =                -886.0481709767875600
    Two-Electron Energy =                 348.9196356945137723
    DFT Exchange-Correlation Energy =       0.0000000000000000
    Empirical Dispersion Energy =           0.0000000000000000
    PCM Polarization Energy =               0.0000000000000000
    EFP Energy =                            0.0000000000000000
    Total Energy =                       -285.9943520872959652

  Mulliken Charges: (a.u.)
   Center  Symbol    Alpha    Beta     Spin     Total
       1     O     4.25149  4.25149  0.00000 -0.50297
       2     C     2.65907  2.65907  0.00000  0.68186
       3     C     3.28491  3.28491  0.00000 -0.56983
       4     N     3.82464  3.82464  0.00000 -0.64927
       5     H     0.40812  0.40812  0.00000  0.18375
       6     H     0.39808  0.39808  0.00000  0.20385
       7     H     0.40899  0.40899  0.00000  0.18202
       8     C     3.13901  3.13901  0.00000 -0.27802
       9     C     3.13522  3.13522  0.00000 -0.27045
      10     H     0.41013  0.41013  0.00000  0.17974
      11     H     0.41004  0.41004  0.00000  0.17992
      12     H     0.42592  0.42592  0.00000  0.14817
      13     H     0.41305  0.41305  0.00000  0.17389
      14     H     0.40472  0.40472  0.00000  0.19056
      15     H     0.42661  0.42661  0.00000  0.14677

   Total alpha = 24.00000, Total beta = 24.00000, Total charge =  0.00000
