                              Psi4 1.0.54 Driver

  ==> Input File <==

--------------------------------------------------------------------------
set {
	reference rhf
	basis cc-pvtz
}

set_num_threads( 4 )
memory 2 gb

molecule MOL {
0 1

H	 -1.109783	 -0.806981	 0.337998
N	 -0.712187	 0.000026	 -0.093397
C	 0.734067	 -0.000020	 0.038424
H	 -1.111070	 0.798392	 0.352639
H	 1.140372	 -0.872115	 -0.458226
H	 1.140363	 0.872301	 -0.457869
H	 1.095085	 -0.000244	 1.065614

	symmetry c1
}
set optking {
	frozen_dihedral = ("
		1 2 3 7
	")
}

ee,wfn = optimize('scf', return_wfn=True)
oeprop( wfn, 'DIPOLE', 'QUADRUPOLE', 'MULLIKEN_CHARGES')
f=open( 'psi4out.xyz', 'w' )
f.write( "7  " )
f.write( str(ee) + "\n" )
f.write( MOL.save_string_xyz() )
f.close()
--------------------------------------------------------------------------

    Molecular point group: c1
  Charge       = 0
  Multiplicity = 1
  Basis Set: CC-PVTZ
  Basis Set:
  @DF-RHF Final Energy:   -95.25376260636503
    Total Energy =                        -95.2537626063650009
    Molecular point group: c1
  Basis Set: CC-PVTZ
  Basis Set:
  Charge       = 0
  Multiplicity = 1
  Basis Set: CC-PVTZ
  Basis Set:

    Orbital Energies (a.u.)
    -----------------------

    Doubly Occupied:

       1A    -15.528592     2A    -11.235555     3A     -1.172174
       4A     -0.897107     5A     -0.665861     6A     -0.603329
       7A     -0.558696     8A     -0.517387     9A     -0.386764

  @DF-RHF Final Energy:   -95.25376275731367

   => Energetics <=

    Nuclear Repulsion Energy =             42.3879982322221167
    One-Electron Energy =                -212.1525940630694720
    Two-Electron Energy =                  74.5108330735336608
    DFT Exchange-Correlation Energy =       0.0000000000000000
    Empirical Dispersion Energy =           0.0000000000000000
    PCM Polarization Energy =               0.0000000000000000
    EFP Energy =                            0.0000000000000000
    Total Energy =                        -95.2537627573136945
    Molecular point group: c1
  Basis Set: CC-PVTZ
  Basis Set:

  -Total Gradient:
     Atom            X                  Y                   Z
    ------   -----------------  -----------------  -----------------
       1       -0.000017694604    -0.000057569485    -0.000039238866
       2       -0.000043903607     0.000061781812     0.000044409639
       3        0.000086553193    -0.000079551102    -0.000024929489
       4       -0.000027940367     0.000024797124     0.000021872323
       5        0.000010834076    -0.000005633265     0.000002298622
       6        0.000007370959    -0.000002110475    -0.000001193240
       7       -0.000015219650     0.000058285391    -0.000003218989

  **** Optimization is complete! (in 2 steps) ****
    Final optimized geometry and variables:
    Molecular point group: c1

    Geometry (in Angstrom), charge = 0, multiplicity = 1:

    H           -1.110112201185    -0.806720060109     0.338187051403
    N           -0.712197940297     0.000247259060    -0.093105788332
    C            0.734105297527     0.000266004900     0.038199532006
    H           -1.111606948131     0.799060229324     0.351782351496
    H            1.140528294315    -0.871684627769    -0.458792494042
    H            1.140541646643     0.872834376189    -0.457763825109
    H            1.095310837789    -0.000092696393     1.065396067961

  Mulliken Charges: (a.u.)
   Center  Symbol    Alpha    Beta     Spin     Total
       1     H     0.42855  0.42855  0.00000  0.14289
       2     N     3.68697  3.68697  0.00000 -0.37395
       3     C     3.07145  3.07145  0.00000 -0.14290
       4     H     0.42858  0.42858  0.00000  0.14284
       5     H     0.45602  0.45602  0.00000  0.08796
       6     H     0.45603  0.45603  0.00000  0.08795
       7     H     0.47240  0.47240  0.00000  0.05520

   Total alpha =  9.00000, Total beta =  9.00000, Total charge = -0.00000

*** Psi4 exiting successfully. Buy a developer a beer!
