                              Psi4 1.0.54 Driver

  ==> Input File <==

--------------------------------------------------------------------------
set {
	reference rhf
	basis cc-pvtz
}

set_num_threads( 4 )
memory 2 gb

molecule MOL {
0 1

H	 -2.698872	 -0.000846	 0.035976
C	 -1.694364	 -0.000483	 0.434237
O	 -0.828791	 -0.000608	 -0.655064
H	 -1.576928	 0.881100	 1.056462
H	 -1.576474	 -0.881658	 1.056959
C	 0.557819	 0.000078	 -0.420141
C	 1.031984	 1.266771	 0.283370
C	 1.033118	 -1.265748	 0.284149
H	 0.977889	 -0.000040	 -1.418219
H	 0.645892	 2.144587	 -0.220049
H	 2.114706	 1.313282	 0.266167
H	 0.720439	 1.300556	 1.320858
H	 0.647887	 -2.144223	 -0.218765
H	 2.115897	 -1.311266	 0.267084
H	 0.721511	 -1.299204	 1.321609

	symmetry c1
}
ee,wfn = energy('scf', return_wfn=True)
oeprop( wfn, 'DIPOLE', 'QUADRUPOLE', 'MULLIKEN_CHARGES')
oeprop( wfn, 'GRID_ESP')
f=open( 'psi4out.xyz', 'w' )
f.write( "15  " )
f.write( str(ee) + "\n" )
f.write( MOL.save_string_xyz() )
f.close()
--------------------------------------------------------------------------

    Molecular point group: c1

    Geometry (in Angstrom), charge = 0, multiplicity = 1:

       Center              X                  Y                   Z               Mass
    ------------   -----------------  -----------------  -----------------  -----------------
           H         -2.698798549242    -0.000845959440     0.036017754628     1.007825032070
           C         -1.694290549242    -0.000482959440     0.434278754628    12.000000000000
           O         -0.828717549242    -0.000607959440    -0.655022245372    15.994914619560
           H         -1.576854549242     0.881100040560     1.056503754628     1.007825032070
           H         -1.576400549242    -0.881657959440     1.057000754628     1.007825032070
           C          0.557892450758     0.000078040560    -0.420099245372    12.000000000000
           C          1.032057450758     1.266771040560     0.283411754628    12.000000000000
           C          1.033191450758    -1.265747959440     0.284190754628    12.000000000000
           H          0.977962450758    -0.000039959440    -1.418177245372     1.007825032070
           H          0.645965450758     2.144587040560    -0.220007245372     1.007825032070
           H          2.114779450758     1.313282040560     0.266208754628     1.007825032070
           H          0.720512450758     1.300556040560     1.320899754628     1.007825032070
           H          0.647960450758    -2.144222959440    -0.218723245372     1.007825032070
           H          2.115970450758    -1.311265959440     0.267125754628     1.007825032070
           H          0.721584450758    -1.299203959440     1.321650754628     1.007825032070

  Charge       = 0
  Multiplicity = 1
  Basis Set: CC-PVTZ
  Basis Set:

    Orbital Energies (a.u.)
    -----------------------

    Doubly Occupied:

       1A    -20.541899     2A    -11.272633     3A    -11.258463
       4A    -11.208686     5A    -11.208669     6A     -1.373574
       7A     -1.051644     8A     -0.940221     9A     -0.931683
      10A     -0.781489    11A     -0.675588    12A     -0.642372
      13A     -0.635234    14A     -0.574019    15A     -0.565847
      16A     -0.552808    17A     -0.533736    18A     -0.497797
      19A     -0.497482    20A     -0.444837    21A     -0.409688

  @DF-RHF Final Energy:  -232.22617974765609

   => Energetics <=

    Nuclear Repulsion Energy =            199.0326027153024597
    One-Electron Energy =                -709.3205463079694937
    Two-Electron Energy =                 278.0617638450108871
    DFT Exchange-Correlation Energy =       0.0000000000000000
    Empirical Dispersion Energy =           0.0000000000000000
    PCM Polarization Energy =               0.0000000000000000
    EFP Energy =                            0.0000000000000000
    Total Energy =                       -232.2261797476561469

  Mulliken Charges: (a.u.)
   Center  Symbol    Alpha    Beta     Spin     Total
       1     H     0.44075  0.44075  0.00000  0.11849
       2     C     3.03889  3.03889  0.00000 -0.07779
       3     O     4.18305  4.18305  0.00000 -0.36609
       4     H     0.47039  0.47039  0.00000  0.05922
       5     H     0.47039  0.47039  0.00000  0.05922
       6     C     2.93321  2.93321  0.00000  0.13358
       7     C     3.15865  3.15865  0.00000 -0.31731
       8     C     3.15865  3.15865  0.00000 -0.31729
       9     H     0.44699  0.44699  0.00000  0.10601
      10     H     0.44386  0.44386  0.00000  0.11228
      11     H     0.44967  0.44967  0.00000  0.10066
      12     H     0.45598  0.45598  0.00000  0.08804
      13     H     0.44386  0.44386  0.00000  0.11228
      14     H     0.44968  0.44968  0.00000  0.10065
      15     H     0.45598  0.45598  0.00000  0.08804

   Total alpha = 21.00000, Total beta = 21.00000, Total charge = -0.00000

*** Psi4 exiting successfully. Buy a developer a beer!
