  ==> Input File <==

--------------------------------------------------------------------------
set {
	reference rhf
	basis cc-pvtz
}

set_num_threads( 4 )
memory 2 gb

molecule MOL {
0 1

H	 2.462485	 -2.216993	 0.000000
O	 2.777472	 -1.330706	 0.000000
C	 1.763288	 -0.447523	 0.000000
C	 2.088958	 0.901202	 0.000000
C	 0.441187	 -0.837917	 0.000000
H	 3.123261	 1.182935	 0.000000
C	 1.092917	 1.850546	 0.000000
H	 0.161352	 -1.870869	 0.000000
C	 -0.532034	 0.141680	 0.000000
H	 1.354056	 2.890524	 0.000000
C	 -0.242341	 1.483082	 0.000000
N	 -1.937041	 -0.281114	 0.000000
H	 -1.026036	 2.208716	 0.000000
O	 -2.159542	 -1.446261	 0.000000
O	 -2.764978	 0.565773	 0.000000

	symmetry c1
}
set optking {
	frozen_dihedral = ("
		11 9 12 14
	")
}

ee = optimize('scf')
oeprop('DIPOLE', 'QUADRUPOLE', 'MULLIKEN_CHARGES')
f=open( 'psi4out.xyz', 'w' )
f.write( "15  " )
f.write( str(ee) + "\n" )
f.write( MOL.save_string_xyz() )
f.close()
--------------------------------------------------------------------------

    Molecular point group: c1
  Charge       = 0
  Multiplicity = 1
  Basis Set: CC-PVTZ
  Basis Set:

    Orbital Energies (a.u.)
    -----------------------

    Doubly Occupied:

       1A    -20.608400     2A    -20.595047     3A    -20.594510
       4A    -15.850632     5A    -11.327661     6A    -11.308970
       7A    -11.263138     8A    -11.262751     9A    -11.258494
      10A    -11.256576    11A     -1.644320    12A     -1.441017
      13A     -1.426730    14A     -1.202480    15A     -1.095485
      16A     -1.047893    17A     -0.966847    18A     -0.881346
      19A     -0.831990    20A     -0.795484    21A     -0.756017
      22A     -0.743619    23A     -0.729550    24A     -0.709382
      25A     -0.677185    26A     -0.636042    27A     -0.621634
      28A     -0.598519    29A     -0.560536    30A     -0.546592
      31A     -0.520071    32A     -0.494933    33A     -0.493644
      34A     -0.460322    35A     -0.380214    36A     -0.346123

  @DF-RHF Final Energy:  -509.21911150367407

   => Energetics <=

    Nuclear Repulsion Energy =            504.7360363576127611
    One-Electron Energy =               -1696.0419941887096229
    Two-Electron Energy =                 682.0868463274234728
    DFT Exchange-Correlation Energy =       0.0000000000000000
    Empirical Dispersion Energy =           0.0000000000000000
    PCM Polarization Energy =               0.0000000000000000
    EFP Energy =                            0.0000000000000000
    Total Energy =                       -509.2191115036732754
    Molecular point group: c1
  Basis Set: CC-PVTZ
  Basis Set:

  -Total Gradient:
     Atom            X                  Y                   Z
    ------   -----------------  -----------------  -----------------
       1       -0.000022044645    -0.000019891077     0.000000000000
       2        0.000017169719     0.000045291765    -0.000000000000
       3       -0.000040819920    -0.000049512755     0.000000000000
       4        0.000002720460     0.000022845215    -0.000000000000
       5        0.000046982830     0.000008301832    -0.000000000000
       6        0.000007025647     0.000000146544     0.000000000000
       7        0.000018588154    -0.000006022746    -0.000000000000
       8       -0.000002010662    -0.000016048811     0.000000000000
       9       -0.000017410358     0.000027599465     0.000000000000
      10       -0.000004956995     0.000003674718     0.000000000000
      11        0.000001404944    -0.000030736546    -0.000000000000
      12       -0.000021992304     0.000002900768     0.000000000000
      13       -0.000006552655     0.000013841506     0.000000000000
      14        0.000010059272     0.000010424129    -0.000000000000
      15        0.000011836514    -0.000012814007    -0.000000000000

  **** Optimization is complete! (in 1 steps) ****
    Final optimized geometry and variables:
    Molecular point group: c1

    Geometry (in Angstrom), charge = 0, multiplicity = 1:

    H            2.462485157698    -2.216993030113     0.000000000000
    O            2.777472157698    -1.330706030113     0.000000000000
    C            1.763288157698    -0.447523030113     0.000000000000
    C            2.088958157698     0.901201969887     0.000000000000
    C            0.441187157698    -0.837917030113     0.000000000000
    H            3.123261157698     1.182934969887     0.000000000000
    C            1.092917157698     1.850545969887     0.000000000000
    H            0.161352157698    -1.870869030113     0.000000000000
    C           -0.532033842302     0.141679969887     0.000000000000
    H            1.354056157698     2.890523969887     0.000000000000
    C           -0.242340842302     1.483081969887     0.000000000000
    N           -1.937040842302    -0.281114030113     0.000000000000
    H           -1.026035842302     2.208715969887     0.000000000000
    O           -2.159541842302    -1.446261030113     0.000000000000
    O           -2.764977842302     0.565772969887     0.000000000000

  Mulliken Charges: (a.u.)
   Center  Symbol    Alpha    Beta     Spin     Total
       1     H     0.38406  0.38406  0.00000  0.23187
       2     O     4.16874  4.16874  0.00000 -0.33747
       3     C     2.84351  2.84351  0.00000  0.31298
       4     C     3.09741  3.09741  0.00000 -0.19482
       5     C     3.13348  3.13348  0.00000 -0.26695
       6     H     0.41314  0.41314  0.00000  0.17373
       7     C     3.05668  3.05668  0.00000 -0.11336
       8     H     0.40728  0.40728  0.00000  0.18544
       9     C     2.98297  2.98297  0.00000  0.03406
      10     H     0.41597  0.41597  0.00000  0.16807
      11     C     3.09525  3.09525  0.00000 -0.19051
      12     N     3.24898  3.24898  0.00000  0.50205
      13     H     0.39950  0.39950  0.00000  0.20100
      14     O     4.17845  4.17845  0.00000 -0.35690
      15     O     4.17459  4.17459  0.00000 -0.34917

   Total alpha = 36.00000, Total beta = 36.00000, Total charge = -0.00000
