  ==> Input File <==

--------------------------------------------------------------------------
set {
	reference rhf
	basis cc-pvtz
}

set_num_threads( 4 )
memory 2 gb

molecule MOL {
0 1

H	 -1.835082	 1.385983	 0.000069
C	 -1.300516	 0.441153	 -0.000028
O	 -0.006604	 0.654344	 -0.000106
O	 -1.828920	 -0.612308	 0.000113
C	 0.717119	 0.336242	 -1.185373
C	 2.170491	 0.665621	 -0.940591
H	 0.310944	 0.909023	 -2.006898
H	 0.577593	 -0.711822	 -1.409111
H	 2.294661	 1.716926	 -0.714073
H	 2.750492	 0.434463	 -1.826039
H	 2.562648	 0.087950	 -0.113258

	symmetry c1
}
set optking {
	frozen_dihedral = ("
		5 3 2 4
	")
}

ee = optimize('scf')
oeprop('DIPOLE', 'QUADRUPOLE', 'MULLIKEN_CHARGES')
f=open( 'psi4out.xyz', 'w' )
f.write( "11  " )
f.write( str(ee) + "\n" )
f.write( MOL.save_string_xyz() )
f.close()
--------------------------------------------------------------------------

    Molecular point group: c1
  Charge       = 0
  Multiplicity = 1
  Basis Set: CC-PVTZ
  Basis Set:
  @DF-RHF Final Energy:  -266.91431648314841
    Total Energy =                       -266.9143164831486388
    Molecular point group: c1
  Basis Set: CC-PVTZ
  Basis Set:
  Basis Set: CC-PVTZ
  Basis Set:
  @DF-RHF Final Energy:  -266.91047663948939
    Total Energy =                       -266.9104766394894455
  Basis Set: CC-PVTZ
  Basis Set:
  Basis Set: CC-PVTZ
  Basis Set:
  @DF-RHF Final Energy:  -266.91522399533915
    Total Energy =                       -266.9152239953390335
  Basis Set: CC-PVTZ
  Basis Set:
  Basis Set: CC-PVTZ
  Basis Set:
  @DF-RHF Final Energy:  -266.91547450336202
    Total Energy =                       -266.9154745033619633
  Basis Set: CC-PVTZ
  Basis Set:
  Basis Set: CC-PVTZ
  Basis Set:
  @DF-RHF Final Energy:  -266.91548126649820
    Total Energy =                       -266.9154812664982614
  Basis Set: CC-PVTZ
  Basis Set:
  Charge       = 0
  Multiplicity = 1
  Basis Set: CC-PVTZ
  Basis Set:

    Orbital Energies (a.u.)
    -----------------------

    Doubly Occupied:

       1A    -20.587173     2A    -20.557986     3A    -11.373180
       4A    -11.296994     5A    -11.225847     6A     -1.470150
       7A     -1.380097     8A     -1.050207     9A     -0.892728
      10A     -0.820039    11A     -0.743213    12A     -0.691641
      13A     -0.656282    14A     -0.633792    15A     -0.563803
      16A     -0.543509    17A     -0.534292    18A     -0.508727
      19A     -0.467177    20A     -0.454031

  @DF-RHF Final Energy:  -266.91548584061343

   => Energetics <=

    Nuclear Repulsion Energy =            177.8443793406049735
    One-Electron Energy =                -716.6179931043889155
    Two-Electron Energy =                 271.8581279231704571
    DFT Exchange-Correlation Energy =       0.0000000000000000
    Empirical Dispersion Energy =           0.0000000000000000
    PCM Polarization Energy =               0.0000000000000000
    EFP Energy =                            0.0000000000000000
    Total Energy =                       -266.9154858406134849
    Molecular point group: c1
  Basis Set: CC-PVTZ
  Basis Set:

  -Total Gradient:
     Atom            X                  Y                   Z
    ------   -----------------  -----------------  -----------------
       1        0.000007045893    -0.000031948891    -0.000014423275
       2       -0.000189166623     0.001851913325    -0.010722010679
       3        0.001116101388    -0.006539730524     0.006271880382
       4       -0.000084304701     0.000248904173     0.006521333317
       5       -0.000878673566     0.004472590576    -0.002030880387
       6       -0.000000859498    -0.000006378320    -0.000029658164
       7        0.000019742667    -0.000000894139     0.000005969922
       8        0.000017112176     0.000011352628     0.000008390261
       9       -0.000007684356    -0.000005094869    -0.000003847025
      10        0.000015828339     0.000002554166    -0.000001851479
      11       -0.000015141717    -0.000003268124    -0.000004902872

  **** Optimization is complete! (in 6 steps) ****
    Final optimized geometry and variables:
    Molecular point group: c1

    Geometry (in Angstrom), charge = 0, multiplicity = 1:

    H           -1.883522812348     1.042180916691     0.445215708437
    C           -1.277134667570     0.139356929993     0.415869733568
    O            0.028199142754     0.408839273578     0.399284628670
    O           -1.737990087523    -0.937561718443     0.476155269028
    C            0.760425565001     0.054549998639    -0.769777519479
    C            2.219630405143     0.347683126367    -0.517587761029
    H            0.388313223245     0.637519418970    -1.605293341448
    H            0.601858654991    -0.993996284241    -0.982730909129
    H            2.366426802169     1.396304907410    -0.293091778841
    H            2.801083528444     0.098125572332    -1.397272614839
    H            2.585071450137    -0.237545648393     0.316054644281

  Mulliken Charges: (a.u.)
   Center  Symbol    Alpha    Beta     Spin     Total
       1     H     0.46073  0.46073  0.00000  0.07854
       2     C     2.83768  2.83768  0.00000  0.32464
       3     O     4.16056  4.16056  0.00000 -0.32112
       4     O     4.17007  4.17007  0.00000 -0.34014
       5     C     2.96856  2.96856  0.00000  0.06287
       6     C     3.13457  3.13457  0.00000 -0.26915
       7     H     0.46391  0.46391  0.00000  0.07218
       8     H     0.45125  0.45125  0.00000  0.09749
       9     H     0.44992  0.44992  0.00000  0.10015
      10     H     0.45585  0.45585  0.00000  0.08829
      11     H     0.44688  0.44688  0.00000  0.10624

   Total alpha = 20.00000, Total beta = 20.00000, Total charge = -0.00000
