  ==> Input File <==

--------------------------------------------------------------------------
set {
	reference rhf
	basis 6-31G*
}

set_num_threads( 1 )
memory 2 gb

molecule MOL {
0 1

H	 2.465338	 -2.224223	 0.000000
O	 2.784187	 -1.332015	 0.000000
C	 1.765313	 -0.449364	 0.000000
C	 1.802880	 0.569371	 -0.946949
C	 0.713162	 -0.527731	 0.891612
H	 2.631324	 0.608720	 -1.628850
C	 0.789158	 1.503651	 -0.997473
H	 0.658707	 -1.301855	 1.631404
C	 -0.287960	 0.426929	 0.812897
H	 0.826147	 2.286793	 -1.731760
C	 -0.279081	 1.446429	 -0.112354
N	 -1.398703	 0.339431	 1.758455
H	 -1.072808	 2.163842	 -0.139203
O	 -1.382879	 -0.553888	 2.550771
O	 -2.256178	 1.164934	 1.683987

	symmetry c1
}
set optking {
	frozen_dihedral = ("
		11 9 12 14
	")
}

ee = energy('scf')
oeprop('DIPOLE', 'QUADRUPOLE', 'MULLIKEN_CHARGES')
f=open( 'psi4out.xyz', 'w' )
f.write( "15  " )
f.write( str(ee) + "\n" )
f.write( MOL.save_string_xyz() )
f.close()
--------------------------------------------------------------------------

    Molecular point group: c1

    Geometry (in Angstrom), charge = 0, multiplicity = 1:

       Center              X                  Y                   Z               Mass
    ------------   -----------------  -----------------  -----------------  -----------------
           H          2.275923178934    -2.442870796569    -0.620369929075     1.007825032070
           O          2.594772178934    -1.550662796569    -0.620369929075    15.994914619560
           C          1.575898178934    -0.668011796569    -0.620369929075    12.000000000000
           C          1.613465178934     0.350723203431    -1.567318929075    12.000000000000
           C          0.523747178934    -0.746378796569     0.271242070925    12.000000000000
           H          2.441909178934     0.390072203431    -2.249219929075     1.007825032070
           C          0.599743178934     1.285003203431    -1.617842929075    12.000000000000
           H          0.469292178934    -1.520502796569     1.011034070925     1.007825032070
           C         -0.477374821066     0.208281203431     0.192527070925    12.000000000000
           H          0.636732178934     2.068145203431    -2.352129929075     1.007825032070
           C         -0.468495821066     1.227781203431    -0.732723929075    12.000000000000
           N         -1.588117821066     0.120783203431     1.138085070925    14.003074004780
           H         -1.262222821066     1.945194203431    -0.759572929075     1.007825032070
           O         -1.572293821066    -0.772535796569     1.930401070925    15.994914619560
           O         -2.445592821066     0.946286203431     1.063617070925    15.994914619560

  Charge       = 0
  Multiplicity = 1
  Basis Set: 6-31G*
  Basis Set:

    Orbital Energies (a.u.)
    -----------------------

    Doubly Occupied:

       1A    -20.607415     2A    -20.604519     3A    -20.603871
       4A    -15.858903     5A    -11.324786     6A    -11.309794
       7A    -11.267386     8A    -11.266962     9A    -11.265271
      10A    -11.261587    11A     -1.637706    12A     -1.430563
      13A     -1.420972    14A     -1.200231    15A     -1.094200
      16A     -1.045807    17A     -0.964615    18A     -0.874386
      19A     -0.829358    20A     -0.791785    21A     -0.745923
      22A     -0.736678    23A     -0.723638    24A     -0.708097
      25A     -0.676019    26A     -0.639347    27A     -0.627497
      28A     -0.572297    29A     -0.556599    30A     -0.536556
      31A     -0.513166    32A     -0.490744    33A     -0.487882
      34A     -0.454453    35A     -0.376646    36A     -0.350484

  @DF-RHF Final Energy:  -509.02478213751527

   => Energetics <=

    Nuclear Repulsion Energy =            503.3622923051825069
    One-Electron Energy =               -1693.0622689962131062
    Two-Electron Energy =                 680.6751945535160075
    DFT Exchange-Correlation Energy =       0.0000000000000000
    Empirical Dispersion Energy =           0.0000000000000000
    PCM Polarization Energy =               0.0000000000000000
    EFP Energy =                            0.0000000000000000
    Total Energy =                       -509.0247821375145350

  Mulliken Charges: (a.u.)
   Center  Symbol    Alpha    Beta     Spin     Total
       1     H     0.26748  0.26748  0.00000  0.46504
       2     O     4.37994  4.37994  0.00000 -0.75988
       3     C     2.80679  2.80679  0.00000  0.38642
       4     C     3.10426  3.10426  0.00000 -0.20851
       5     C     3.12382  3.12382  0.00000 -0.24764
       6     H     0.38148  0.38148  0.00000  0.23705
       7     C     3.10382  3.10382  0.00000 -0.20765
       8     H     0.36365  0.36365  0.00000  0.27270
       9     C     2.91600  2.91600  0.00000  0.16801
      10     H     0.38711  0.38711  0.00000  0.22578
      11     C     3.09372  3.09372  0.00000 -0.18744
      12     N     3.24020  3.24020  0.00000  0.51960
      13     H     0.36450  0.36450  0.00000  0.27101
      14     O     4.23475  4.23475  0.00000 -0.46949
      15     O     4.23250  4.23250  0.00000 -0.46500

   Total alpha = 36.00000, Total beta = 36.00000, Total charge =  0.00000
