                              Psi4 1.0.54 Driver

  ==> Input File <==

--------------------------------------------------------------------------
set {
	reference rhf
	basis cc-pvtz
}

set_num_threads( 4 )
memory 2 gb

molecule MOL {
0 1

H	 2.614283	 2.028610	 0.296620
O	 3.358864	 1.662087	 -0.142800
C	 3.565468	 0.338079	 0.273842
C	 2.533667	 -0.637565	 -0.272227
H	 4.548038	 0.064914	 -0.086598
H	 3.593945	 0.282242	 1.360360
C	 1.114816	 -0.402372	 0.240993
H	 2.544552	 -0.580764	 -1.356576
H	 2.850574	 -1.642962	 -0.005497
C	 0.113298	 -1.420414	 -0.302504
H	 0.796373	 0.598427	 -0.031033
H	 1.113377	 -0.446476	 1.328807
C	 0.523328	 -2.094022	 -1.613374
H	 -0.065776	 -2.182680	 0.451891
H	 -0.838345	 -0.919473	 -0.457107
C	 1.736000	 -3.017756	 -1.513954
H	 -0.321489	 -2.671378	 -1.978711
H	 0.713464	 -1.330626	 -2.364526
C	 2.044376	 -3.741559	 -2.822168
H	 1.562552	 -3.752974	 -0.731113
H	 2.612492	 -2.452578	 -1.211731
C	 3.256831	 -4.661818	 -2.727458
H	 1.176195	 -4.320397	 -3.125129
H	 2.209583	 -3.008488	 -3.607264
H	 3.109452	 -5.426833	 -1.972296
H	 3.445962	 -5.161165	 -3.670850
H	 4.150576	 -4.106362	 -2.462807

	symmetry c1
}
set optking {
	frozen_dihedral = ("
		14 10 7 4
	")
}

ee,wfn = optimize('scf', return_wfn=True)
oeprop( wfn, 'DIPOLE', 'QUADRUPOLE', 'MULLIKEN_CHARGES')
f=open( 'psi4out.xyz', 'w' )
f.write( "27  " )
f.write( str(ee) + "\n" )
f.write( MOL.save_string_xyz() )
f.close()
--------------------------------------------------------------------------

    Molecular point group: c1
  Charge       = 0
  Multiplicity = 1
  Basis Set: CC-PVTZ
  Basis Set:
  @DF-RHF Final Energy:  -388.39379372276795
    Total Energy =                       -388.3937937227682369
    Molecular point group: c1
  Basis Set: CC-PVTZ
  Basis Set:
  Basis Set: CC-PVTZ
  Basis Set:
  @DF-RHF Final Energy:  -388.41116168046534
    Total Energy =                       -388.4111616804651703
  Basis Set: CC-PVTZ
  Basis Set:
  Basis Set: CC-PVTZ
  Basis Set:
  @DF-RHF Final Energy:  -388.41575865770631
    Total Energy =                       -388.4157586577058510
  Basis Set: CC-PVTZ
  Basis Set:
  Basis Set: CC-PVTZ
  Basis Set:
  @DF-RHF Final Energy:  -388.41708275905216
    Total Energy =                       -388.4170827590521640
  Basis Set: CC-PVTZ
  Basis Set:
  @DF-RHF Final Energy:  -388.41742690985939
    Total Energy =                       -388.4174269098595005
  @DF-RHF Final Energy:  -388.41767239014615
    Total Energy =                       -388.4176723901464356
  Basis Set: CC-PVTZ
  Basis Set:
  @DF-RHF Final Energy:  -388.41769922790115
    Total Energy =                       -388.4176992279010392
  Basis Set: CC-PVTZ
  Basis Set:
  Basis Set: CC-PVTZ
  Basis Set:
  @DF-RHF Final Energy:  -388.41770495622990
    Total Energy =                       -388.4177049562301818
  Basis Set: CC-PVTZ
  Basis Set:
  Basis Set: CC-PVTZ
  Basis Set:
  @DF-RHF Final Energy:  -388.41770630437242
    Total Energy =                       -388.4177063043720182
  Basis Set: CC-PVTZ
  Basis Set:
  Charge       = 0
  Multiplicity = 1
  Basis Set: CC-PVTZ
  Basis Set:

    Orbital Energies (a.u.)
    -----------------------

    Doubly Occupied:

       1A    -20.545496     2A    -11.265191     3A    -11.218305
       4A    -11.215279     5A    -11.212910     6A    -11.212754
       7A    -11.212236     8A    -11.209650     9A    -11.206105
      10A     -1.363445    11A     -1.092725    12A     -1.059463
      13A     -1.010157    14A     -0.952225    15A     -0.887680
      16A     -0.833362    17A     -0.793996    18A     -0.768805
      19A     -0.698644    20A     -0.648807    21A     -0.639767
      22A     -0.613671    23A     -0.604674    24A     -0.587206
      25A     -0.567380    26A     -0.554260    27A     -0.551470
      28A     -0.521038    29A     -0.515727    30A     -0.497900
      31A     -0.482217    32A     -0.473214    33A     -0.466656
      34A     -0.456906    35A     -0.451763    36A     -0.434826
      37A     -0.425942

  @DF-RHF Final Energy:  -388.41770655717875

   => Energetics <=

    Nuclear Repulsion Energy =            468.8797466010301491
    One-Electron Energy =               -1456.0912044241567855
    Two-Electron Energy =                 598.7937512659468666
    DFT Exchange-Correlation Energy =       0.0000000000000000
    Empirical Dispersion Energy =           0.0000000000000000
    PCM Polarization Energy =               0.0000000000000000
    EFP Energy =                            0.0000000000000000
    Total Energy =                       -388.4177065571798266
    Molecular point group: c1
  Basis Set: CC-PVTZ
  Basis Set:

  -Total Gradient:
     Atom            X                  Y                   Z
    ------   -----------------  -----------------  -----------------
       1        0.000006598476     0.000001282224    -0.000003290725
       2       -0.000008746100    -0.000000457050     0.000003337573
       3        0.000012961926     0.000012134986     0.000008853510
       4       -0.001330403824     0.002544650573    -0.003576359076
       5       -0.000001800142    -0.000005569143     0.000005005691
       6       -0.000001457981     0.000000962213    -0.000009623005
       7        0.000859625320    -0.003044342091     0.005802491298
       8        0.000002095204     0.000007057377     0.000008060171
       9       -0.000007304278    -0.000003543116    -0.000007047445
      10        0.005115809319    -0.002391333382    -0.004705017353
      11       -0.000004215830    -0.000007005419     0.000006388722
      12        0.000001391060    -0.000014638461     0.000000569337
      13        0.000018387981     0.000008402945    -0.000006825634
      14       -0.004660660350     0.002898290913     0.002474013677
      15        0.000001705329     0.000001838313    -0.000008912839
      16        0.000010964770    -0.000017307604     0.000006510232
      17       -0.000003705523     0.000003437204     0.000006962983
      18       -0.000001028515    -0.000004451603     0.000000374720
      19       -0.000011243074    -0.000013543397    -0.000002806328
      20        0.000006452184     0.000017857293    -0.000017047529
      21       -0.000004508728     0.000000637063     0.000009067331
      22       -0.000010710499     0.000014589003     0.000005037849
      23        0.000008741060    -0.000000790059    -0.000005620075
      24       -0.000003300601    -0.000009771501     0.000012306875
      25        0.000002119114     0.000006166134    -0.000006050012
      26        0.000003577941     0.000000789655    -0.000000193307
      27       -0.000001344234    -0.000005343068    -0.000000186637

  **** Optimization is complete! (in 10 steps) ****
    Final optimized geometry and variables:
    Molecular point group: c1

    Geometry (in Angstrom), charge = 0, multiplicity = 1:

    H            0.293634612709     3.808096977580     1.137432358977
    O            1.091853651756     3.552536401729     0.714600477927
    C            1.551905732865     2.334008398669     1.236544298767
    C            0.747055713530     1.127620521638     0.770980566215
    H            2.574165222698     2.235454847427     0.897008551170
    H            1.576046775241     2.371388240261     2.323804465774
    C           -0.686275084906     1.119600813541     1.301537488918
    H            0.751190124823     1.116966629090    -0.312176369281
    H            1.275509668782     0.238847370992     1.103229730118
    C           -1.633236433658    -0.015795860542     0.844077052897
    H           -1.144950872492     2.057309202652     1.000939572468
    H           -0.663104184178     1.132130164603     2.387227692740
    C           -1.402735502807    -0.671695635607    -0.522617253463
    H           -1.693944736724    -0.774996340325     1.618682114007
    H           -2.629572936185     0.415269685885     0.829120476798
    C           -0.390600694492    -1.816750455413    -0.546919556692
    H           -2.355777874197    -1.068622392767    -0.860053106808
    H           -1.124696841047     0.082450007121    -1.253248357515
    C           -0.255106267118    -2.461168861861    -1.924139712546
    H           -0.700064929275    -2.572408678546     0.171439344182
    H            0.584273548430    -1.472192309600    -0.222626823653
    C            0.736103740919    -3.619941818393    -1.949069705988
    H           -1.228744253305    -2.813545498556    -2.253709060512
    H            0.054550549839    -1.707960220495    -2.643604667295
    H            0.435920792138    -4.406536452388    -1.264657113944
    H            0.808629633933    -4.054140207279    -2.939652977803
    H            1.728904451204    -3.292436358687    -1.658670831174

  Mulliken Charges: (a.u.)
   Center  Symbol    Alpha    Beta     Spin     Total
       1     H     0.39236  0.39236  0.00000  0.21528
       2     O     4.20560  4.20560  0.00000 -0.41120
       3     C     2.97994  2.97994  0.00000  0.04012
       4     C     3.09998  3.09998  0.00000 -0.19997
       5     H     0.44765  0.44765  0.00000  0.10470
       6     H     0.46883  0.46883  0.00000  0.06234
       7     C     3.10022  3.10022  0.00000 -0.20044
       8     H     0.44744  0.44744  0.00000  0.10512
       9     H     0.45491  0.45491  0.00000  0.09018
      10     C     3.10347  3.10347  0.00000 -0.20693
      11     H     0.45849  0.45849  0.00000  0.08303
      12     H     0.44870  0.44870  0.00000  0.10260
      13     C     3.10963  3.10963  0.00000 -0.21925
      14     H     0.45177  0.45177  0.00000  0.09646
      15     H     0.44630  0.44630  0.00000  0.10741
      16     C     3.08711  3.08711  0.00000 -0.17421
      17     H     0.44386  0.44386  0.00000  0.11227
      18     H     0.44827  0.44827  0.00000  0.10346
      19     C     3.08533  3.08533  0.00000 -0.17067
      20     H     0.45395  0.45395  0.00000  0.09210
      21     H     0.44939  0.44939  0.00000  0.10122
      22     C     3.14992  3.14992  0.00000 -0.29983
      23     H     0.45380  0.45380  0.00000  0.09240
      24     H     0.45418  0.45418  0.00000  0.09164
      25     H     0.45540  0.45540  0.00000  0.08919
      26     H     0.44812  0.44812  0.00000  0.10376
      27     H     0.45539  0.45539  0.00000  0.08922

   Total alpha = 37.00000, Total beta = 37.00000, Total charge = -0.00000

*** Psi4 exiting successfully. Buy a developer a beer!
