  ==> Input File <==

--------------------------------------------------------------------------
set {
	reference rhf
	basis 6-31G*
}

set_num_threads( 1 )
memory 2 gb

molecule MOL {
0 1

H	 -3.261111	 -0.295142	 1.469456
C	 -3.306842	 -0.277400	 0.373456
C	 -2.660244	 0.921717	 -0.272021
O	 -3.838538	 -1.161155	 -0.216482
C	 -1.220012	 1.144545	 0.209990
H	 -2.705793	 0.797307	 -1.347733
H	 -3.263782	 1.790044	 -0.010477
C	 -0.252658	 0.041456	 -0.226725
H	 -0.873521	 2.100229	 -0.171974
H	 -1.211708	 1.231594	 1.295398
C	 1.180775	 0.282413	 0.250794
H	 -0.266029	 -0.034465	 -1.312038
H	 -0.597733	 -0.921000	 0.146291
C	 2.148627	 -0.814315	 -0.201312
H	 1.516199	 1.249228	 -0.115937
H	 1.192670	 0.346017	 1.338083
C	 3.580890	 -0.659131	 0.322722
H	 2.166869	 -0.852443	 -1.289387
H	 1.762857	 -1.776509	 0.128956
C	 4.668597	 -0.837544	 -0.737789
H	 3.739257	 -1.391849	 1.110118
H	 3.689262	 0.316926	 0.791219
H	 4.574870	 -1.799531	 -1.234844
H	 4.624465	 -0.065982	 -1.499182
H	 5.655820	 -0.793740	 -0.287827

	symmetry c1
}
set optking {
	frozen_dihedral = ("
		6 3 5 8,
		6 3 2 4,
		3 5 8 12,
		12 8 11 14,
		8 11 14 18
	")
}

ee = energy('scf')
oeprop('DIPOLE', 'QUADRUPOLE', 'MULLIKEN_CHARGES')
f=open( 'psi4out.xyz', 'w' )
f.write( "25  " )
f.write( str(ee) + "\n" )
f.write( MOL.save_string_xyz() )
f.close()
--------------------------------------------------------------------------

    Molecular point group: c1

    Geometry (in Angstrom), charge = 0, multiplicity = 1:

       Center              X                  Y                   Z               Mass
    ------------   -----------------  -----------------  -----------------  -----------------
           H         -3.301277305971    -0.130829189212     1.530577198070     1.007825032070
           C         -3.347008305971    -0.113087189212     0.434577198070    12.000000000000
           C         -2.700410305971     1.086029810788    -0.210899801930    12.000000000000
           O         -3.878704305971    -0.996842189212    -0.155360801930    15.994914619560
           C         -1.260178305971     1.308857810788     0.271111198070    12.000000000000
           H         -2.745959305971     0.961619810788    -1.286611801930     1.007825032070
           H         -3.303948305971     1.954356810788     0.050644198070     1.007825032070
           C         -0.292824305971     0.205768810788    -0.165603801930    12.000000000000
           H         -0.913687305971     2.264541810788    -0.110852801930     1.007825032070
           H         -1.251874305971     1.395906810788     1.356519198070     1.007825032070
           C          1.140608694029     0.446725810788     0.311915198070    12.000000000000
           H         -0.306195305971     0.129847810788    -1.250916801930     1.007825032070
           H         -0.637899305971    -0.756687189212     0.207412198070     1.007825032070
           C          2.108460694029    -0.650002189212    -0.140190801930    12.000000000000
           H          1.476032694029     1.413540810788    -0.054815801930     1.007825032070
           H          1.152503694029     0.510329810788     1.399204198070     1.007825032070
           C          3.540723694029    -0.494818189212     0.383843198070    12.000000000000
           H          2.126702694029    -0.688130189212    -1.228265801930     1.007825032070
           H          1.722690694029    -1.612196189212     0.190077198070     1.007825032070
           C          4.628430694029    -0.673231189212    -0.676667801930    12.000000000000
           H          3.699090694029    -1.227536189212     1.171239198070     1.007825032070
           H          3.649095694029     0.481238810788     0.852340198070     1.007825032070
           H          4.534703694029    -1.635218189212    -1.173722801930     1.007825032070
           H          4.584298694029     0.098330810788    -1.438060801930     1.007825032070
           H          5.615653694029    -0.629427189212    -0.226705801930     1.007825032070

  Charge       = 0
  Multiplicity = 1
  Basis Set: 6-31G*
  Basis Set:

    Orbital Energies (a.u.)
    -----------------------

    Doubly Occupied:

       1A    -20.562002     2A    -11.326145     3A    -11.235372
       4A    -11.234659     5A    -11.223720     6A    -11.220877
       7A    -11.216551     8A    -11.215612     9A    -11.210806
      10A     -1.401987    11A     -1.103711    12A     -1.068969
      13A     -1.014963    14A     -0.943446    15A     -0.869788
      16A     -0.816048    17A     -0.792373    18A     -0.786723
      19A     -0.664497    20A     -0.662466    21A     -0.636106
      22A     -0.616291    23A     -0.608787    24A     -0.590986
      25A     -0.570301    26A     -0.555443    27A     -0.533538
      28A     -0.520619    29A     -0.512499    30A     -0.499220
      31A     -0.484517    32A     -0.480891    33A     -0.465095
      34A     -0.457916    35A     -0.440303    36A     -0.409551

  @DF-RHF Final Energy:  -387.11817229760265

   => Energetics <=

    Nuclear Repulsion Energy =            435.6400739483393636
    One-Electron Energy =               -1387.6106832865543765
    Two-Electron Energy =                 564.8524370406091748
    DFT Exchange-Correlation Energy =       0.0000000000000000
    Empirical Dispersion Energy =           0.0000000000000000
    PCM Polarization Energy =               0.0000000000000000
    EFP Energy =                            0.0000000000000000
    Total Energy =                       -387.1181722976058381

  Mulliken Charges: (a.u.)
   Center  Symbol    Alpha    Beta     Spin     Total
       1     H     0.43260  0.43260  0.00000  0.13479
       2     C     2.83085  2.83085  0.00000  0.33831
       3     C     3.20806  3.20806  0.00000 -0.41611
       4     O     4.23775  4.23775  0.00000 -0.47551
       5     C     3.16661  3.16661  0.00000 -0.33322
       6     H     0.39968  0.39968  0.00000  0.20063
       7     H     0.40669  0.40669  0.00000  0.18662
       8     C     3.15581  3.15581  0.00000 -0.31163
       9     H     0.41287  0.41287  0.00000  0.17425
      10     H     0.41961  0.41961  0.00000  0.16079
      11     C     3.15444  3.15444  0.00000 -0.30889
      12     H     0.41784  0.41784  0.00000  0.16431
      13     H     0.41830  0.41830  0.00000  0.16340
      14     C     3.15467  3.15467  0.00000 -0.30934
      15     H     0.42229  0.42229  0.00000  0.15542
      16     H     0.42291  0.42291  0.00000  0.15418
      17     C     3.15446  3.15446  0.00000 -0.30893
      18     H     0.42035  0.42035  0.00000  0.15929
      19     H     0.42016  0.42016  0.00000  0.15969
      20     C     3.24028  3.24028  0.00000 -0.48055
      21     H     0.42040  0.42040  0.00000  0.15919
      22     H     0.42102  0.42102  0.00000  0.15795
      23     H     0.42091  0.42091  0.00000  0.15817
      24     H     0.42139  0.42139  0.00000  0.15722
      25     H     0.42002  0.42002  0.00000  0.15995

   Total alpha = 36.00000, Total beta = 36.00000, Total charge =  0.00000
