  ==> Input File <==

--------------------------------------------------------------------------
set {
	reference rhf
	basis cc-pvtz
}

set_num_threads( 4 )
memory 2 gb

molecule MOL {
0 1

H	 2.084071	 1.984660	 -0.338057
O	 1.164566	 1.941138	 -0.152957
C	 0.700177	 0.619554	 -0.266242
C	 -0.713111	 0.588314	 0.266177
H	 1.321387	 -0.055817	 0.314186
H	 0.706742	 0.293250	 -1.302996
O	 -1.421673	 -0.521378	 -0.196983
H	 -1.244794	 1.469161	 -0.069059
H	 -0.685100	 0.604721	 1.352683
H	 -0.933408	 -1.297830	 0.014544

	symmetry c1
}
set optking {
	frozen_dihedral = ("
		5 3 4 7
	")
}

ee = optimize('scf')
oeprop('DIPOLE', 'QUADRUPOLE', 'MULLIKEN_CHARGES')
f=open( 'psi4out.xyz', 'w' )
f.write( "10  " )
f.write( str(ee) + "\n" )
f.write( MOL.save_string_xyz() )
f.close()
--------------------------------------------------------------------------

    Molecular point group: c1
  Charge       = 0
  Multiplicity = 1
  Basis Set: CC-PVTZ
  Basis Set:
  @DF-RHF Final Energy:  -229.02307722716316
    Total Energy =                       -229.0230772271630713
    Molecular point group: c1
  Basis Set: CC-PVTZ
  Basis Set:
  Basis Set: CC-PVTZ
  Basis Set:
  @DF-RHF Final Energy:  -229.02383283793770
    Total Energy =                       -229.0238328379377322
  Basis Set: CC-PVTZ
  Basis Set:
  Basis Set: CC-PVTZ
  Basis Set:
  @DF-RHF Final Energy:  -229.02403295385810
    Total Energy =                       -229.0240329538580681
  Basis Set: CC-PVTZ
  Basis Set:
  Basis Set: CC-PVTZ
  Basis Set:
  @DF-RHF Final Energy:  -229.02408572442252
    Total Energy =                       -229.0240857244225481
  Basis Set: CC-PVTZ
  Basis Set:
  Basis Set: CC-PVTZ
  Basis Set:
  @DF-RHF Final Energy:  -229.02408772761282
    Total Energy =                       -229.0240877276127094
  Basis Set: CC-PVTZ
  Basis Set:
  Charge       = 0
  Multiplicity = 1
  Basis Set: CC-PVTZ
  Basis Set:

    Orbital Energies (a.u.)
    -----------------------

    Doubly Occupied:

       1A    -20.553955     2A    -20.552716     3A    -11.270301
       4A    -11.267056     5A     -1.377608     6A     -1.364616
       7A     -0.998999     8A     -0.846962     9A     -0.717936
      10A     -0.701529    11A     -0.634802    12A     -0.611204
      13A     -0.583326    14A     -0.528661    15A     -0.491813
      16A     -0.447281    17A     -0.442841

  @DF-RHF Final Energy:  -229.02408789117359

   => Energetics <=

    Nuclear Repulsion Energy =            131.4194738848628106
    One-Electron Energy =                -574.1039116186869933
    Two-Electron Energy =                 213.6603498426506746
    DFT Exchange-Correlation Energy =       0.0000000000000000
    Empirical Dispersion Energy =           0.0000000000000000
    PCM Polarization Energy =               0.0000000000000000
    EFP Energy =                            0.0000000000000000
    Total Energy =                       -229.0240878911735365
    Molecular point group: c1
  Basis Set: CC-PVTZ
  Basis Set:

  -Total Gradient:
     Atom            X                  Y                   Z
    ------   -----------------  -----------------  -----------------
       1       -0.000005116499    -0.000002124900     0.000000866415
       2        0.000003361206     0.000019029475    -0.000002519393
       3       -0.001376489757    -0.003042099486    -0.004170005883
       4        0.001536667596    -0.001685285576     0.003959175972
       5        0.000837801586     0.002918936039     0.002660046419
       6        0.000002086717    -0.000006076429    -0.000005418850
       7       -0.000997708148     0.001789360989    -0.002450219925
       8       -0.000004945529    -0.000007256359     0.000000917814
       9        0.000005609995     0.000012629944     0.000007720266
      10       -0.000001267167     0.000002886305    -0.000000562835

  **** Optimization is complete! (in 6 steps) ****
    Final optimized geometry and variables:
    Molecular point group: c1

    Geometry (in Angstrom), charge = 0, multiplicity = 1:

    H            2.106117024045     1.384474776849    -0.248805155442
    O            1.205174956547     1.307044635097     0.004164074604
    C            0.757953911327    -0.009192867281    -0.183372223449
    C           -0.663942338098    -0.081297199215     0.345284505747
    H            1.401838472096    -0.694049607514     0.365293671265
    H            0.758348491601    -0.284929110841    -1.232402819154
    O           -1.358799811327    -1.186177297162    -0.162994462416
    H           -1.192529615218     0.798373366480     0.007066644226
    H           -0.667473649340    -0.070661642476     1.430395771229
    H           -1.087542491737    -1.974010427453     0.271343595711

  Mulliken Charges: (a.u.)
   Center  Symbol    Alpha    Beta     Spin     Total
       1     H     0.39323  0.39323  0.00000  0.21355
       2     O     4.19925  4.19925  0.00000 -0.39850
       3     C     2.96846  2.96846  0.00000  0.06308
       4     C     2.97604  2.97604  0.00000  0.04792
       5     H     0.47967  0.47967  0.00000  0.04065
       6     H     0.46891  0.46891  0.00000  0.06218
       7     O     4.20071  4.20071  0.00000 -0.40143
       8     H     0.45200  0.45200  0.00000  0.09599
       9     H     0.46691  0.46691  0.00000  0.06618
      10     H     0.39481  0.39481  0.00000  0.21037

   Total alpha = 17.00000, Total beta = 17.00000, Total charge = -0.00000
