  ==> Input File <==

--------------------------------------------------------------------------
set {
	reference rhf
	basis 6-31G*
}

set_num_threads( 1 )
memory 2 gb

molecule MOL {
0 1

H	 -2.061343	 0.375628	 -1.031719
N	 -1.852125	 0.165761	 -0.074816
C	 -0.563778	 -0.502042	 0.037919
H	 -2.586653	 -0.429334	 0.258482
C	 0.575259	 0.508231	 -0.048326
H	 -0.482092	 -1.204004	 -0.786564
H	 -0.460411	 -1.085169	 0.956626
C	 1.954651	 -0.143624	 0.035137
H	 0.475158	 1.060484	 -0.977307
H	 0.469181	 1.234488	 0.755973
H	 2.103292	 -0.853109	 -0.774172
H	 2.742821	 0.599562	 -0.030094
H	 2.083613	 -0.679371	 0.971560

	symmetry c1
}
set optking {
	frozen_dihedral = ("
		6 3 5 9
	")
}

ee = energy('scf')
oeprop('DIPOLE', 'QUADRUPOLE', 'MULLIKEN_CHARGES')
f=open( 'psi4out.xyz', 'w' )
f.write( "13  " )
f.write( str(ee) + "\n" )
f.write( MOL.save_string_xyz() )
f.close()
--------------------------------------------------------------------------

    Molecular point group: c1

    Geometry (in Angstrom), charge = 0, multiplicity = 1:

       Center              X                  Y                   Z               Mass
    ------------   -----------------  -----------------  -----------------  -----------------
           H         -2.060658692072     0.380986687749    -1.007795383995     1.007825032070
           N         -1.851440692072     0.171119687749    -0.050892383995    14.003074004780
           C         -0.563093692072    -0.496683312251     0.061842616005    12.000000000000
           H         -2.585968692072    -0.423975312251     0.282405616005     1.007825032070
           C          0.575943307928     0.513589687749    -0.024402383995    12.000000000000
           H         -0.481407692072    -1.198645312251    -0.762640383995     1.007825032070
           H         -0.459726692072    -1.079810312251     0.980549616005     1.007825032070
           C          1.955335307928    -0.138265312251     0.059060616005    12.000000000000
           H          0.475842307928     1.065842687749    -0.953383383995     1.007825032070
           H          0.469865307928     1.239846687749     0.779896616005     1.007825032070
           H          2.103976307928    -0.847750312251    -0.750248383995     1.007825032070
           H          2.743505307928     0.604920687749    -0.006170383995     1.007825032070
           H          2.084297307928    -0.674012312251     0.995483616005     1.007825032070

  Charge       = 0
  Multiplicity = 1
  Basis Set: 6-31G*
  Basis Set:

    Orbital Energies (a.u.)
    -----------------------

    Doubly Occupied:

       1A    -15.531577     2A    -11.240608     3A    -11.209290
       4A    -11.207710     5A     -1.176638     6A     -1.033854
       7A     -0.897965     8A     -0.796993     9A     -0.667487
      10A     -0.618951    11A     -0.604215    12A     -0.570338
      13A     -0.528996    14A     -0.490183    15A     -0.480000
      16A     -0.466023    17A     -0.377468

  @DF-RHF Final Energy:  -173.27971794747575

   => Energetics <=

    Nuclear Repulsion Energy =            131.7207614306638277
    One-Electron Energy =                -494.2043480141391569
    Two-Electron Energy =                 189.2038686359995268
    DFT Exchange-Correlation Energy =       0.0000000000000000
    Empirical Dispersion Energy =           0.0000000000000000
    PCM Polarization Energy =               0.0000000000000000
    EFP Energy =                            0.0000000000000000
    Total Energy =                       -173.2797179474758309

  Mulliken Charges: (a.u.)
   Center  Symbol    Alpha    Beta     Spin     Total
       1     H     0.33341  0.33341  0.00000  0.33318
       2     N     3.92226  3.92226  0.00000 -0.84452
       3     C     3.06451  3.06451  0.00000 -0.12902
       4     H     0.33251  0.33251  0.00000  0.33499
       5     C     3.14497  3.14497  0.00000 -0.28994
       6     H     0.43355  0.43355  0.00000  0.13290
       7     H     0.42101  0.42101  0.00000  0.15799
       8     C     3.24475  3.24475  0.00000 -0.48951
       9     H     0.42543  0.42543  0.00000  0.14914
      10     H     0.41488  0.41488  0.00000  0.17024
      11     H     0.42291  0.42291  0.00000  0.15418
      12     H     0.41779  0.41779  0.00000  0.16442
      13     H     0.42202  0.42202  0.00000  0.15596

   Total alpha = 17.00000, Total beta = 17.00000, Total charge =  0.00000
