                              Psi4 1.0.54 Driver

  ==> Input File <==

--------------------------------------------------------------------------
set {
	reference rhf
	basis cc-pvtz
}

set_num_threads( 4 )
memory 2 gb

molecule MOL {
0 1

O	 1.847685	 1.294399	 -0.000190
C	 1.704209	 0.119472	 -0.000093
C	 0.380337	 -0.600947	 -0.000234
O	 2.715427	 -0.733672	 0.000025
C	 -0.824290	 0.329213	 -0.000115
H	 0.371455	 -1.255476	 -0.865660
H	 0.371410	 -1.255787	 0.864952
C	 -2.146151	 -0.432825	 -0.000068
H	 -0.773936	 0.979158	 -0.866319
H	 -0.773838	 0.979034	 0.866186
C	 -3.366283	 0.483552	 0.000557
H	 -2.189286	 -1.084450	 -0.869996
H	 -2.188867	 -1.085083	 0.869399
C	 -3.086491	 1.853198	 0.609818
H	 -4.173701	 0.004031	 0.546719
H	 -3.720998	 0.607873	 -1.018698
H	 -2.762439	 1.764237	 1.641472
H	 -3.972242	 2.477660	 0.594770
H	 -2.306434	 2.373025	 0.063443
C	 4.020999	 -0.192556	 0.000019
H	 4.182809	 0.412891	 -0.879449
H	 4.692590	 -1.035653	 0.000152
H	 4.182726	 0.413087	 0.879368

	symmetry c1
}
set optking {
	frozen_dihedral = ("
		15 11 8 12
	")
}

ee,wfn = optimize('scf', return_wfn=True)
oeprop( wfn, 'DIPOLE', 'QUADRUPOLE', 'MULLIKEN_CHARGES')
f=open( 'psi4out.xyz', 'w' )
f.write( "23  " )
f.write( str(ee) + "\n" )
f.write( MOL.save_string_xyz() )
f.close()
--------------------------------------------------------------------------

    Molecular point group: c1
  Charge       = 0
  Multiplicity = 1
  Basis Set: CC-PVTZ
  Basis Set:
  @DF-RHF Final Energy:  -423.12164979555752
    Total Energy =                       -423.1216497955567775
    Molecular point group: c1
  Basis Set: CC-PVTZ
  Basis Set:
  Basis Set: CC-PVTZ
  Basis Set:
  @DF-RHF Final Energy:  -423.07246581056887
    Total Energy =                       -423.0724658105689286
  Basis Set: CC-PVTZ
  Basis Set:
  Basis Set: CC-PVTZ
  Basis Set:
  @DF-RHF Final Energy:  -423.12136697920465
    Total Energy =                       -423.1213669792048222
  Basis Set: CC-PVTZ
  Basis Set:
  Basis Set: CC-PVTZ
  Basis Set:
  @DF-RHF Final Energy:  -423.12425427008401
    Total Energy =                       -423.1242542700839522
  Basis Set: CC-PVTZ
  Basis Set:
  @DF-RHF Final Energy:  -423.12425238011269
    Total Energy =                       -423.1242523801132620
  @DF-RHF Final Energy:  -423.12335559952845
    Total Energy =                       -423.1233555995281677
  @DF-RHF Final Energy:  -423.12443468073013
    Total Energy =                       -423.1244346807297916
  Basis Set: CC-PVTZ
  Basis Set:
  @DF-RHF Final Energy:  -423.12444534577975
    Total Energy =                       -423.1244453457798045
  Basis Set: CC-PVTZ
  Basis Set:
  Basis Set: CC-PVTZ
  Basis Set:
  @DF-RHF Final Energy:  -423.12445131325228
    Total Energy =                       -423.1244513132528482
  Basis Set: CC-PVTZ
  Basis Set:
  Basis Set: CC-PVTZ
  Basis Set:
  @DF-RHF Final Energy:  -423.12445275709422
    Total Energy =                       -423.1244527570937635
  Basis Set: CC-PVTZ
  Basis Set:
  Charge       = 0
  Multiplicity = 1
  Basis Set: CC-PVTZ
  Basis Set:

    Orbital Energies (a.u.)
    -----------------------

    Doubly Occupied:

       1A    -20.596167     2A    -20.533963     3A    -11.364375
       4A    -11.278381     5A    -11.233384     6A    -11.216653
       7A    -11.216004     8A    -11.215159     9A    -11.205121
      10A     -1.472031    11A     -1.365584    12A     -1.093067
      13A     -1.041323    14A     -0.985532    15A     -0.931171
      16A     -0.859440    17A     -0.779937    18A     -0.766947
      19A     -0.698511    20A     -0.686680    21A     -0.675941
      22A     -0.650417    23A     -0.610793    24A     -0.598129
      25A     -0.592264    26A     -0.559446    27A     -0.535576
      28A     -0.526809    29A     -0.520280    30A     -0.515901
      31A     -0.494458    32A     -0.464267    33A     -0.462627
      34A     -0.459031    35A     -0.455155    36A     -0.438029

  @DF-RHF Final Energy:  -423.12445276485573

   => Energetics <=

    Nuclear Repulsion Energy =            459.0889663469959032
    One-Electron Energy =               -1486.2297360069921979
    Two-Electron Energy =                 604.0163168951404487
    DFT Exchange-Correlation Energy =       0.0000000000000000
    Empirical Dispersion Energy =           0.0000000000000000
    PCM Polarization Energy =               0.0000000000000000
    EFP Energy =                            0.0000000000000000
    Total Energy =                       -423.1244527648558460
    Molecular point group: c1
  Basis Set: CC-PVTZ
  Basis Set:

  -Total Gradient:
     Atom            X                  Y                   Z
    ------   -----------------  -----------------  -----------------
       1       -0.000006938840     0.000032371554     0.000007767360
       2        0.000004617877    -0.000027679236    -0.000014877639
       3        0.000002538017    -0.000004733642     0.000012943880
       4        0.000003820545    -0.000004754874     0.000005146538
       5       -0.000004968871     0.000002503911    -0.000011161741
       6       -0.000000603191     0.000002577566    -0.000001944862
       7        0.000001562641    -0.000003150485    -0.000002548826
       8       -0.001448352861    -0.006057279006     0.004669352989
       9        0.000000393376    -0.000002042533     0.000001370780
      10       -0.000003788094     0.000003149722     0.000005475769
      11       -0.001790223057    -0.001771977646    -0.007367004342
      12        0.001500210673     0.005403324194    -0.002838441720
      13        0.000001158918    -0.000002110005    -0.000001848396
      14        0.000008892369    -0.000003146723    -0.000005813111
      15        0.001740289349     0.002420181012     0.005537302649
      16        0.000001800483    -0.000000422183    -0.000000981587
      17        0.000012772217    -0.000002155039     0.000004491354
      18       -0.000022189008     0.000002085410     0.000005737284
      19        0.000000087981     0.000013150456    -0.000004137765
      20        0.000000869698     0.000001212596     0.000000921250
      21       -0.000002501233     0.000002651119    -0.000004004535
      22        0.000001708673    -0.000002938765     0.000000095154
      23       -0.000001157655    -0.000000817402     0.000002159515

  **** Optimization is complete! (in 11 steps) ****
    Final optimized geometry and variables:
    Molecular point group: c1

    Geometry (in Angstrom), charge = 0, multiplicity = 1:

    O            1.383673478675     1.449630826491    -0.106089779055
    C            1.506460766107     0.285639928587    -0.282987017456
    C            0.395344582343    -0.731159830581    -0.225336797189
    O            2.666744952202    -0.285836375726    -0.561940790781
    C           -0.967075169313    -0.132394780651     0.095189047989
    H            0.385058014288    -1.248682708155    -1.178986232923
    H            0.680132723131    -1.475878535919     0.510876584900
    C           -2.054809193485    -1.207379181270     0.146044094999
    H           -1.212453899218     0.610770548123    -0.655223840136
    H           -0.904127389240     0.397895389137     1.036017110350
    C           -3.489688001878    -0.689988777022     0.372035352949
    H           -2.027264559038    -1.718444069602    -0.811973923012
    H           -1.799653646879    -1.933818815159     0.911120774544
    C           -3.614941281163     0.572236181293     1.227344198478
    H           -4.049438098734    -1.463542242943     0.887273422574
    H           -3.972863265531    -0.517655112590    -0.583085114386
    H           -3.161673342965     0.435921000156     2.203688182241
    H           -4.660589487602     0.811681459432     1.384032773722
    H           -3.148557560024     1.432242725997     0.763730225468
    C            3.799910990078     0.554159960677    -0.647744532037
    H            3.670878739488     1.290248032869    -1.427355275482
    H            4.631856328255    -0.090983842917    -0.879171013822
    H            3.970919128041     1.060944150039     0.290433972236

  Mulliken Charges: (a.u.)
   Center  Symbol    Alpha    Beta     Spin     Total
       1     O     4.19724  4.19724  0.00000 -0.39448
       2     C     2.80596  2.80596  0.00000  0.38807
       3     C     3.10381  3.10381  0.00000 -0.20761
       4     O     4.14623  4.14623  0.00000 -0.29247
       5     C     3.08588  3.08588  0.00000 -0.17176
       6     H     0.43946  0.43946  0.00000  0.12108
       7     H     0.44017  0.44017  0.00000  0.11965
       8     C     3.09935  3.09935  0.00000 -0.19870
       9     H     0.44569  0.44569  0.00000  0.10861
      10     H     0.44317  0.44317  0.00000  0.11366
      11     C     3.08763  3.08763  0.00000 -0.17527
      12     H     0.45280  0.45280  0.00000  0.09440
      13     H     0.45215  0.45215  0.00000  0.09571
      14     C     3.15770  3.15770  0.00000 -0.31541
      15     H     0.45104  0.45104  0.00000  0.09791
      16     H     0.45123  0.45123  0.00000  0.09753
      17     H     0.45405  0.45405  0.00000  0.09190
      18     H     0.44540  0.44540  0.00000  0.10919
      19     H     0.44908  0.44908  0.00000  0.10183
      20     C     3.03776  3.03776  0.00000 -0.07552
      21     H     0.45442  0.45442  0.00000  0.09115
      22     H     0.44539  0.44539  0.00000  0.10922
      23     H     0.45436  0.45436  0.00000  0.09129

   Total alpha = 36.00000, Total beta = 36.00000, Total charge = -0.00000

*** Psi4 exiting successfully. Buy a developer a beer!
