                              Psi4 1.0.54 Driver

  ==> Input File <==

--------------------------------------------------------------------------
set {
	reference rhf
	basis cc-pvtz
}

set_num_threads( 4 )
memory 2 gb

molecule MOL {
0 1

O	 0.925138	 0.959831	 -0.777580
C	 0.576499	 0.134701	 -0.003900
C	 -0.765656	 -0.550508	 -0.002152
O	 1.337061	 -0.295972	 0.989095
C	 -1.945526	 0.411052	 0.000603
H	 -0.794329	 -1.203792	 -0.868145
H	 -0.791555	 -1.205429	 0.862701
C	 -3.282915	 -0.321280	 0.002596
H	 -1.880300	 1.059126	 -0.864925
H	 -1.877207	 1.057892	 0.866807
H	 -3.388495	 -0.952755	 -0.873419
H	 -4.107811	 0.380864	 0.004116
H	 -3.385717	 -0.953283	 0.878571
C	 2.627411	 0.268282	 1.110032
H	 3.212148	 0.075727	 0.222868
H	 3.080332	 -0.206757	 1.964953
H	 2.563898	 1.334907	 1.265981

	symmetry c1
}
set optking {
	frozen_dihedral = ("
		1 2 3 6
	")
}

ee,wfn = optimize('scf', return_wfn=True)
oeprop( wfn, 'DIPOLE', 'QUADRUPOLE', 'MULLIKEN_CHARGES')
f=open( 'psi4out.xyz', 'w' )
f.write( "17  " )
f.write( str(ee) + "\n" )
f.write( MOL.save_string_xyz() )
f.close()
--------------------------------------------------------------------------

    Molecular point group: c1
  Charge       = 0
  Multiplicity = 1
  Basis Set: CC-PVTZ
  Basis Set:
  @DF-RHF Final Energy:  -345.03351596782340
    Total Energy =                       -345.0335159678230639
    Molecular point group: c1
  Basis Set: CC-PVTZ
  Basis Set:
  Basis Set: CC-PVTZ
  Basis Set:
  @DF-RHF Final Energy:  -345.03350145796549
    Total Energy =                       -345.0335014579651443
  Basis Set: CC-PVTZ
  Basis Set:
  Basis Set: CC-PVTZ
  Basis Set:
  @DF-RHF Final Energy:  -345.03370454838466
    Total Energy =                       -345.0337045483848897
  Basis Set: CC-PVTZ
  Basis Set:
  Basis Set: CC-PVTZ
  Basis Set:
  @DF-RHF Final Energy:  -345.03414050414943
    Total Energy =                       -345.0341405041494909
  Basis Set: CC-PVTZ
  Basis Set:
  Basis Set: CC-PVTZ
  Basis Set:
  @DF-RHF Final Energy:  -345.03416725394567
    Total Energy =                       -345.0341672539454976
  Basis Set: CC-PVTZ
  Basis Set:
  Basis Set: CC-PVTZ
  Basis Set:
  @DF-RHF Final Energy:  -345.03416884619884
    Total Energy =                       -345.0341688461989520
  Basis Set: CC-PVTZ
  Basis Set:
  Charge       = 0
  Multiplicity = 1
  Basis Set: CC-PVTZ
  Basis Set:

    Orbital Energies (a.u.)
    -----------------------

    Doubly Occupied:

       1A    -20.599025     2A    -20.531909     3A    -11.364650
       4A    -11.278872     5A    -11.233175     6A    -11.224959
       7A    -11.214332     8A     -1.473063     9A     -1.365187
      10A     -1.082489    11A     -1.001783    12A     -0.941788
      13A     -0.828561    14A     -0.773074    15A     -0.701372
      16A     -0.684643    17A     -0.676088    18A     -0.637931
      19A     -0.596114    20A     -0.582028    21A     -0.562886
      22A     -0.534376    23A     -0.526226    24A     -0.503153
      25A     -0.485616    26A     -0.481466    27A     -0.459361
      28A     -0.438654

  @DF-RHF Final Energy:  -345.03416904949620

   => Energetics <=

    Nuclear Repulsion Energy =            313.2440602575798039
    One-Electron Energy =               -1090.9908957430329792
    Two-Electron Energy =                 432.7126664359568622
    DFT Exchange-Correlation Energy =       0.0000000000000000
    Empirical Dispersion Energy =           0.0000000000000000
    PCM Polarization Energy =               0.0000000000000000
    EFP Energy =                            0.0000000000000000
    Total Energy =                       -345.0341690494963132
    Molecular point group: c1
  Basis Set: CC-PVTZ
  Basis Set:

  -Total Gradient:
     Atom            X                  Y                   Z
    ------   -----------------  -----------------  -----------------
       1        0.000239059484    -0.000542433217    -0.000352517859
       2       -0.000431083449     0.000907441412     0.000401773718
       3        0.000386990397    -0.000819050156     0.000303566979
       4        0.000050245038    -0.000006338465     0.000050861238
       5       -0.000001876841     0.000005445977    -0.000003331185
       6       -0.000239171573     0.000470795683    -0.000389184482
       7        0.000001837102    -0.000002668692     0.000007903838
       8        0.000007652507    -0.000006173199    -0.000006268632
       9        0.000000643396     0.000007460863    -0.000014863779
      10        0.000006158449     0.000001293874     0.000007580621
      11       -0.000002414971    -0.000006953751    -0.000008175823
      12       -0.000004688756     0.000010422309     0.000001784557
      13        0.000000592071    -0.000005063420     0.000009185413
      14       -0.000031554295    -0.000028127297    -0.000010638131
      15        0.000013141565    -0.000001933937    -0.000010711096
      16        0.000005906342    -0.000003837426     0.000011359998
      17       -0.000001436468     0.000019719442     0.000001674624

  **** Optimization is complete! (in 7 steps) ****
    Final optimized geometry and variables:
    Molecular point group: c1

    Geometry (in Angstrom), charge = 0, multiplicity = 1:

    O            0.970427404903     0.782265735903    -0.962091504575
    C            0.614288180548     0.008879804020    -0.138505461884
    C           -0.746075338581    -0.642750374988    -0.117852912078
    O            1.384776380608    -0.392995061544     0.856862723811
    C           -1.877489432114     0.373259989148    -0.274081345238
    H           -0.765898332009    -1.335698571892    -0.953309160613
    H           -0.858211132172    -1.217667334262     0.790468598488
    C           -3.246907333262    -0.293887739339    -0.326594783144
    H           -1.709054938354     0.950353678041    -1.173839618513
    H           -1.846488766495     1.073708428734     0.554863163707
    H           -3.318333350366    -0.974641295146    -1.168273806486
    H           -4.032569545375     0.444702613673    -0.431267027091
    H           -3.444888553256    -0.861985646897     0.576184221271
    C            2.696227009897     0.132413668301     0.912656964152
    H            3.248895915660    -0.128489521600     0.022388146207
    H            3.157052441750    -0.310145873674     1.780774395616
    H            2.671671462109     1.207545085793     1.009781077072

  Mulliken Charges: (a.u.)
   Center  Symbol    Alpha    Beta     Spin     Total
       1     O     4.20338  4.20338  0.00000 -0.40676
       2     C     2.81358  2.81358  0.00000  0.37283
       3     C     3.08271  3.08271  0.00000 -0.16542
       4     O     4.14312  4.14312  0.00000 -0.28624
       5     C     3.08568  3.08568  0.00000 -0.17137
       6     H     0.44605  0.44605  0.00000  0.10790
       7     H     0.43923  0.43923  0.00000  0.12155
       8     C     3.15123  3.15123  0.00000 -0.30245
       9     H     0.43955  0.43955  0.00000  0.12091
      10     H     0.45213  0.45213  0.00000  0.09575
      11     H     0.45407  0.45407  0.00000  0.09186
      12     H     0.44595  0.44595  0.00000  0.10809
      13     H     0.45540  0.45540  0.00000  0.08920
      14     C     3.03456  3.03456  0.00000 -0.06913
      15     H     0.45422  0.45422  0.00000  0.09157
      16     H     0.44506  0.44506  0.00000  0.10988
      17     H     0.45408  0.45408  0.00000  0.09183

   Total alpha = 28.00000, Total beta = 28.00000, Total charge = -0.00000

*** Psi4 exiting successfully. Buy a developer a beer!
