                              Psi4 1.0.54 Driver

  ==> Input File <==

--------------------------------------------------------------------------
set {
	reference rhf
	basis cc-pvtz
}

set_num_threads( 4 )
memory 2 gb

molecule MOL {
0 1

H	 -3.304960	 -0.370491	 -0.997730
O	 -2.575789	 -0.820600	 -0.598444
C	 -1.520003	 -0.011979	 -0.618053
C	 -0.310616	 -0.658853	 0.000791
O	 -1.569122	 1.075521	 -1.079464
C	 0.926581	 0.227233	 0.000178
H	 -0.133440	 -1.584590	 -0.537119
H	 -0.586038	 -0.951611	 1.008835
C	 2.220156	 -0.582071	 -0.000088
H	 0.899945	 0.878221	 -0.866390
H	 0.900542	 0.878581	 0.866486
C	 3.466689	 0.296012	 -0.000457
H	 2.239073	 -1.234095	 -0.869382
H	 2.239505	 -1.233985	 0.869270
H	 3.493549	 0.935857	 -0.875887
H	 4.368821	 -0.304526	 -0.001199
H	 3.494559	 0.935166	 0.875458

	symmetry c1
}
set optking {
	frozen_dihedral = ("
		7 4 6 10
	")
}

ee,wfn = optimize('scf', return_wfn=True)
oeprop( wfn, 'DIPOLE', 'QUADRUPOLE', 'MULLIKEN_CHARGES')
f=open( 'psi4out.xyz', 'w' )
f.write( "17  " )
f.write( str(ee) + "\n" )
f.write( MOL.save_string_xyz() )
f.close()
--------------------------------------------------------------------------

    Molecular point group: c1
  Charge       = 0
  Multiplicity = 1
  Basis Set: CC-PVTZ
  Basis Set:
  @DF-RHF Final Energy:  -345.04686335139195
    Total Energy =                       -345.0468633513919485
    Molecular point group: c1
  Basis Set: CC-PVTZ
  Basis Set:
  Basis Set: CC-PVTZ
  Basis Set:
  @DF-RHF Final Energy:  -345.04703253409275
    Total Energy =                       -345.0470325340927502
  Basis Set: CC-PVTZ
  Basis Set:
  Basis Set: CC-PVTZ
  Basis Set:
  @DF-RHF Final Energy:  -345.04662099157053
    Total Energy =                       -345.0466209915703075
  Basis Set: CC-PVTZ
  Basis Set:
  Basis Set: CC-PVTZ
  Basis Set:
  @DF-RHF Final Energy:  -345.04710523147401
    Total Energy =                       -345.0471052314738927
  Basis Set: CC-PVTZ
  Basis Set:
  Basis Set: CC-PVTZ
  Basis Set:
  @DF-RHF Final Energy:  -345.04711234025996
    Total Energy =                       -345.0471123402595595
  Basis Set: CC-PVTZ
  Basis Set:
  Charge       = 0
  Multiplicity = 1
  Basis Set: CC-PVTZ
  Basis Set:

    Orbital Energies (a.u.)
    -----------------------

    Doubly Occupied:

       1A    -20.604350     2A    -20.541216     3A    -11.374383
       4A    -11.239220     5A    -11.221199     6A    -11.220256
       7A    -11.210580     8A     -1.478138     9A     -1.369632
      10A     -1.091923    11A     -1.019795    12A     -0.915234
      13A     -0.825487    14A     -0.791301    15A     -0.704564
      16A     -0.691407    17A     -0.667538    18A     -0.631123
      19A     -0.593548    20A     -0.585646    21A     -0.575784
      22A     -0.536619    23A     -0.509761    24A     -0.485059
      25A     -0.483042    26A     -0.477637    27A     -0.470417
      28A     -0.447699

  @DF-RHF Final Energy:  -345.04711247760952

   => Energetics <=

    Nuclear Repulsion Energy =            304.7341904146301204
    One-Electron Energy =               -1074.0374891277981533
    Two-Electron Energy =                 424.2561862355580047
    DFT Exchange-Correlation Energy =       0.0000000000000000
    Empirical Dispersion Energy =           0.0000000000000000
    PCM Polarization Energy =               0.0000000000000000
    EFP Energy =                            0.0000000000000000
    Total Energy =                       -345.0471124776100282
    Molecular point group: c1
  Basis Set: CC-PVTZ
  Basis Set:

  -Total Gradient:
     Atom            X                  Y                   Z
    ------   -----------------  -----------------  -----------------
       1        0.000017403310     0.000001184406     0.000002532375
       2       -0.000030164816    -0.000037433666     0.000015844687
       3        0.000029299121     0.000060679535    -0.000023476160
       4       -0.001809444036     0.002466714793    -0.003309010894
       5        0.000011453711    -0.000024610694     0.000002917422
       6        0.002367027902    -0.003380869214    -0.001499130642
       7        0.001100778970    -0.001492563706     0.002973309935
       8        0.000005144550    -0.000005736834    -0.000008327369
       9        0.000008580799    -0.000009400967     0.000018193392
      10       -0.001690659754     0.002423884611     0.001833140240
      11       -0.000000988789    -0.000004420514     0.000003516059
      12       -0.000005477998    -0.000001644482    -0.000012685367
      13        0.000003360961     0.000006038359     0.000004929936
      14       -0.000002748603     0.000001855913    -0.000002138390
      15       -0.000000404798     0.000002196718     0.000003707502
      16       -0.000000548930     0.000000261616    -0.000003235350
      17       -0.000002611602    -0.000006135877    -0.000000087379

  **** Optimization is complete! (in 6 steps) ****
    Final optimized geometry and variables:
    Molecular point group: c1

    Geometry (in Angstrom), charge = 0, multiplicity = 1:

    H           -3.377959149210    -0.303637217189    -0.579730006629
    O           -2.633370938415    -0.753100113617    -0.209263800191
    C           -1.579684750960     0.055967133977    -0.272952704329
    C           -0.349420008453    -0.590724430495     0.301846484834
    O           -1.649357755685     1.143441674948    -0.731679098525
    C            0.897795328584     0.288849662175     0.283033479465
    H           -0.186860836428    -1.524656094307    -0.226204353347
    H           -0.599455149097    -0.890431566785     1.314525479007
    C            2.190983157048    -0.518001101225     0.329256764142
    H            0.873396154437     0.931265316787    -0.587987554439
    H            0.863913597030     0.963023700561     1.133411465637
    C            3.435589745641     0.361275192297     0.372589620347
    H            2.238894059651    -1.168110072803    -0.540090109795
    H            2.181076366112    -1.171432625403     1.197900728136
    H            3.487393530133     1.006746307804    -0.497521521307
    H            4.338056793567    -0.238334400897     0.395139869052
    H            3.436541992921     0.994651432060     1.253173523129

  Mulliken Charges: (a.u.)
   Center  Symbol    Alpha    Beta     Spin     Total
       1     H     0.38256  0.38256  0.00000  0.23488
       2     O     4.15974  4.15974  0.00000 -0.31947
       3     C     2.80237  2.80237  0.00000  0.39527
       4     C     3.11315  3.11315  0.00000 -0.22630
       5     O     4.19045  4.19045  0.00000 -0.38090
       6     C     3.08682  3.08682  0.00000 -0.17365
       7     H     0.43852  0.43852  0.00000  0.12295
       8     H     0.43630  0.43630  0.00000  0.12740
       9     C     3.08598  3.08598  0.00000 -0.17195
      10     H     0.43915  0.43915  0.00000  0.12170
      11     H     0.45178  0.45178  0.00000  0.09643
      12     C     3.14932  3.14932  0.00000 -0.29863
      13     H     0.45413  0.45413  0.00000  0.09175
      14     H     0.45457  0.45457  0.00000  0.09086
      15     H     0.45294  0.45294  0.00000  0.09412
      16     H     0.44804  0.44804  0.00000  0.10392
      17     H     0.45419  0.45419  0.00000  0.09162

   Total alpha = 28.00000, Total beta = 28.00000, Total charge = -0.00000

*** Psi4 exiting successfully. Buy a developer a beer!
