                              Psi4 1.0.54 Driver

  ==> Input File <==

--------------------------------------------------------------------------
set {
	reference rhf
	basis cc-pvtz
}

set_num_threads( 4 )
memory 2 gb

molecule MOL {
0 1

H	 3.459101	 0.139266	 -0.762951
C	 2.749156	 -0.051729	 0.031265
C	 1.322304	 0.099773	 -0.484271
H	 2.929445	 -1.053887	 0.403481
H	 2.954281	 0.646699	 0.834672
C	 0.308557	 -0.162619	 0.622645
H	 1.143368	 -0.594400	 -1.295960
H	 1.169532	 1.100095	 -0.870217
N	 -1.069352	 -0.004081	 0.085342
H	 0.371632	 -1.172932	 0.991288
H	 0.400391	 0.548875	 1.426218
O	 -1.959350	 0.002035	 0.867929
O	 -1.187165	 0.076291	 -1.091349

	symmetry c1
}
set optking {
	frozen_dihedral = ("
		12 9 6 3
	")
}

ee,wfn = optimize('scf', return_wfn=True)
oeprop( wfn, 'DIPOLE', 'QUADRUPOLE', 'MULLIKEN_CHARGES')
f=open( 'psi4out.xyz', 'w' )
f.write( "13  " )
f.write( str(ee) + "\n" )
f.write( MOL.save_string_xyz() )
f.close()
--------------------------------------------------------------------------

    Molecular point group: c1
  Charge       = 0
  Multiplicity = 1
  Basis Set: CC-PVTZ
  Basis Set:
  @DF-RHF Final Energy:  -321.85859377297345
    Total Energy =                       -321.8585937729733359
    Molecular point group: c1
  Basis Set: CC-PVTZ
  Basis Set:
  Basis Set: CC-PVTZ
  Basis Set:
  @DF-RHF Final Energy:  -321.85967606762466
    Total Energy =                       -321.8596760676247754
  Basis Set: CC-PVTZ
  Basis Set:
  Basis Set: CC-PVTZ
  Basis Set:
  @DF-RHF Final Energy:  -321.86038493733531
    Total Energy =                       -321.8603849373353114
  Basis Set: CC-PVTZ
  Basis Set:
  Basis Set: CC-PVTZ
  Basis Set:
  @DF-RHF Final Energy:  -321.86029983048775
    Total Energy =                       -321.8602998304876905
  Basis Set: CC-PVTZ
  Basis Set:
  Basis Set: CC-PVTZ
  Basis Set:
  @DF-RHF Final Energy:  -321.86042839700383
    Total Energy =                       -321.8604283970036022
  Basis Set: CC-PVTZ
  Basis Set:
  Basis Set: CC-PVTZ
  Basis Set:
  @DF-RHF Final Energy:  -321.86053297999047
    Total Energy =                       -321.8605329799905235
  Basis Set: CC-PVTZ
  Basis Set:
  Charge       = 0
  Multiplicity = 1
  Basis Set: CC-PVTZ
  Basis Set:

    Orbital Energies (a.u.)
    -----------------------

    Doubly Occupied:

       1A    -20.593580     2A    -20.587646     3A    -15.838524
       4A    -11.299124     5A    -11.246989     6A    -11.234925
       7A     -1.637252     8A     -1.421367     9A     -1.131614
      10A     -1.026646    11A     -0.884911    12A     -0.826501
      13A     -0.762901    14A     -0.753132    15A     -0.730937
      16A     -0.657155    17A     -0.607524    18A     -0.575683
      19A     -0.554427    20A     -0.522271    21A     -0.509632
      22A     -0.488542    23A     -0.474502    24A     -0.453516

  @DF-RHF Final Energy:  -321.86053321445604

   => Energetics <=

    Nuclear Repulsion Energy =            247.6302288064961203
    One-Electron Energy =                -929.3429179148737376
    Two-Electron Energy =                 359.8521558939216902
    DFT Exchange-Correlation Energy =       0.0000000000000000
    Empirical Dispersion Energy =           0.0000000000000000
    PCM Polarization Energy =               0.0000000000000000
    EFP Energy =                            0.0000000000000000
    Total Energy =                       -321.8605332144559270
    Molecular point group: c1
  Basis Set: CC-PVTZ
  Basis Set:

  -Total Gradient:
     Atom            X                  Y                   Z
    ------   -----------------  -----------------  -----------------
       1       -0.000008529338     0.000002455967     0.000000646600
       2        0.000002058643     0.000006648805     0.000021061258
       3       -0.000022916585    -0.000130459740    -0.000059438394
       4        0.000002126568    -0.000007095543    -0.000003222486
       5        0.000000562797     0.000000979595     0.000003079514
       6        0.000001753285     0.000125739730     0.000044674701
       7       -0.000000373777    -0.000000817175    -0.000000846901
       8        0.000000784734    -0.000003268566     0.000001995607
       9        0.000041243550     0.000170281112     0.000046785522
      10        0.000004750474    -0.000003396252    -0.000005727520
      11       -0.000004745711    -0.000001012589     0.000007770812
      12        0.000001744221    -0.000158517652    -0.000041385942
      13       -0.000018458857    -0.000001537693    -0.000015392769

  **** Optimization is complete! (in 7 steps) ****
    Final optimized geometry and variables:
    Molecular point group: c1

    Geometry (in Angstrom), charge = 0, multiplicity = 1:

    H            3.454619673208     0.075842536666    -0.971508927327
    C            2.768151999803    -0.106140927518    -0.154990682931
    C            1.327221508603     0.087085352322    -0.620282010880
    H            2.937979357517    -1.116675951579     0.200273480857
    H            3.021802778802     0.576359391887     0.648648707892
    C            0.363564370000    -0.165440415005     0.520523979564
    H            1.105091663754    -0.583632894440    -1.438285219804
    H            1.188484202595     1.093495302857    -0.993744785372
    N           -1.073653630202     0.021486044778     0.156209475086
    H            0.415728029713    -1.181448657500     0.885731750495
    H            0.521421524247     0.496190419178     1.357737961568
    O           -1.842036658079     0.014266713717     1.059069641495
    O           -1.360036017880     0.145656494578    -0.985099037311

  Mulliken Charges: (a.u.)
   Center  Symbol    Alpha    Beta     Spin     Total
       1     H     0.44125  0.44125  0.00000  0.11749
       2     C     3.15269  3.15269  0.00000 -0.30538
       3     C     3.09083  3.09083  0.00000 -0.18166
       4     H     0.45314  0.45314  0.00000  0.09373
       5     H     0.45307  0.45307  0.00000  0.09386
       6     C     3.04685  3.04685  0.00000 -0.09370
       7     H     0.43783  0.43783  0.00000  0.12434
       8     H     0.44102  0.44102  0.00000  0.11796
       9     N     3.27306  3.27306  0.00000  0.45389
      10     H     0.43424  0.43424  0.00000  0.13152
      11     H     0.43255  0.43255  0.00000  0.13490
      12     O     4.17430  4.17430  0.00000 -0.34860
      13     O     4.16918  4.16918  0.00000 -0.33835

   Total alpha = 24.00000, Total beta = 24.00000, Total charge =  0.00000

*** Psi4 exiting successfully. Buy a developer a beer!
