  ==> Input File <==

--------------------------------------------------------------------------
set {
	reference rhf
	basis 6-31G*
}

set_num_threads( 4 )
memory 2 gb

molecule MOL {
0 1

H	 2.845955	 -0.323208	 0.022310
C	 1.900140	 0.071967	 -0.330070
C	 0.778463	 -0.508087	 0.517968
H	 1.782469	 -0.206877	 -1.370777
H	 1.922247	 1.149867	 -0.254252
N	 -0.540928	 0.005139	 0.058438
H	 0.716718	 -1.581298	 0.454712
H	 0.859711	 -0.198647	 1.550086
O	 -0.607851	 0.449156	 -1.045031
O	 -1.446711	 -0.065612	 0.832422

	symmetry c1
}
set optking {
	frozen_dihedral = ("
		9 6 3 2
	")
}

ee = optimize('scf')
oeprop('DIPOLE', 'QUADRUPOLE', 'MULLIKEN_CHARGES')
f=open( 'psi4out.xyz', 'w' )
f.write( "10  " )
f.write( str(ee) + "\n" )
f.write( MOL.save_string_xyz() )
f.close()
--------------------------------------------------------------------------

    Molecular point group: c1
  Charge       = 0
  Multiplicity = 1
  Basis Set: 6-31G*
  Basis Set:
  @DF-RHF Final Energy:  -282.69956966501286
    Total Energy =                       -282.6995696650130867
    Molecular point group: c1
  Basis Set: 6-31G*
  Basis Set:
  Basis Set: 6-31G*
  Basis Set:
  @DF-RHF Final Energy:  -282.69769210575873
    Total Energy =                       -282.6976921057586196
  Basis Set: 6-31G*
  Basis Set:
  Basis Set: 6-31G*
  Basis Set:
  @DF-RHF Final Energy:  -282.69727534208982
    Total Energy =                       -282.6972753420897675
  Basis Set: 6-31G*
  Basis Set:
  Basis Set: 6-31G*
  Basis Set:
  @DF-RHF Final Energy:  -282.70031539127291
    Total Energy =                       -282.7003153912729658
  Basis Set: 6-31G*
  Basis Set:
  Basis Set: 6-31G*
  Basis Set:
  @DF-RHF Final Energy:  -282.70037661702787
    Total Energy =                       -282.7003766170277572
  Basis Set: 6-31G*
  Basis Set:
  Basis Set: 6-31G*
  Basis Set:
  @DF-RHF Final Energy:  -282.70038808880327
    Total Energy =                       -282.7003880888033791
  Basis Set: 6-31G*
  Basis Set:
  Charge       = 0
  Multiplicity = 1
  Basis Set: 6-31G*
  Basis Set:

    Orbital Energies (a.u.)
    -----------------------

    Doubly Occupied:

       1A    -20.604850     2A    -20.600470     3A    -15.850042
       4A    -11.305119     5A    -11.246704     6A     -1.633320
       7A     -1.418832     8A     -1.125709     9A     -0.967394
      10A     -0.833754    11A     -0.760805    12A     -0.748146
      13A     -0.727036    14A     -0.640077    15A     -0.593991
      16A     -0.564384    17A     -0.539577    18A     -0.487015
      19A     -0.478416    20A     -0.450548

  @DF-RHF Final Energy:  -282.70038873692414

   => Energetics <=

    Nuclear Repulsion Energy =            186.0869855709501621
    One-Electron Energy =                -754.4223703932377703
    Two-Electron Energy =                 285.6349960853634116
    DFT Exchange-Correlation Energy =       0.0000000000000000
    Empirical Dispersion Energy =           0.0000000000000000
    PCM Polarization Energy =               0.0000000000000000
    EFP Energy =                            0.0000000000000000
    Total Energy =                       -282.7003887369241397
    Molecular point group: c1
  Basis Set: 6-31G*
  Basis Set:

  -Total Gradient:
     Atom            X                  Y                   Z
    ------   -----------------  -----------------  -----------------
       1       -0.000004258784     0.000000520274    -0.000002252150
       2       -0.000008523174    -0.000032249185    -0.000064289822
       3        0.000022853909     0.000066167926     0.000063612425
       4        0.000020159013     0.000014228613    -0.000011816258
       5        0.000003557823     0.000000617940    -0.000003433657
       6       -0.000082461340    -0.000093688144    -0.000052107354
       7       -0.000034860659     0.000015702333    -0.000003250463
       8       -0.000040852842     0.000006377608     0.000005970663
       9        0.000101470805     0.000052579517    -0.000012033556
      10        0.000022915254    -0.000030256882     0.000079600174

  **** Optimization is complete! (in 7 steps) ****
    Final optimized geometry and variables:
    Molecular point group: c1

    Geometry (in Angstrom), charge = 0, multiplicity = 1:

    H            2.862949839310    -0.322760171282     0.052154644359
    C            1.931150298951     0.070263978579    -0.339593889828
    C            0.792146602265    -0.480672419256     0.494363771842
    H            1.839221040304    -0.221703947474    -1.375835583117
    H            1.967888101689     1.151114320510    -0.288648852021
    N           -0.545220155316     0.017445256687     0.059505670546
    H            0.712538021321    -1.557440196788     0.422953440844
    H            0.860740279445    -0.215738013133     1.537486245472
    O           -0.655037006701     0.458267376344    -1.041595682666
    O           -1.430166139721    -0.092134118728     0.851451825603

  Mulliken Charges: (a.u.)
   Center  Symbol    Alpha    Beta     Spin     Total
       1     H     0.40950  0.40950  0.00000  0.18099
       2     C     3.25087  3.25087  0.00000 -0.50173
       3     C     3.09547  3.09547  0.00000 -0.19094
       4     H     0.39629  0.39629  0.00000  0.20742
       5     H     0.40269  0.40269  0.00000  0.19461
       6     N     3.21998  3.21998  0.00000  0.56005
       7     H     0.38416  0.38416  0.00000  0.23168
       8     H     0.38493  0.38493  0.00000  0.23015
       9     O     4.22746  4.22746  0.00000 -0.45491
      10     O     4.22866  4.22866  0.00000 -0.45731

   Total alpha = 20.00000, Total beta = 20.00000, Total charge =  0.00000
