  ==> Input File <==

--------------------------------------------------------------------------
set {
	reference rhf
	basis 6-31G*
}

set_num_threads( 4 )
memory 2 gb

molecule MOL {
0 1

H	 -0.621181	 0.407159	 -2.575544
O	 -1.085131	 1.182626	 -2.290492
C	 -0.577066	 1.588746	 -1.053197
C	 -0.793441	 0.596080	 0.058728
H	 -1.076646	 2.520152	 -0.812146
H	 0.485884	 1.816125	 -1.127098
C	 -1.530462	 -0.493172	 -0.025500
H	 -0.290793	 0.832352	 0.983932
H	 -1.092586	 -1.461565	 -0.186463
H	 -2.602122	 -0.450675	 0.050101

	symmetry c1
}
set optking {
	frozen_dihedral = ("
		3 4 7 9
	")
}

ee = optimize('scf')
oeprop('DIPOLE', 'QUADRUPOLE', 'MULLIKEN_CHARGES')
f=open( 'psi4out.xyz', 'w' )
f.write( "10  " )
f.write( str(ee) + "\n" )
f.write( MOL.save_string_xyz() )
f.close()
--------------------------------------------------------------------------

    Molecular point group: c1
  Charge       = 0
  Multiplicity = 1
  Basis Set: 6-31G*
  Basis Set:
  @DF-RHF Final Energy:  -191.77290501311467
    Total Energy =                       -191.7729050131146096
    Molecular point group: c1
  Basis Set: 6-31G*
  Basis Set:
  Basis Set: 6-31G*
  Basis Set:
  @DF-RHF Final Energy:  -191.81015527603410
    Total Energy =                       -191.8101552760341519
  Basis Set: 6-31G*
  Basis Set:
  Basis Set: 6-31G*
  Basis Set:
  @DF-RHF Final Energy:  -191.83630798473007
    Total Energy =                       -191.8363079847300412
  Basis Set: 6-31G*
  Basis Set:
  Basis Set: 6-31G*
  Basis Set:
  @DF-RHF Final Energy:  -191.85607263059825
    Total Energy =                       -191.8560726305982200
  Basis Set: 6-31G*
  Basis Set:
  @DF-RHF Final Energy:  -191.85856418164661
    Total Energy =                       -191.8585641816466136
  @DF-RHF Final Energy:  -191.85907241042509
    Total Energy =                       -191.8590724104250569
  @DF-RHF Final Energy:  -191.85922117767348
    Total Energy =                       -191.8592211776735326
  @DF-RHF Final Energy:  -191.85926713733110
    Total Energy =                       -191.8592671373310736
  @DF-RHF Final Energy:  -191.85927728630600
    Total Energy =                       -191.8592772863060532
  @DF-RHF Final Energy:  -191.82646634298766
    Total Energy =                       -191.8264663429877430
  @DF-RHF Final Energy:  -191.70482086873383
    Total Energy =                       -191.7048208687338331
  @DF-RHF Final Energy:  -191.82703132269080
    Total Energy =                       -191.8270313226908570
  @DF-RHF Final Energy:  -191.72236275017559
    Total Energy =                       -191.7223627501756198
  @DF-RHF Final Energy:  -191.77740574999487
    Total Energy =                       -191.7774057499948128
  @DF-RHF Final Energy:  -191.80259605629658
    Total Energy =                       -191.8025960562965224
  @DF-RHF Final Energy:  -191.80650685963633
    Total Energy =                       -191.8065068596363290
  @DF-RHF Final Energy:  -191.84475098236953
    Total Energy =                       -191.8447509823694190
  @DF-RHF Final Energy:  -191.85164670196701
    Total Energy =                       -191.8516467019669847
  @DF-RHF Final Energy:  -191.85640955949299
    Total Energy =                       -191.8564095594930450
  @DF-RHF Final Energy:  -191.85338712972336
    Total Energy =                       -191.8533871297233873
  @DF-RHF Final Energy:  -191.85926828567924
    Total Energy =                       -191.8592682856792635
  @DF-RHF Final Energy:  -191.85915161722949
    Total Energy =                       -191.8591516172294007
  @DF-RHF Final Energy:  -191.85926831329192
    Total Energy =                       -191.8592683132919205
  @DF-RHF Final Energy:  -191.85926998245384
    Total Energy =                       -191.8592699824538386
  @DF-RHF Final Energy:  -191.85926833806283
    Total Energy =                       -191.8592683380629182
  @DF-RHF Final Energy:  -191.85923052446793
    Total Energy =                       -191.8592305244679608
  @DF-RHF Final Energy:  -191.85920622510014
    Total Energy =                       -191.8592062251001948
  @DF-RHF Final Energy:  -191.85926900249842
    Total Energy =                       -191.8592690024983654
  @DF-RHF Final Energy:  -191.85927059037681
    Total Energy =                       -191.8592705903768092
  @DF-RHF Final Energy:  -191.85927030748343
    Total Energy =                       -191.8592703074833707
  @DF-RHF Final Energy:  -191.85905070723726
    Total Energy =                       -191.8590507072371452
  @DF-RHF Final Energy:  -191.85850652638254
    Total Energy =                       -191.8585065263825413
  @DF-RHF Final Energy:  -191.85916119067315
    Total Energy =                       -191.8591611906731771
  @DF-RHF Final Energy:  -191.85920429957562
    Total Energy =                       -191.8592042995757083
  @DF-RHF Final Energy:  -191.85918116226884
    Total Energy =                       -191.8591811622687828
  @DF-RHF Final Energy:  -191.85924163636230
    Total Energy =                       -191.8592416363623556
  Basis Set: 6-31G*
  Basis Set:
  @DF-RHF Final Energy:  -191.85925969456673
    Total Energy =                       -191.8592596945666742
  Basis Set: 6-31G*
  Basis Set:
  Basis Set: 6-31G*
  Basis Set:
  @DF-RHF Final Energy:  -191.85926019847773
    Total Energy =                       -191.8592601984777275
  Basis Set: 6-31G*
  Basis Set:
  Basis Set: 6-31G*
  Basis Set:
  @DF-RHF Final Energy:  -191.85925976609428
    Total Energy =                       -191.8592597660942829
  Basis Set: 6-31G*
  Basis Set:
  Charge       = 0
  Multiplicity = 1
  Basis Set: 6-31G*
  Basis Set:

    Orbital Energies (a.u.)
    -----------------------

    Doubly Occupied:

       1A    -20.564745     2A    -11.292589     3A    -11.246837
       4A    -11.224794     5A     -1.375236     6A     -1.064014
       7A     -0.937105     8A     -0.775413     9A     -0.694472
      10A     -0.651808    11A     -0.624194    12A     -0.584520
      13A     -0.525274    14A     -0.498539    15A     -0.449989
      16A     -0.346634

  @DF-RHF Final Energy:  -191.85926366830157

   => Energetics <=

    Nuclear Repulsion Energy =            118.6470462568559299
    One-Electron Energy =                -495.3002985277104244
    Two-Electron Energy =                 184.7939886025530143
    DFT Exchange-Correlation Energy =       0.0000000000000000
    Empirical Dispersion Energy =           0.0000000000000000
    PCM Polarization Energy =               0.0000000000000000
    EFP Energy =                            0.0000000000000000
    Total Energy =                       -191.8592636683015087
    Molecular point group: c1
  Basis Set: 6-31G*
  Basis Set:

  -Total Gradient:
     Atom            X                  Y                   Z
    ------   -----------------  -----------------  -----------------
       1       -0.000125445213    -0.000073573456    -0.000091337274
       2       -0.000503742424    -0.000655344468    -0.000242224022
       3        0.033608465673    -0.011970911508     0.001600976578
       4       -0.051634666522     0.020840511670    -0.025605714199
       5       -0.000165093944    -0.000427095205     0.000391794575
       6        0.000257516313     0.000245321948    -0.000172992962
       7        0.009468288301    -0.005665193303     0.069669311597
       8       -0.000006715236     0.000511467117     0.000639747912
       9        0.009250642281    -0.002728073853    -0.046461243675
      10       -0.000149249227    -0.000077108942     0.000271681473

    Molecular point group: c1

    Geometry (in Angstrom), charge = 0, multiplicity = 1:

    H           -0.045280426159    -0.349061813021    -1.621302634415
    O           -0.159420828786     0.562481955453    -1.388285876692
    C            0.466009441543     0.807620595385    -0.168523465500
    C            0.058819310354    -0.099063038862     0.973076629289
    H            0.307871114732     1.856567566007     0.049381313835
    H            1.540687025166     0.651033370901    -0.232514125628
    C           -0.441332383744    -1.330694099085     0.944709308898
    H            0.755801603220     0.085385770492     1.788748665776
    H            0.096437799300    -2.249595622133     1.106912114148
    H           -1.119569825899    -1.513652858232     0.113710398512

  Mulliken Charges: (a.u.)
   Center  Symbol    Alpha    Beta     Spin     Total
       1     H     0.27990  0.27990  0.00000  0.44019
       2     O     4.36370  4.36370  0.00000 -0.72739
       3     C     3.00017  3.00017  0.00000 -0.00035
       4     C     3.07632  3.07632  0.00000 -0.15263
       5     H     0.40835  0.40835  0.00000  0.18330
       6     H     0.41675  0.41675  0.00000  0.16649
       7     C     3.20486  3.20486  0.00000 -0.40972
       8     H     0.42182  0.42182  0.00000  0.15636
       9     H     0.40036  0.40036  0.00000  0.19929
      10     H     0.42777  0.42777  0.00000  0.14446

   Total alpha = 16.00000, Total beta = 16.00000, Total charge = -0.00000
