  ==> Input File <==

--------------------------------------------------------------------------
set {
	reference rhf
	basis cc-pvtz
}

set_num_threads( 4 )
memory 2 gb

molecule MOL {
0 1

H	 1.166964	 -1.062386	 0.758429
O	 1.324748	 -0.612467	 -0.052206
C	 0.706474	 0.636793	 -0.025501
C	 -0.206737	 0.858151	 1.146966
H	 0.134757	 0.715711	 -0.942678
H	 1.445203	 1.435737	 -0.051301
C	 -0.532024	 -0.041087	 2.049111
H	 -0.611877	 1.854128	 1.218662
H	 -0.162785	 -1.047780	 2.002173
H	 -1.192480	 0.200869	 2.859861

	symmetry c1
}
set optking {
	frozen_dihedral = ("
		5 3 2 1
	")
}

ee = optimize('scf')
oeprop('DIPOLE', 'QUADRUPOLE', 'MULLIKEN_CHARGES')
f=open( 'psi4out.xyz', 'w' )
f.write( "10  " )
f.write( str(ee) + "\n" )
f.write( MOL.save_string_xyz() )
f.close()
--------------------------------------------------------------------------

    Molecular point group: c1
  Charge       = 0
  Multiplicity = 1
  Basis Set: CC-PVTZ
  Basis Set:
  @DF-RHF Final Energy:  -191.99410655646989
    Total Energy =                       -191.9941065564698874
    Molecular point group: c1
  Basis Set: CC-PVTZ
  Basis Set:
  Basis Set: CC-PVTZ
  Basis Set:
  @DF-RHF Final Energy:  -191.99472145105150
    Total Energy =                       -191.9947214510514186
  Basis Set: CC-PVTZ
  Basis Set:
  Basis Set: CC-PVTZ
  Basis Set:
  @DF-RHF Final Energy:  -191.99501980348512
    Total Energy =                       -191.9950198034850928
  Basis Set: CC-PVTZ
  Basis Set:
  Basis Set: CC-PVTZ
  Basis Set:
  @DF-RHF Final Energy:  -191.99502534038680
    Total Energy =                       -191.9950253403867180
  Basis Set: CC-PVTZ
  Basis Set:
  Charge       = 0
  Multiplicity = 1
  Basis Set: CC-PVTZ
  Basis Set:

    Orbital Energies (a.u.)
    -----------------------

    Doubly Occupied:

       1A    -20.550923     2A    -11.278957     3A    -11.240986
       4A    -11.226595     5A     -1.372683     6A     -1.069418
       7A     -0.939307     8A     -0.778816     9A     -0.694465
      10A     -0.657232    11A     -0.636917    12A     -0.573587
      13A     -0.556233    14A     -0.485786    15A     -0.458632
      16A     -0.375419

  @DF-RHF Final Energy:  -191.99502597566737

   => Energetics <=

    Nuclear Repulsion Energy =            119.4419750046574364
    One-Electron Energy =                -497.0820921683499023
    Two-Electron Energy =                 185.6450911880251624
    DFT Exchange-Correlation Energy =       0.0000000000000000
    Empirical Dispersion Energy =           0.0000000000000000
    PCM Polarization Energy =               0.0000000000000000
    EFP Energy =                            0.0000000000000000
    Total Energy =                       -191.9950259756673177
    Molecular point group: c1
  Basis Set: CC-PVTZ
  Basis Set:

  -Total Gradient:
     Atom            X                  Y                   Z
    ------   -----------------  -----------------  -----------------
       1       -0.001958005299    -0.001037072562    -0.000845058847
       2        0.002057992225     0.001058224682     0.001284722938
       3        0.001439024676     0.000818031340    -0.001353176754
       4       -0.000046615630    -0.000073085572    -0.000058344295
       5       -0.001538191450    -0.000839678901     0.000978203713
       6        0.000016106857     0.000007981746    -0.000008663312
       7       -0.000004360103     0.000022466633    -0.000018199179
       8       -0.000005136465     0.000031186692     0.000010794953
       9        0.000020963144     0.000001875724    -0.000002204974
      10        0.000018222045     0.000010070218     0.000011925757

  **** Optimization is complete! (in 5 steps) ****
    Final optimized geometry and variables:
    Molecular point group: c1

    Geometry (in Angstrom), charge = 0, multiplicity = 1:

    H            0.882763227164    -1.234149906654    -0.009417457577
    O            0.989163452621    -0.764953407823    -0.814244692023
    C            0.323058636218     0.459708246781    -0.768843498171
    C           -0.574363817269     0.676545119576     0.415602008712
    H           -0.288700757764     0.545951759725    -1.662399754530
    H            1.050928355879     1.265333689298    -0.799469585593
    C           -0.939175285549    -0.207959856640     1.317268524653
    H           -0.952564595349     1.681939625093     0.494204598378
    H           -0.623383575172    -1.235366470139     1.297781785945
    H           -1.592937498995     0.063625209439     2.123449804075

  Mulliken Charges: (a.u.)
   Center  Symbol    Alpha    Beta     Spin     Total
       1     H     0.38861  0.38861  0.00000  0.22278
       2     O     4.20306  4.20306  0.00000 -0.40613
       3     C     2.93087  2.93087  0.00000  0.13826
       4     C     3.07590  3.07590  0.00000 -0.15180
       5     H     0.46659  0.46659  0.00000  0.06682
       6     H     0.47143  0.47143  0.00000  0.05715
       7     C     3.17581  3.17581  0.00000 -0.35161
       8     H     0.42224  0.42224  0.00000  0.15553
       9     H     0.44016  0.44016  0.00000  0.11968
      10     H     0.42534  0.42534  0.00000  0.14931

   Total alpha = 16.00000, Total beta = 16.00000, Total charge =  0.00000
