  ==> Input File <==

--------------------------------------------------------------------------
set {
	reference rhf
	basis 6-31G*
}

set_num_threads( 4 )
memory 2 gb

molecule MOL {
0 1

O	 -0.988096	 -1.408613	 0.050699
C	 -0.676749	 -0.249230	 -0.009274
C	 -1.746085	 0.827156	 -0.009539
N	 0.623947	 0.147590	 -0.102813
H	 -1.701500	 1.431508	 -0.908902
H	 -2.703425	 0.330732	 0.036390
H	 -1.647323	 1.487769	 0.845106
C	 1.413226	 -0.318379	 -1.226107
C	 1.380189	 0.709855	 0.994548
H	 2.068240	 0.477832	 -1.562292
H	 0.758080	 -0.605402	 -2.030061
H	 2.026821	 -1.173263	 -0.950252
H	 2.108685	 1.408934	 0.601332
H	 0.745381	 1.250624	 1.678304
H	 1.916871	 -0.055412	 1.552358

	symmetry c1
}
set optking {
	frozen_dihedral = ("
		8 4 2 3
	")
}

ee = optimize('scf')
oeprop('DIPOLE', 'QUADRUPOLE', 'MULLIKEN_CHARGES')
f=open( 'psi4out.xyz', 'w' )
f.write( "15  " )
f.write( str(ee) + "\n" )
f.write( MOL.save_string_xyz() )
f.close()
--------------------------------------------------------------------------

    Molecular point group: c1
  Charge       = 0
  Multiplicity = 1
  Basis Set: 6-31G*
  Basis Set:
  @DF-RHF Final Energy:  -286.00058935833846
    Total Energy =                       -286.0005893583384591
    Molecular point group: c1
  Basis Set: 6-31G*
  Basis Set:
  Basis Set: 6-31G*
  Basis Set:
  @DF-RHF Final Energy:  -286.00409236696953
    Total Energy =                       -286.0040923669696440
  Basis Set: 6-31G*
  Basis Set:
  Basis Set: 6-31G*
  Basis Set:
  @DF-RHF Final Energy:  -286.00524820806913
    Total Energy =                       -286.0052482080691902
  Basis Set: 6-31G*
  Basis Set:
  Basis Set: 6-31G*
  Basis Set:
  @DF-RHF Final Energy:  -286.00584336565021
    Total Energy =                       -286.0058433656500938
  Basis Set: 6-31G*
  Basis Set:
  @DF-RHF Final Energy:  -286.00616300050262
    Total Energy =                       -286.0061630005025108
  @DF-RHF Final Energy:  -286.00648275648621
    Total Energy =                       -286.0064827564862071
  @DF-RHF Final Energy:  -286.00671913512315
    Total Energy =                       -286.0067191351232623
  @DF-RHF Final Energy:  -286.00742744175221
    Total Energy =                       -286.0074274417523839
  @DF-RHF Final Energy:  -286.00829116224094
    Total Energy =                       -286.0082911622411643
  @DF-RHF Final Energy:  -286.00961278274764
    Total Energy =                       -286.0096127827476948
  @DF-RHF Final Energy:  -286.01229271932436
    Total Energy =                       -286.0122927193244777
  @DF-RHF Final Energy:  -286.01425653744968
    Total Energy =                       -286.0142565374496826
  @DF-RHF Final Energy:  -286.01496736979806
    Total Energy =                       -286.0149673697980006
  @DF-RHF Final Energy:  -286.01519530349174
    Total Energy =                       -286.0151953034918506
  @DF-RHF Final Energy:  -286.01573685989172
    Total Energy =                       -286.0157368598918879
  Basis Set: 6-31G*
  Basis Set:
  @DF-RHF Final Energy:  -286.01585705037610
    Total Energy =                       -286.0158570503762121
  Basis Set: 6-31G*
  Basis Set:
  Basis Set: 6-31G*
  Basis Set:
  @DF-RHF Final Energy:  -286.01588025482636
    Total Energy =                       -286.0158802548264134
  Basis Set: 6-31G*
  Basis Set:
  Basis Set: 6-31G*
  Basis Set:
  @DF-RHF Final Energy:  -286.01588685390539
    Total Energy =                       -286.0158868539053856
  Basis Set: 6-31G*
  Basis Set:
  Charge       = 0
  Multiplicity = 1
  Basis Set: 6-31G*
  Basis Set:

    Orbital Energies (a.u.)
    -----------------------

    Doubly Occupied:

       1A    -20.531655     2A    -15.574337     3A    -11.346649
       4A    -11.260424     5A    -11.253628     6A    -11.232347
       7A     -1.396495     8A     -1.240706     9A     -1.012782
      10A     -0.968677    11A     -0.914104    12A     -0.738088
      13A     -0.681876    14A     -0.658748    15A     -0.649158
      16A     -0.594601    17A     -0.580432    18A     -0.572986
      19A     -0.560788    20A     -0.551055    21A     -0.528096
      22A     -0.498641    23A     -0.419088    24A     -0.370123

  @DF-RHF Final Energy:  -286.01588728496245

   => Energetics <=

    Nuclear Repulsion Energy =            252.6574802887546696
    One-Electron Energy =                -889.0757709049923960
    Two-Electron Energy =                 350.4024033312750817
    DFT Exchange-Correlation Energy =       0.0000000000000000
    Empirical Dispersion Energy =           0.0000000000000000
    PCM Polarization Energy =               0.0000000000000000
    EFP Energy =                            0.0000000000000000
    Total Energy =                       -286.0158872849626732
    Molecular point group: c1
  Basis Set: 6-31G*
  Basis Set:

  -Total Gradient:
     Atom            X                  Y                   Z
    ------   -----------------  -----------------  -----------------
       1        0.000056229912     0.000050420977     0.000010506583
       2       -0.001865355366    -0.000408646236     0.011791221634
       3        0.001280322957     0.002750133766    -0.008229438564
       4        0.000424941704    -0.011098841699    -0.001702109257
       5       -0.000008952030     0.000001331561    -0.000012913140
       6       -0.000012536345     0.000006453045    -0.000013714516
       7        0.000000381537    -0.000009946350    -0.000016839004
       8        0.000111098509     0.008685971213    -0.001767841374
       9       -0.000003686193    -0.000026325216    -0.000034433019
      10       -0.000003915570     0.000008195906    -0.000003947166
      11        0.000004506832     0.000004338317    -0.000011364781
      12        0.000002642691     0.000007704824    -0.000009897005
      13        0.000005692448     0.000011874191     0.000001614870
      14        0.000003730566     0.000012357383    -0.000005646816
      15        0.000004898348     0.000004978318     0.000004801554

  **** Optimization is complete! (in 19 steps) ****
    Final optimized geometry and variables:
    Molecular point group: c1

    Geometry (in Angstrom), charge = 0, multiplicity = 1:

    O           -1.220585222041    -1.146137447223    -0.536118183114
    C           -0.705493632384    -0.210613614824    -0.001637128030
    C           -1.511755654166     1.039733829905     0.295752459932
    N            0.671545416527    -0.183321807459     0.212336113200
    H           -1.118978390770     1.862819860271    -0.293189113798
    H           -2.537398748854     0.852071259285     0.015654048101
    H           -1.477079569899     1.336856103130     1.337225123941
    C            1.480451282319    -0.439714485769    -0.970768033208
    C            1.232434610217     0.858113763348     1.051063730669
    H            1.575656119456     0.452160591472    -1.590547956225
    H            1.032154384616    -1.230484273046    -1.550565017187
    H            2.472857285064    -0.752180031461    -0.669179852975
    H            1.256899636608     1.837084092597     0.571144657795
    H            0.685113124199     0.940083108519     1.979881080640
    H            2.250201995066     0.584758834092     1.299841331784

  Mulliken Charges: (a.u.)
   Center  Symbol    Alpha    Beta     Spin     Total
       1     O     4.28032  4.28032  0.00000 -0.56063
       2     C     2.63892  2.63892  0.00000  0.72216
       3     C     3.29498  3.29498  0.00000 -0.58997
       4     N     3.80907  3.80907  0.00000 -0.61814
       5     H     0.40656  0.40656  0.00000  0.18688
       6     H     0.39155  0.39155  0.00000  0.21691
       7     H     0.40690  0.40690  0.00000  0.18620
       8     C     3.15258  3.15258  0.00000 -0.30516
       9     C     3.14906  3.14906  0.00000 -0.29812
      10     H     0.42592  0.42592  0.00000  0.14817
      11     H     0.38956  0.38956  0.00000  0.22088
      12     H     0.41264  0.41264  0.00000  0.17472
      13     H     0.42503  0.42503  0.00000  0.14994
      14     H     0.40979  0.40979  0.00000  0.18042
      15     H     0.40714  0.40714  0.00000  0.18573

   Total alpha = 24.00000, Total beta = 24.00000, Total charge =  0.00000
