  ==> Input File <==

--------------------------------------------------------------------------
set {
	reference rhf
	basis 6-31G*
}

set_num_threads( 4 )
memory 2 gb

molecule MOL {
0 1

H	 -2.698709	 -0.000305	 0.034435
C	 -1.693833	 0.000034	 0.434417
O	 -0.828952	 -0.000968	 -0.659236
H	 -1.574200	 0.882896	 1.055746
H	 -1.574147	 -0.881698	 1.057355
C	 0.559449	 -0.000018	 -0.420814
C	 1.276872	 -1.143062	 -1.136126
C	 1.201368	 1.356488	 -0.705052
H	 0.626387	 -0.181847	 0.645248
H	 0.765092	 -2.081683	 -0.952767
H	 2.293708	 -1.231803	 -0.766796
H	 1.332157	 -0.986313	 -2.208757
H	 0.636946	 2.147968	 -0.223966
H	 2.214733	 1.376239	 -0.316252
H	 1.255693	 1.570932	 -1.767551

	symmetry c1
}
set optking {
	frozen_dihedral = ("
		9 6 3 2
	")
}

ee = optimize('scf')
oeprop('DIPOLE', 'QUADRUPOLE', 'MULLIKEN_CHARGES')
f=open( 'psi4out.xyz', 'w' )
f.write( "15  " )
f.write( str(ee) + "\n" )
f.write( MOL.save_string_xyz() )
f.close()
--------------------------------------------------------------------------

    Molecular point group: c1
  Charge       = 0
  Multiplicity = 1
  Basis Set: 6-31G*
  Basis Set:
  @DF-RHF Final Energy:  -232.13617318902655
    Total Energy =                       -232.1361731890262945
    Molecular point group: c1
  Basis Set: 6-31G*
  Basis Set:
  Basis Set: 6-31G*
  Basis Set:
  @DF-RHF Final Energy:  -232.13953632316529
    Total Energy =                       -232.1395363231649753
  Basis Set: 6-31G*
  Basis Set:
  Basis Set: 6-31G*
  Basis Set:
  @DF-RHF Final Energy:  -232.14025535978456
    Total Energy =                       -232.1402553597843621
  Basis Set: 6-31G*
  Basis Set:
  Basis Set: 6-31G*
  Basis Set:
  @DF-RHF Final Energy:  -232.14029003249829
    Total Energy =                       -232.1402900324981715
  Basis Set: 6-31G*
  Basis Set:
  Basis Set: 6-31G*
  Basis Set:
  @DF-RHF Final Energy:  -232.14029483426256
    Total Energy =                       -232.1402948342628747
  Basis Set: 6-31G*
  Basis Set:
  Charge       = 0
  Multiplicity = 1
  Basis Set: 6-31G*
  Basis Set:

    Orbital Energies (a.u.)
    -----------------------

    Doubly Occupied:

       1A    -20.548353     2A    -11.273965     3A    -11.264593
       4A    -11.206927     5A    -11.206595     6A     -1.373201
       7A     -1.052156     8A     -0.935919     9A     -0.918190
      10A     -0.795141    11A     -0.668566    12A     -0.641521
      13A     -0.635543    14A     -0.579498    15A     -0.553532
      16A     -0.539307    17A     -0.536533    18A     -0.496968
      19A     -0.486898    20A     -0.457565    21A     -0.404096

  @DF-RHF Final Energy:  -232.14029512021125

   => Energetics <=

    Nuclear Repulsion Energy =            196.8307988466573875
    One-Electron Energy =                -704.7920532547823314
    Two-Electron Energy =                 275.8209592879135812
    DFT Exchange-Correlation Energy =       0.0000000000000000
    Empirical Dispersion Energy =           0.0000000000000000
    PCM Polarization Energy =               0.0000000000000000
    EFP Energy =                            0.0000000000000000
    Total Energy =                       -232.1402951202113627
    Molecular point group: c1
  Basis Set: 6-31G*
  Basis Set:

  -Total Gradient:
     Atom            X                  Y                   Z
    ------   -----------------  -----------------  -----------------
       1        0.000008145049     0.000000082540    -0.000008070258
       2       -0.000035937607    -0.000900663141     0.000017603056
       3       -0.000011147278     0.001582883559     0.000087920188
       4        0.000006842322    -0.000007645237    -0.000013476155
       5        0.000008387328     0.000003262183    -0.000011003093
       6        0.000026038867    -0.001755012721    -0.000299912329
       7        0.000029724277    -0.000021030859     0.000013304742
       8        0.000022214716     0.000014024779     0.000039018326
       9       -0.000018629686     0.001092077284     0.000173138612
      10        0.000002285933    -0.000010014875     0.000001230232
      11       -0.000017484858     0.000003637629    -0.000007451323
      12       -0.000001579573     0.000005020097    -0.000001116301
      13       -0.000001992475     0.000022575070    -0.000001948512
      14       -0.000015798886     0.000004319028     0.000003229974
      15       -0.000001068126    -0.000033515337     0.000007532841

  **** Optimization is complete! (in 6 steps) ****
    Final optimized geometry and variables:
    Molecular point group: c1

    Geometry (in Angstrom), charge = 0, multiplicity = 1:

    H           -2.772862629927    -0.013814732889     0.424714228189
    C           -1.776844945063    -0.034232017678     0.846304606206
    O           -0.875118483088    -0.041890603647    -0.213944289649
    H           -1.650823148634     0.840967246735     1.480832581909
    H           -1.677599855323    -0.924581544768     1.464026122464
    C            0.491086158116    -0.051658257146     0.134968864804
    C            1.167391259002    -1.185619510944    -0.621260024513
    C            1.097996907356     1.308969282470    -0.186129014987
    H            0.587624273780    -0.229728651948     1.204097427144
    H            0.715419200339    -2.136979823727    -0.362437684221
    H            2.226934416729    -1.232561929483    -0.388547651333
    H            1.055930737080    -1.039335528425    -1.690533081375
    H            0.582199536997     2.095452272482     0.355179986305
    H            2.149057290930     1.342599044139     0.084933089741
    H            1.008606368312     1.516794117230    -1.247226023297

  Mulliken Charges: (a.u.)
   Center  Symbol    Alpha    Beta     Spin     Total
       1     H     0.41306  0.41306  0.00000  0.17388
       2     C     3.07878  3.07878  0.00000 -0.15756
       3     O     4.31027  4.31027  0.00000 -0.62054
       4     H     0.43109  0.43109  0.00000  0.13783
       5     H     0.43008  0.43008  0.00000  0.13984
       6     C     2.91712  2.91712  0.00000  0.16576
       7     C     3.23735  3.23735  0.00000 -0.47471
       8     C     3.23829  3.23829  0.00000 -0.47657
       9     H     0.43007  0.43007  0.00000  0.13986
      10     H     0.41679  0.41679  0.00000  0.16642
      11     H     0.42423  0.42423  0.00000  0.15154
      12     H     0.41478  0.41478  0.00000  0.17044
      13     H     0.41870  0.41870  0.00000  0.16261
      14     H     0.42429  0.42429  0.00000  0.15143
      15     H     0.41511  0.41511  0.00000  0.16978

   Total alpha = 21.00000, Total beta = 21.00000, Total charge = -0.00000
