  ==> Input File <==

--------------------------------------------------------------------------
set {
	reference rhf
	basis cc-pvtz
}

set_num_threads( 4 )
memory 2 gb

molecule MOL {
0 1

H	 -0.914396	 -1.170637	 -0.531299
N	 -1.173824	 -0.310545	 -0.096857
C	 -0.022588	 0.563366	 0.065815
H	 -1.865584	 0.116298	 -0.677274
C	 1.270420	 -0.230572	 -0.014245
H	 -0.045354	 1.293678	 -0.735129
H	 -0.043155	 1.123061	 1.001180
H	 1.336273	 -0.754933	 -0.959364
H	 2.130728	 0.422015	 0.082222
H	 1.323344	 -0.967006	 0.781773

	symmetry c1
}
set optking {
	frozen_dihedral = ("
		1 2 3 6
	")
}

ee = optimize('scf')
oeprop('DIPOLE', 'QUADRUPOLE', 'MULLIKEN_CHARGES')
f=open( 'psi4out.xyz', 'w' )
f.write( "10  " )
f.write( str(ee) + "\n" )
f.write( MOL.save_string_xyz() )
f.close()
--------------------------------------------------------------------------

    Molecular point group: c1
  Charge       = 0
  Multiplicity = 1
  Basis Set: CC-PVTZ
  Basis Set:
  @DF-RHF Final Energy:  -134.30042110855533
    Total Energy =                       -134.3004211085553266
    Molecular point group: c1
  Basis Set: CC-PVTZ
  Basis Set:
  Basis Set: CC-PVTZ
  Basis Set:
  @DF-RHF Final Energy:  -134.30185490805084
    Total Energy =                       -134.3018549080508421
  Basis Set: CC-PVTZ
  Basis Set:
  Basis Set: CC-PVTZ
  Basis Set:
  @DF-RHF Final Energy:  -134.30203777785493
    Total Energy =                       -134.3020377778549630
  Basis Set: CC-PVTZ
  Basis Set:
  Basis Set: CC-PVTZ
  Basis Set:
  @DF-RHF Final Energy:  -134.30204485647587
    Total Energy =                       -134.3020448564759022
  Basis Set: CC-PVTZ
  Basis Set:
  Charge       = 0
  Multiplicity = 1
  Basis Set: CC-PVTZ
  Basis Set:

    Orbital Energies (a.u.)
    -----------------------

    Doubly Occupied:

       1A    -15.523518     2A    -11.240506     3A    -11.210392
       4A     -1.175185     5A     -0.990197     6A     -0.829185
       7A     -0.662268     8A     -0.624010     9A     -0.593927
      10A     -0.523863    11A     -0.502873    12A     -0.495816
      13A     -0.378325

  @DF-RHF Final Energy:  -134.30204571485015

   => Energetics <=

    Nuclear Repulsion Energy =             83.5132761423210468
    One-Electron Energy =                -346.1305116012110830
    Two-Electron Energy =                 128.3151897440397988
    DFT Exchange-Correlation Energy =       0.0000000000000000
    Empirical Dispersion Energy =           0.0000000000000000
    PCM Polarization Energy =               0.0000000000000000
    EFP Energy =                            0.0000000000000000
    Total Energy =                       -134.3020457148502373
    Molecular point group: c1
  Basis Set: CC-PVTZ
  Basis Set:

  -Total Gradient:
     Atom            X                  Y                   Z
    ------   -----------------  -----------------  -----------------
       1        0.000661715626    -0.001144774464     0.002658786803
       2       -0.001260684613     0.001928308426    -0.002883703878
       3        0.002072771411    -0.002486280503    -0.001402818784
       4        0.000005366244    -0.000001121292    -0.000000897841
       5       -0.000042863128     0.000018746391     0.000032442462
       6       -0.001446502357     0.001679483173     0.001599048150
       7       -0.000012100412    -0.000006731047     0.000013315812
       8       -0.000001363416     0.000008635598     0.000010900007
       9        0.000030759413    -0.000006716550    -0.000011322908
      10       -0.000007098767     0.000010450269    -0.000015749823

  **** Optimization is complete! (in 5 steps) ****
    Final optimized geometry and variables:
    Molecular point group: c1

    Geometry (in Angstrom), charge = 0, multiplicity = 1:

    H           -0.964518260901    -1.171259944497    -0.478116090320
    N           -1.189687569512    -0.305214796314    -0.040206384707
    C           -0.028656120385     0.568534061622     0.065956644443
    H           -1.943338251864     0.116191626361    -0.535447487173
    C            1.267726225586    -0.221760437339     0.034556663455
    H           -0.019092432153     1.326710314914    -0.714251528442
    H           -0.086466162352     1.108977718039     1.005831742033
    H            1.396081646179    -0.723882328509    -0.919143509312
    H            2.120440280178     0.428834507892     0.187219632729
    H            1.273433511890    -0.973784743499     0.815754095052

  Mulliken Charges: (a.u.)
   Center  Symbol    Alpha    Beta     Spin     Total
       1     H     0.42910  0.42910  0.00000  0.14179
       2     N     3.69401  3.69401  0.00000 -0.38802
       3     C     3.01039  3.01039  0.00000 -0.02078
       4     H     0.42778  0.42778  0.00000  0.14444
       5     C     3.14652  3.14652  0.00000 -0.29303
       6     H     0.46811  0.46811  0.00000  0.06377
       7     H     0.46371  0.46371  0.00000  0.07258
       8     H     0.45901  0.45901  0.00000  0.08198
       9     H     0.45151  0.45151  0.00000  0.09699
      10     H     0.44986  0.44986  0.00000  0.10028

   Total alpha = 13.00000, Total beta = 13.00000, Total charge = -0.00000
