  ==> Input File <==

--------------------------------------------------------------------------
set {
	reference rhf
	basis 6-31G*
}

set_num_threads( 4 )
memory 2 gb

molecule MOL {
0 1

H	 -2.611903	 0.297244	 0.765469
O	 -2.035884	 -0.060112	 0.102722
C	 -0.955155	 0.788182	 -0.092531
C	 0.353668	 0.040312	 -0.004810
H	 -0.985057	 1.290372	 -1.054184
H	 -0.974469	 1.533190	 0.688632
F	 0.394464	 -0.937475	 -0.903053
F	 1.368604	 0.853376	 -0.249821
F	 0.546173	 -0.502608	 1.179981

	symmetry c1
}
set optking {
	frozen_dihedral = ("
		1 2 3 5
	")
}

ee = optimize('scf')
oeprop('DIPOLE', 'QUADRUPOLE', 'MULLIKEN_CHARGES')
f=open( 'psi4out.xyz', 'w' )
f.write( "9  " )
f.write( str(ee) + "\n" )
f.write( MOL.save_string_xyz() )
f.close()
--------------------------------------------------------------------------

    Molecular point group: c1
  Charge       = 0
  Multiplicity = 1
  Basis Set: 6-31G*
  Basis Set:
  @DF-RHF Final Energy:  -450.65801513960781
    Total Energy =                       -450.6580151396078691
    Molecular point group: c1
  Basis Set: 6-31G*
  Basis Set:
  Basis Set: 6-31G*
  Basis Set:
  @DF-RHF Final Energy:  -450.65930495158318
    Total Energy =                       -450.6593049515833513
  Basis Set: 6-31G*
  Basis Set:
  Basis Set: 6-31G*
  Basis Set:
  @DF-RHF Final Energy:  -450.65954625590894
    Total Energy =                       -450.6595462559086513
  Basis Set: 6-31G*
  Basis Set:
  Basis Set: 6-31G*
  Basis Set:
  @DF-RHF Final Energy:  -450.65955587627826
    Total Energy =                       -450.6595558762782616
  Basis Set: 6-31G*
  Basis Set:
  Charge       = 0
  Multiplicity = 1
  Basis Set: 6-31G*
  Basis Set:

    Orbital Energies (a.u.)
    -----------------------

    Doubly Occupied:

       1A    -26.336667     2A    -26.333645     3A    -26.332634
       4A    -20.588940     5A    -11.495187     6A    -11.309970
       7A     -1.733254     8A     -1.631217     9A     -1.629762
      10A     -1.400727    11A     -1.047464    12A     -0.917318
      13A     -0.824602    14A     -0.822885    15A     -0.785634
      16A     -0.737039    17A     -0.705569    18A     -0.695525
      19A     -0.662931    20A     -0.649911    21A     -0.634829
      22A     -0.633881    23A     -0.595216    24A     -0.531661
      25A     -0.478454

  @DF-RHF Final Energy:  -450.65955744935701

   => Energetics <=

    Nuclear Repulsion Energy =            276.8831124584821168
    One-Electron Energy =               -1176.0554954473304861
    Two-Electron Energy =                 448.5128255394912458
    DFT Exchange-Correlation Energy =       0.0000000000000000
    Empirical Dispersion Energy =           0.0000000000000000
    PCM Polarization Energy =               0.0000000000000000
    EFP Energy =                            0.0000000000000000
    Total Energy =                       -450.6595574493570666
    Molecular point group: c1
  Basis Set: 6-31G*
  Basis Set:

  -Total Gradient:
     Atom            X                  Y                   Z
    ------   -----------------  -----------------  -----------------
       1       -0.000403601942     0.000379178706    -0.000570510388
       2        0.000422954170    -0.000256245000     0.000734336620
       3        0.000346020682    -0.000639473666    -0.000416224113
       4        0.000029001960     0.000070072351     0.000137438951
       5       -0.000405592671     0.000483662352     0.000274351259
       6       -0.000013567455    -0.000013992403     0.000001723051
       7        0.000030913964     0.000007035457     0.000000344184
       8        0.000036618293    -0.000050841681    -0.000058098900
       9       -0.000042746997     0.000020603885    -0.000103360668

  **** Optimization is complete! (in 5 steps) ****
    Final optimized geometry and variables:
    Molecular point group: c1

    Geometry (in Angstrom), charge = 0, multiplicity = 1:

    H           -2.606249848496     0.255411282850     0.738692887210
    O           -2.006704393947    -0.083164114404     0.091515672457
    C           -0.944659684735     0.795292452980    -0.100572446204
    C            0.350565750753     0.025229673936    -0.027396505991
    H           -1.002453868290     1.267643470007    -1.073774081414
    H           -0.900070547482     1.570465582145     0.655291101128
    F            0.406800638176    -0.936804198624    -0.926497783059
    F            1.369621319965     0.845398035538    -0.248682675368
    F            0.527468937693    -0.520950028502     1.161975480212

  Mulliken Charges: (a.u.)
   Center  Symbol    Alpha    Beta     Spin     Total
       1     H     0.27081  0.27081  0.00000  0.45838
       2     O     4.36339  4.36339  0.00000 -0.72678
       3     C     3.05566  3.05566  0.00000 -0.11132
       4     C     2.45430  2.45430  0.00000  1.09141
       5     H     0.40468  0.40468  0.00000  0.19064
       6     H     0.41000  0.41000  0.00000  0.18001
       7     F     4.67638  4.67638  0.00000 -0.35275
       8     F     4.68525  4.68525  0.00000 -0.37051
       9     F     4.67954  4.67954  0.00000 -0.35907

   Total alpha = 25.00000, Total beta = 25.00000, Total charge = -0.00000
