  ==> Input File <==

--------------------------------------------------------------------------
set {
	reference rhf
	basis 6-31G*
}

set_num_threads( 4 )
memory 2 gb

molecule MOL {
0 1

O	 -0.682937	 1.318834	 -0.186099
C	 -0.860635	 0.152188	 -0.042321
C	 -2.173363	 -0.477127	 0.338347
O	 0.083258	 -0.765189	 -0.202595
H	 -2.477673	 -1.180929	 -0.427595
H	 -2.923125	 0.290956	 0.455536
H	 -2.058825	 -1.029004	 1.264191
C	 1.391937	 -0.334737	 -0.569838
C	 1.380992	 1.085266	 -1.104739
H	 1.802090	 -1.023240	 -1.292941
H	 1.965010	 -0.399995	 0.343851
H	 2.397536	 1.410553	 -1.303628
H	 0.818029	 1.145605	 -2.027669
H	 0.942192	 1.762499	 -0.380014

	symmetry c1
}
set optking {
	frozen_dihedral = ("
		10 8 4 2
	")
}

ee = optimize('scf')
oeprop('DIPOLE', 'QUADRUPOLE', 'MULLIKEN_CHARGES')
f=open( 'psi4out.xyz', 'w' )
f.write( "14  " )
f.write( str(ee) + "\n" )
f.write( MOL.save_string_xyz() )
f.close()
--------------------------------------------------------------------------

    Molecular point group: c1
  Charge       = 0
  Multiplicity = 1
  Basis Set: 6-31G*
  Basis Set:
  @DF-RHF Final Energy:  -305.82977344669428
    Total Energy =                       -305.8297734466941051
    Molecular point group: c1
  Basis Set: 6-31G*
  Basis Set:
  Basis Set: 6-31G*
  Basis Set:
  @DF-RHF Final Energy:  -305.85702206942824
    Total Energy =                       -305.8570220694282398
  Basis Set: 6-31G*
  Basis Set:
  Basis Set: 6-31G*
  Basis Set:
  @DF-RHF Final Energy:  -305.86264657554773
    Total Energy =                       -305.8626465755477284
  Basis Set: 6-31G*
  Basis Set:
  Basis Set: 6-31G*
  Basis Set:
  @DF-RHF Final Energy:  -305.85911340298696
    Total Energy =                       -305.8591134029869636
  Basis Set: 6-31G*
  Basis Set:
  @DF-RHF Final Energy:  -305.86494885337703
    Total Energy =                       -305.8649488533768022
  @DF-RHF Final Energy:  -305.86518166069868
    Total Energy =                       -305.8651816606985676
  Basis Set: 6-31G*
  Basis Set:
  @DF-RHF Final Energy:  -305.86521113290166
    Total Energy =                       -305.8652111329015497
  Basis Set: 6-31G*
  Basis Set:
  Basis Set: 6-31G*
  Basis Set:
  @DF-RHF Final Energy:  -305.86521965511474
    Total Energy =                       -305.8652196551147426
  Basis Set: 6-31G*
  Basis Set:
  Basis Set: 6-31G*
  Basis Set:
  @DF-RHF Final Energy:  -305.86522067407270
    Total Energy =                       -305.8652206740727593
  Basis Set: 6-31G*
  Basis Set:
  Charge       = 0
  Multiplicity = 1
  Basis Set: 6-31G*
  Basis Set:

    Orbital Energies (a.u.)
    -----------------------

    Doubly Occupied:

       1A    -20.599078     2A    -20.540720     3A    -11.375967
       4A    -11.291912     5A    -11.230547     6A    -11.216022
       7A     -1.461078     8A     -1.362055     9A     -1.055365
      10A     -0.996286    11A     -0.892586    12A     -0.748575
      13A     -0.690534    14A     -0.679943    15A     -0.668918
      16A     -0.612407    17A     -0.586444    18A     -0.568894
      19A     -0.547474    20A     -0.534039    21A     -0.513920
      22A     -0.495077    23A     -0.444849    24A     -0.429910

  @DF-RHF Final Energy:  -305.86522072893956

   => Energetics <=

    Nuclear Repulsion Energy =            248.9350599125761221
    One-Electron Energy =                -910.5153621665419905
    Two-Electron Energy =                 355.7150815250263349
    DFT Exchange-Correlation Energy =       0.0000000000000000
    Empirical Dispersion Energy =           0.0000000000000000
    PCM Polarization Energy =               0.0000000000000000
    EFP Energy =                            0.0000000000000000
    Total Energy =                       -305.8652207289395619
    Molecular point group: c1
  Basis Set: 6-31G*
  Basis Set:

  -Total Gradient:
     Atom            X                  Y                   Z
    ------   -----------------  -----------------  -----------------
       1       -0.000026932913    -0.000013573919     0.000017673761
       2       -0.001044552879    -0.000529167341    -0.003978598391
       3       -0.000068380593     0.000027426822    -0.000102490817
       4        0.001328424973     0.001144657994     0.005615914244
       5        0.000031088029     0.000014417804     0.000024209458
       6       -0.000028042366    -0.000006701294     0.000017200923
       7        0.000026709181     0.000014525063     0.000041844763
       8        0.001296126622    -0.002903735367     0.001581938024
       9       -0.000030067062     0.000009367666     0.000091645050
      10       -0.001604590679     0.002258710517    -0.003253914722
      11        0.000046321982     0.000038781661    -0.000002705343
      12        0.000007601950     0.000012428966    -0.000018456198
      13        0.000027707903    -0.000028445812    -0.000006633664
      14        0.000038585852    -0.000038692762    -0.000027627088

  **** Optimization is complete! (in 10 steps) ****
    Final optimized geometry and variables:
    Molecular point group: c1

    Geometry (in Angstrom), charge = 0, multiplicity = 1:

    O           -0.731821676813     1.174988752596     0.303771880554
    C           -0.786799314489    -0.011449977078     0.305482915529
    C           -2.049984874000    -0.799462245693     0.539192365554
    O            0.238372808684    -0.830480095360     0.128402261331
    H           -2.254740484409    -1.427258154823    -0.320272110232
    H           -2.873218462061    -0.121254952840     0.707544582563
    H           -1.922419732110    -1.449480261083     1.397026922361
    C            1.557460570372    -0.447349768630    -0.272227553754
    C            1.736663570234     0.890945926250    -0.975372384052
    H            1.847036532141    -1.228772028082    -0.960722631120
    H            2.183732477478    -0.505385905480     0.608097993360
    H            2.757437194419     0.918846653121    -1.347597787842
    H            1.069158179680     0.985617613567    -1.823209754327
    H            1.578937459039     1.733654102030    -0.322229607501

  Mulliken Charges: (a.u.)
   Center  Symbol    Alpha    Beta     Spin     Total
       1     O     4.28222  4.28222  0.00000 -0.56445
       2     C     2.61957  2.61957  0.00000  0.76086
       3     C     3.28029  3.28029  0.00000 -0.56057
       4     O     4.31605  4.31605  0.00000 -0.63211
       5     H     0.40224  0.40224  0.00000  0.19553
       6     H     0.39810  0.39810  0.00000  0.20381
       7     H     0.40082  0.40082  0.00000  0.19836
       8     C     2.99106  2.99106  0.00000  0.01787
       9     C     3.25565  3.25565  0.00000 -0.51130
      10     H     0.41183  0.41183  0.00000  0.17634
      11     H     0.41329  0.41329  0.00000  0.17342
      12     H     0.42136  0.42136  0.00000  0.15728
      13     H     0.41251  0.41251  0.00000  0.17498
      14     H     0.39501  0.39501  0.00000  0.20998

   Total alpha = 24.00000, Total beta = 24.00000, Total charge = -0.00000
