  ==> Input File <==

--------------------------------------------------------------------------
set {
	reference rhf
	basis 6-31G*
}

set_num_threads( 4 )
memory 2 gb

molecule MOL {
0 1

O	 -2.042549	 -1.228399	 -0.269030
C	 -1.653912	 -0.146171	 0.050137
C	 -0.332303	 0.024011	 0.778412
C	 -2.438579	 1.106236	 -0.272369
C	 0.845713	 -0.001731	 -0.208243
H	 -0.323783	 0.953829	 1.340327
H	 -0.235459	 -0.796807	 1.480410
C	 2.200309	 0.136118	 0.488247
H	 0.733710	 0.800019	 -0.936072
H	 0.811185	 -0.933796	 -0.764304
C	 2.257309	 -0.606692	 1.822485
H	 2.983827	 -0.237110	 -0.167669
H	 2.413056	 1.190021	 0.651331
H	 2.081842	 -1.670229	 1.687749
H	 1.505799	 -0.232431	 2.511400
H	 3.227430	 -0.488984	 2.294752
H	 -3.277823	 0.863061	 -0.908988
H	 -1.806773	 1.843019	 -0.759671
H	 -2.802853	 1.554979	 0.648059

	symmetry c1
}
set optking {
	frozen_dihedral = ("
		11 8 5 9
	")
}

ee = optimize('scf')
oeprop('DIPOLE', 'QUADRUPOLE', 'MULLIKEN_CHARGES')
f=open( 'psi4out.xyz', 'w' )
f.write( "19  " )
f.write( str(ee) + "\n" )
f.write( MOL.save_string_xyz() )
f.close()
--------------------------------------------------------------------------

    Molecular point group: c1
  Charge       = 0
  Multiplicity = 1
  Basis Set: 6-31G*
  Basis Set:
  @DF-RHF Final Energy:  -309.05897826579792
    Total Energy =                       -309.0589782657980322
    Molecular point group: c1
  Basis Set: 6-31G*
  Basis Set:
  Basis Set: 6-31G*
  Basis Set:
  @DF-RHF Final Energy:  -309.05964098835904
    Total Energy =                       -309.0596409883588080
  Basis Set: 6-31G*
  Basis Set:
  Basis Set: 6-31G*
  Basis Set:
  @DF-RHF Final Energy:  -309.06097072859825
    Total Energy =                       -309.0609707285978516
  Basis Set: 6-31G*
  Basis Set:
  Basis Set: 6-31G*
  Basis Set:
  @DF-RHF Final Energy:  -309.06107486645010
    Total Energy =                       -309.0610748664499852
  Basis Set: 6-31G*
  Basis Set:
  @DF-RHF Final Energy:  -309.06108842969462
    Total Energy =                       -309.0610884296946779
  @DF-RHF Final Energy:  -309.06108775470761
    Total Energy =                       -309.0610877547076143
  Basis Set: 6-31G*
  Basis Set:
  @DF-RHF Final Energy:  -309.06109357820679
    Total Energy =                       -309.0610935782069646
  Basis Set: 6-31G*
  Basis Set:
  Basis Set: 6-31G*
  Basis Set:
  @DF-RHF Final Energy:  -309.06109247624158
    Total Energy =                       -309.0610924762414697
  Basis Set: 6-31G*
  Basis Set:
  Basis Set: 6-31G*
  Basis Set:
  @DF-RHF Final Energy:  -309.06109433922609
    Total Energy =                       -309.0610943392260310
  Basis Set: 6-31G*
  Basis Set:
  Charge       = 0
  Multiplicity = 1
  Basis Set: 6-31G*
  Basis Set:

    Orbital Energies (a.u.)
    -----------------------

    Doubly Occupied:

       1A    -20.547233     2A    -11.324385     3A    -11.231076
       4A    -11.228746     5A    -11.228297     6A    -11.225413
       7A    -11.215139     8A     -1.393039     9A     -1.090314
      10A     -1.026943    11A     -0.980864    12A     -0.902039
      13A     -0.795913    14A     -0.734021    15A     -0.660850
      16A     -0.650971    17A     -0.622201    18A     -0.602154
      19A     -0.588375    20A     -0.576249    21A     -0.550209
      22A     -0.544453    23A     -0.515188    24A     -0.502629
      25A     -0.481021    26A     -0.468388    27A     -0.462529
      28A     -0.397301

  @DF-RHF Final Energy:  -309.06109440185492

   => Energetics <=

    Nuclear Repulsion Energy =            305.0832258870283340
    One-Electron Energy =               -1023.1967664585256443
    Two-Electron Energy =                 409.0524461696426215
    DFT Exchange-Correlation Energy =       0.0000000000000000
    Empirical Dispersion Energy =           0.0000000000000000
    PCM Polarization Energy =               0.0000000000000000
    EFP Energy =                            0.0000000000000000
    Total Energy =                       -309.0610944018546888
    Molecular point group: c1
  Basis Set: 6-31G*
  Basis Set:

  -Total Gradient:
     Atom            X                  Y                   Z
    ------   -----------------  -----------------  -----------------
       1       -0.000003618012     0.000004673456    -0.000005080930
       2       -0.000001366872    -0.000019065756     0.000029567672
       3        0.000001063683    -0.000015457256     0.000005053847
       4        0.000013090557     0.000010828880    -0.000016145700
       5        0.002221271201    -0.002239252668    -0.003793135648
       6       -0.000004576630     0.000007370074    -0.000008295607
       7        0.000008657749     0.000001600680     0.000001138038
       8        0.001518020452    -0.003992924665    -0.001897034782
       9       -0.002324745908     0.002997752850     0.003795724603
      10        0.000002980132     0.000009781224    -0.000016624032
      11       -0.001421417678     0.003234731314     0.001914287957
      12       -0.000003181189    -0.000002298216     0.000002789293
      13        0.000006467431     0.000003827968    -0.000018796694
      14        0.000004309928    -0.000001737429     0.000005613002
      15       -0.000006872399     0.000001849941    -0.000004665137
      16        0.000000531487    -0.000000338816     0.000002800748
      17        0.000000058163     0.000000608911    -0.000001088756
      18       -0.000006693904    -0.000000098313     0.000002663899
      19       -0.000003978188    -0.000001852175     0.000001228226

  **** Optimization is complete! (in 10 steps) ****
    Final optimized geometry and variables:
    Molecular point group: c1

    Geometry (in Angstrom), charge = 0, multiplicity = 1:

    O           -1.912842085011    -1.088575598907    -0.704437330635
    C           -1.509131153471    -0.029681243343    -0.330116653059
    C           -0.211667641559     0.076816669607     0.451481744927
    C           -2.250945687334     1.253909583051    -0.631174071694
    C            0.991966457127     0.041984900420    -0.508992049435
    H           -0.194772870237     0.992663573072     1.036479459564
    H           -0.175175092669    -0.763097385656     1.133699705183
    C            2.357035029801     0.236661648369     0.173611930047
    H            0.857626584283     0.846784548011    -1.228044757479
    H            0.966472787665    -0.895820959830    -1.053323418721
    C            2.535800723790    -0.477008721679     1.514774850271
    H            3.133338969024    -0.083716430372    -0.515195660162
    H            2.517826290514     1.300691280043     0.333592555387
    H            2.350281142582    -1.544343649275     1.429754847198
    H            1.868057701591    -0.083012314937     2.272878728638
    H            3.550977270438    -0.348595096335     1.876694881662
    H           -3.069589526432     1.057530658544    -1.309419262732
    H           -1.583896133061     1.994633924493    -1.062219798343
    H           -2.641405752802     1.673310940985     0.292391527674

  Mulliken Charges: (a.u.)
   Center  Symbol    Alpha    Beta     Spin     Total
       1     O     4.26248  4.26248  0.00000 -0.52497
       2     C     2.73681  2.73681  0.00000  0.52638
       3     C     3.20339  3.20339  0.00000 -0.40678
       4     C     3.28949  3.28949  0.00000 -0.57899
       5     C     3.16206  3.16206  0.00000 -0.32411
       6     H     0.41763  0.41763  0.00000  0.16474
       7     H     0.39869  0.39869  0.00000  0.20261
       8     C     3.15245  3.15245  0.00000 -0.30490
       9     H     0.41958  0.41958  0.00000  0.16084
      10     H     0.40552  0.40552  0.00000  0.18897
      11     C     3.24460  3.24460  0.00000 -0.48920
      12     H     0.41646  0.41646  0.00000  0.16707
      13     H     0.42227  0.42227  0.00000  0.15547
      14     H     0.41840  0.41840  0.00000  0.16321
      15     H     0.41955  0.41955  0.00000  0.16090
      16     H     0.41682  0.41682  0.00000  0.16636
      17     H     0.39699  0.39699  0.00000  0.20602
      18     H     0.41009  0.41009  0.00000  0.17983
      19     H     0.40672  0.40672  0.00000  0.18656

   Total alpha = 28.00000, Total beta = 28.00000, Total charge =  0.00000
