  ==> Input File <==

--------------------------------------------------------------------------
set {
	reference rhf
	basis 6-31G*
}

set_num_threads( 4 )
memory 2 gb

molecule MOL {
0 1

H	 -0.495152	 -1.652460	 -0.002780
N	 -0.626943	 -0.667432	 -0.000092
C	 -1.979713	 -0.158776	 0.000050
C	 0.469283	 0.129080	 0.004915
H	 -2.520245	 -0.492427	 -0.879443
H	 -1.934741	 0.918111	 -0.004428
H	 -2.517790	 -0.485056	 0.883818
C	 1.788931	 -0.616248	 0.003748
O	 0.411092	 1.327749	 0.009360
H	 1.874108	 -1.242307	 -0.878947
H	 2.595410	 0.101545	 0.011525
H	 1.868796	 -1.255630	 0.877332

	symmetry c1
}
set optking {
	frozen_dihedral = ("
		4 2 3 5
	")
}

ee = optimize('scf')
oeprop('DIPOLE', 'QUADRUPOLE', 'MULLIKEN_CHARGES')
f=open( 'psi4out.xyz', 'w' )
f.write( "12  " )
f.write( str(ee) + "\n" )
f.write( MOL.save_string_xyz() )
f.close()
--------------------------------------------------------------------------

    Molecular point group: c1
  Charge       = 0
  Multiplicity = 1
  Basis Set: 6-31G*
  Basis Set:

    Orbital Energies (a.u.)
    -----------------------

    Doubly Occupied:

       1A    -20.515842     2A    -15.581292     3A    -11.343218
       4A    -11.253641     5A    -11.229684     6A     -1.384121
       7A     -1.228057     8A     -1.015717     9A     -0.931563
      10A     -0.786420    11A     -0.689201    12A     -0.648070
      13A     -0.632148    14A     -0.585956    15A     -0.579666
      16A     -0.554561    17A     -0.543942    18A     -0.507670
      19A     -0.412821    20A     -0.384109

  @DF-RHF Final Energy:  -247.00547266893747

   => Energetics <=

    Nuclear Repulsion Energy =            181.2614970480944692
    One-Electron Energy =                -694.9185403380158732
    Two-Electron Energy =                 266.6515706209839891
    DFT Exchange-Correlation Energy =       0.0000000000000000
    Empirical Dispersion Energy =           0.0000000000000000
    PCM Polarization Energy =               0.0000000000000000
    EFP Energy =                            0.0000000000000000
    Total Energy =                       -247.0054726689373865
    Molecular point group: c1
  Basis Set: 6-31G*
  Basis Set:

  -Total Gradient:
     Atom            X                  Y                   Z
    ------   -----------------  -----------------  -----------------
       1       -0.000000419560     0.000000280110    -0.000011620217
       2        0.000023461022     0.000007028804     0.000051728821
       3       -0.000021115407     0.000014248912    -0.000021787031
       4       -0.000010967649    -0.000029290219     0.000003912015
       5       -0.000026230542     0.000003487275    -0.000010951738
       6        0.000005094610    -0.000004029202    -0.000002437120
       7        0.000030900729    -0.000011542737    -0.000002012182
       8       -0.000013890177    -0.000001027585    -0.000004874187
       9        0.000006175723     0.000012201419    -0.000004210946
      10       -0.000001247206    -0.000003573530     0.000000078885
      11        0.000010692827     0.000015380522    -0.000000073578
      12       -0.000002454371    -0.000003163769     0.000002247279

  **** Optimization is complete! (in 1 steps) ****
    Final optimized geometry and variables:
    Molecular point group: c1

    Geometry (in Angstrom), charge = 0, multiplicity = 1:

    H           -0.495149412134    -1.652452241464    -0.006340611291
    N           -0.626940412134    -0.667424241464    -0.003652611291
    C           -1.979710412134    -0.158768241464    -0.003510611291
    C            0.469285587866     0.129087758536     0.001354388709
    H           -2.520242412134    -0.492419241464    -0.883003611291
    H           -1.934738412134     0.918118758536    -0.007988611291
    H           -2.517787412134    -0.485048241464     0.880257388709
    C            1.788933587866    -0.616240241464     0.000187388709
    O            0.411094587866     1.327756758536     0.005799388709
    H            1.874110587866    -1.242299241464    -0.882507611291
    H            2.595412587866     0.101552758536     0.007964388709
    H            1.868798587866    -1.255622241464     0.873771388709

  Mulliken Charges: (a.u.)
   Center  Symbol    Alpha    Beta     Spin     Total
       1     H     0.31106  0.31106  0.00000  0.37787
       2     N     3.89162  3.89162  0.00000 -0.78324
       3     C     3.14247  3.14247  0.00000 -0.28493
       4     C     2.63057  2.63057  0.00000  0.73886
       5     H     0.41672  0.41672  0.00000  0.16656
       6     H     0.38547  0.38547  0.00000  0.22906
       7     H     0.41669  0.41669  0.00000  0.16663
       8     C     3.29526  3.29526  0.00000 -0.59052
       9     O     4.30251  4.30251  0.00000 -0.60502
      10     H     0.40782  0.40782  0.00000  0.18436
      11     H     0.39183  0.39183  0.00000  0.21634
      12     H     0.40799  0.40799  0.00000  0.18403

   Total alpha = 20.00000, Total beta = 20.00000, Total charge = -0.00000
