                              Psi4 1.0.54 Driver

  ==> Input File <==

--------------------------------------------------------------------------
set {
	reference rhf
	basis cc-pvtz
}

set_num_threads( 4 )
memory 2 gb

molecule MOL {
0 1

H	 2.936363	 -1.193026	 0.190742
N	 3.091268	 -0.241216	 -0.065538
C	 1.860978	 0.530248	 0.016256
H	 3.450160	 -0.241840	 -0.997495
C	 0.644130	 -0.381765	 -0.031064
H	 1.835721	 1.204666	 -0.833114
H	 1.808789	 1.151975	 0.911067
C	 -0.678115	 0.376691	 0.025731
H	 0.693998	 -0.977147	 -0.936845
H	 0.693309	 -1.082142	 0.800523
C	 -1.900706	 -0.535531	 -0.022488
H	 -0.725296	 1.079516	 -0.802982
H	 -0.715474	 0.974884	 0.933278
C	 -3.220513	 0.226854	 0.028039
H	 -1.865036	 -1.134397	 -0.928236
H	 -1.857948	 -1.236381	 0.806820
H	 -3.309098	 0.911849	 -0.808725
H	 -4.066838	 -0.449485	 -0.008086
H	 -3.301685	 0.809374	 0.939860

	symmetry c1
}
set optking {
	frozen_dihedral = ("
		1 2 3 6
	")
}

ee,wfn = optimize('scf', return_wfn=True)
oeprop( wfn, 'DIPOLE', 'QUADRUPOLE', 'MULLIKEN_CHARGES')
f=open( 'psi4out.xyz', 'w' )
f.write( "19  " )
f.write( str(ee) + "\n" )
f.write( MOL.save_string_xyz() )
f.close()
--------------------------------------------------------------------------

    Molecular point group: c1
  Charge       = 0
  Multiplicity = 1
  Basis Set: CC-PVTZ
  Basis Set:
  @DF-RHF Final Energy:  -251.44407759247690
    Total Energy =                       -251.4440775924771287
    Molecular point group: c1
  Basis Set: CC-PVTZ
  Basis Set:
  Basis Set: CC-PVTZ
  Basis Set:
  @DF-RHF Final Energy:  -251.44503231684482
    Total Energy =                       -251.4450323168447881
  Basis Set: CC-PVTZ
  Basis Set:
  Basis Set: CC-PVTZ
  Basis Set:
  @DF-RHF Final Energy:  -251.44519481063423
    Total Energy =                       -251.4451948106339501
  Basis Set: CC-PVTZ
  Basis Set:
  Basis Set: CC-PVTZ
  Basis Set:
  @DF-RHF Final Energy:  -251.44519755932683
    Total Energy =                       -251.4451975593270845
  Basis Set: CC-PVTZ
  Basis Set:
  Charge       = 0
  Multiplicity = 1
  Basis Set: CC-PVTZ
  Basis Set:

    Orbital Energies (a.u.)
    -----------------------

    Doubly Occupied:

       1A    -15.524815     2A    -11.238049     3A    -11.214764
       4A    -11.213555     5A    -11.212713     6A    -11.207487
       7A     -1.176609     8A     -1.076917     9A     -1.001340
      10A     -0.902294    11A     -0.819198    12A     -0.793439
      13A     -0.673009    14A     -0.640545    15A     -0.600905
      16A     -0.596978    17A     -0.569584    18A     -0.554779
      19A     -0.527989    20A     -0.500352    21A     -0.485746
      22A     -0.468638    23A     -0.465915    24A     -0.461340
      25A     -0.378423

  @DF-RHF Final Energy:  -251.44519791768693

   => Energetics <=

    Nuclear Repulsion Energy =            245.9175170256249316
    One-Electron Energy =                -826.1146645417866239
    Two-Electron Energy =                 328.7519495984750506
    DFT Exchange-Correlation Energy =       0.0000000000000000
    Empirical Dispersion Energy =           0.0000000000000000
    PCM Polarization Energy =               0.0000000000000000
    EFP Energy =                            0.0000000000000000
    Total Energy =                       -251.4451979176866985
    Molecular point group: c1
  Basis Set: CC-PVTZ
  Basis Set:

  -Total Gradient:
     Atom            X                  Y                   Z
    ------   -----------------  -----------------  -----------------
       1       -0.000411888949    -0.000646310262    -0.002626797127
       2        0.000257053872     0.000362403974     0.002938166173
       3        0.001194937768     0.002042301459     0.001059690185
       4       -0.000001532423     0.000003730671     0.000009835919
       5        0.000036642634     0.000015519814     0.000000461479
       6       -0.001033383142    -0.001780207942    -0.001389918223
       7       -0.000019107323     0.000009437165     0.000005525232
       8        0.000016495868    -0.000008091246     0.000002240151
       9        0.000004008041     0.000006555321     0.000003074507
      10       -0.000006344467    -0.000007216540    -0.000008356611
      11       -0.000019255552     0.000006319775     0.000003733541
      12        0.000004220364    -0.000006794859     0.000000755038
      13       -0.000009365243     0.000004416689    -0.000006702639
      14       -0.000011461962    -0.000010395525     0.000008753443
      15        0.000004938491     0.000007267274     0.000000539176
      16       -0.000001196708    -0.000001386136    -0.000002124649
      17        0.000002170002    -0.000002809613    -0.000001014317
      18       -0.000005207209     0.000003257790     0.000001560419
      19       -0.000001724062     0.000002002192     0.000000578300

  **** Optimization is complete! (in 5 steps) ****
    Final optimized geometry and variables:
    Molecular point group: c1

    Geometry (in Angstrom), charge = 0, multiplicity = 1:

    H            3.020021132533    -1.157156857403     0.237096806584
    N            3.138734034692    -0.198799076144    -0.014384867770
    C            1.866603362615     0.516934133450     0.013329851510
    H            3.530544565597    -0.195084296370    -0.930945324471
    C            0.638977710792    -0.387672851369    -0.036441300600
    H            1.831327480935     1.194064429555    -0.833390184984
    H            1.821144199465     1.128814529365     0.908637164228
    C           -0.678113851882     0.379139389961     0.029558788205
    H            0.672283245106    -0.981023038860    -0.947241445052
    H            0.686741645516    -1.091536240583     0.792276941902
    C           -1.908512403567    -0.523185733485    -0.006626252503
    H           -0.726879277944     1.082304231366    -0.798752692415
    H           -0.700729596900     0.977613802869     0.937025680625
    C           -3.221295748807     0.250047027469     0.058931909315
    H           -1.888039492093    -1.121399529486    -0.913486477911
    H           -1.862571364439    -1.224971183469     0.821619048405
    H           -3.313363762668     0.936443527155    -0.776270389342
    H           -4.073422244182    -0.419365228987     0.031694803811
    H           -3.287318889318     0.832255926549     0.972042602838

  Mulliken Charges: (a.u.)
   Center  Symbol    Alpha    Beta     Spin     Total
       1     H     0.42943  0.42943  0.00000  0.14113
       2     N     3.69362  3.69362  0.00000 -0.38724
       3     C     3.01945  3.01945  0.00000 -0.03890
       4     H     0.42977  0.42977  0.00000  0.14045
       5     C     3.08987  3.08987  0.00000 -0.17973
       6     H     0.46011  0.46011  0.00000  0.07979
       7     H     0.45871  0.45871  0.00000  0.08258
       8     C     3.09466  3.09466  0.00000 -0.18932
       9     H     0.45770  0.45770  0.00000  0.08459
      10     H     0.45709  0.45709  0.00000  0.08581
      11     C     3.08326  3.08326  0.00000 -0.16652
      12     H     0.45494  0.45494  0.00000  0.09012
      13     H     0.45393  0.45393  0.00000  0.09214
      14     C     3.14991  3.14991  0.00000 -0.29982
      15     H     0.45474  0.45474  0.00000  0.09052
      16     H     0.45436  0.45436  0.00000  0.09128
      17     H     0.45519  0.45519  0.00000  0.08961
      18     H     0.44841  0.44841  0.00000  0.10318
      19     H     0.45483  0.45483  0.00000  0.09034

   Total alpha = 25.00000, Total beta = 25.00000, Total charge =  0.00000

*** Psi4 exiting successfully. Buy a developer a beer!
