  ==> Input File <==

--------------------------------------------------------------------------
set {
	reference rhf
	basis 6-31G*
}

set_num_threads( 4 )
memory 2 gb

molecule MOL {
0 1

H	 -3.420663	 1.227371	 -1.044276
O	 -3.452007	 0.283848	 -0.965577
C	 -3.181085	 -0.079926	 0.364119
C	 -1.765924	 0.277073	 0.805136
H	 -3.327791	 -1.152017	 0.410903
H	 -3.905698	 0.375695	 1.036898
C	 -0.677594	 -0.417312	 -0.014550
H	 -1.637766	 1.358238	 0.744969
H	 -1.659588	 0.017670	 1.857098
C	 -0.370942	 0.296933	 -1.332502
H	 -0.979888	 -1.440808	 -0.214010
H	 0.230824	 -0.478425	 0.582471
C	 0.723530	 -0.400663	 -2.144646
H	 -1.283892	 0.363330	 -1.919471
H	 -0.065330	 1.321970	 -1.126334
C	 1.128831	 0.326066	 -3.432183
H	 0.400400	 -1.411141	 -2.390036
H	 1.606070	 -0.509329	 -1.517645
C	 0.032052	 0.393395	 -4.496582
H	 1.993621	 -0.179472	 -3.855101
H	 1.457286	 1.334342	 -3.187844
H	 -0.325063	 -0.600777	 -4.751985
H	 0.405661	 0.852998	 -5.406537
H	 -0.820890	 0.976305	 -4.165115

	symmetry c1
}
set optking {
	frozen_dihedral = ("
		11 7 4 3
	")
}

ee = optimize('scf')
oeprop('DIPOLE', 'QUADRUPOLE', 'MULLIKEN_CHARGES')
f=open( 'psi4out.xyz', 'w' )
f.write( "24  " )
f.write( str(ee) + "\n" )
f.write( MOL.save_string_xyz() )
f.close()
--------------------------------------------------------------------------

    Molecular point group: c1
  Charge       = 0
  Multiplicity = 1
  Basis Set: 6-31G*
  Basis Set:
  @DF-RHF Final Energy:  -349.24406018423412
    Total Energy =                       -349.2440601842341721
    Molecular point group: c1
  Basis Set: 6-31G*
  Basis Set:
  Basis Set: 6-31G*
  Basis Set:
  @DF-RHF Final Energy:  -349.24487541987691
    Total Energy =                       -349.2448754198772463
  Basis Set: 6-31G*
  Basis Set:
  Basis Set: 6-31G*
  Basis Set:
  @DF-RHF Final Energy:  -349.24494133819144
    Total Energy =                       -349.2449413381913814
  Basis Set: 6-31G*
  Basis Set:
  Basis Set: 6-31G*
  Basis Set:
  @DF-RHF Final Energy:  -349.24496097824903
    Total Energy =                       -349.2449609782488551
  Basis Set: 6-31G*
  Basis Set:
  Basis Set: 6-31G*
  Basis Set:
  @DF-RHF Final Energy:  -349.24496662043180
    Total Energy =                       -349.2449666204316827
  Basis Set: 6-31G*
  Basis Set:
  Basis Set: 6-31G*
  Basis Set:
  @DF-RHF Final Energy:  -349.24499299137545
    Total Energy =                       -349.2449929913755113
  Basis Set: 6-31G*
  Basis Set:
  Charge       = 0
  Multiplicity = 1
  Basis Set: 6-31G*
  Basis Set:

    Orbital Energies (a.u.)
    -----------------------

    Doubly Occupied:

       1A    -20.555290     2A    -11.268780     3A    -11.218617
       4A    -11.213553     5A    -11.211328     6A    -11.208572
       7A    -11.205614     8A    -11.203641     9A     -1.361524
      10A     -1.085261    11A     -1.046183    12A     -0.983830
      13A     -0.913638    14A     -0.852333    15A     -0.797532
      16A     -0.773218    17A     -0.680547    18A     -0.648772
      19A     -0.631792    20A     -0.609539    21A     -0.601890
      22A     -0.576281    23A     -0.550267    24A     -0.538467
      25A     -0.525386    26A     -0.509548    27A     -0.488744
      28A     -0.485530    29A     -0.468379    30A     -0.457296
      31A     -0.452725    32A     -0.437230    33A     -0.417661

  @DF-RHF Final Energy:  -349.24499349789306

   => Energetics <=

    Nuclear Repulsion Energy =            394.0460177186728856
    One-Electron Energy =               -1254.6240888827692288
    Two-Electron Energy =                 511.3330776662030530
    DFT Exchange-Correlation Energy =       0.0000000000000000
    Empirical Dispersion Energy =           0.0000000000000000
    PCM Polarization Energy =               0.0000000000000000
    EFP Energy =                            0.0000000000000000
    Total Energy =                       -349.2449934978933470
    Molecular point group: c1
  Basis Set: 6-31G*
  Basis Set:

  -Total Gradient:
     Atom            X                  Y                   Z
    ------   -----------------  -----------------  -----------------
       1       -0.000002993627     0.000006989200    -0.000015663728
       2        0.000005266166     0.000026765850    -0.000021222785
       3       -0.000001681575    -0.000746791378     0.000612363265
       4       -0.000176352264     0.001109186332    -0.001034020919
       5       -0.000002736207     0.000001252214     0.000023128418
       6       -0.000010580065    -0.000002204204    -0.000009263019
       7        0.000752878928    -0.000748963978     0.001511182622
       8       -0.000002127850    -0.000012319311     0.000013102275
       9       -0.000007438458     0.000009479633    -0.000002079279
      10       -0.000040329739    -0.000031955643    -0.000059798646
      11       -0.000564089143     0.000378658893    -0.001039985705
      12        0.000005035047     0.000002154435    -0.000005120974
      13       -0.000002605926     0.000023510963    -0.000008906268
      14        0.000040488980     0.000002864827     0.000022773019
      15        0.000014219582     0.000000571801    -0.000002997626
      16        0.000008974134    -0.000013164173     0.000008882441
      17       -0.000002544098     0.000001930642    -0.000012843748
      18        0.000002793664     0.000000338120     0.000002005135
      19       -0.000016211621     0.000000536482     0.000004559828
      20       -0.000000356659    -0.000011809516     0.000018932179
      21        0.000006921249     0.000001793617    -0.000003212510
      22        0.000004100371     0.000001537875    -0.000012269291
      23       -0.000001763969     0.000011164801     0.000004831831
      24       -0.000008866916    -0.000011527481     0.000005623484

  **** Optimization is complete! (in 7 steps) ****
    Final optimized geometry and variables:
    Molecular point group: c1

    Geometry (in Angstrom), charge = 0, multiplicity = 1:

    H           -2.541887898635     1.201344067404     0.501439043166
    O           -2.571327283290     0.255062154966     0.534018974976
    C           -2.203651680062    -0.176812170086     1.819720437666
    C           -0.765928978606     0.157353898023     2.206342834618
    H           -2.344124800171    -1.250565189146     1.818694277119
    H           -2.883898051642     0.236885966713     2.562473714197
    C            0.319842362648    -0.515285931439     1.352254165577
    H           -0.628607270990     1.238615652725     2.197929625324
    H           -0.641985461713    -0.150127184483     3.243011254567
    C            0.633958635765     0.193848342542     0.030730570234
    H            0.021239591400    -1.540345242919     1.140889546577
    H            1.233727527392    -0.576178504696     1.938766575525
    C            1.755593758176    -0.496762980867    -0.749797152095
    H           -0.266013883240     0.242406799721    -0.569142802277
    H            0.929578892825     1.221888788101     0.240839595203
    C            2.173461669338     0.221882745317    -2.037889413203
    H            1.452102504462    -1.514313971580    -0.991527688082
    H            2.628514997061    -0.585780643394    -0.105693319125
    C            1.097253858581     0.253034704274    -3.124665445610
    H            3.057124205419    -0.270647383295    -2.436655420224
    H            2.476263016584     1.239721730504    -1.799457294325
    H            0.772171291227    -0.751875799137    -3.380041578900
    H            1.476972556561     0.716920852057    -4.030065136840
    H            0.221792233445     0.813128181912    -2.813974515483

  Mulliken Charges: (a.u.)
   Center  Symbol    Alpha    Beta     Spin     Total
       1     H     0.28302  0.28302  0.00000  0.43396
       2     O     4.36727  4.36727  0.00000 -0.73455
       3     C     2.99527  2.99527  0.00000  0.00945
       4     C     3.17144  3.17144  0.00000 -0.34288
       5     H     0.41625  0.41625  0.00000  0.16750
       6     H     0.42868  0.42868  0.00000  0.14265
       7     C     3.15115  3.15115  0.00000 -0.30230
       8     H     0.42657  0.42657  0.00000  0.14687
       9     H     0.42030  0.42030  0.00000  0.15941
      10     C     3.15952  3.15952  0.00000 -0.31904
      11     H     0.42137  0.42137  0.00000  0.15725
      12     H     0.42205  0.42205  0.00000  0.15590
      13     C     3.15287  3.15287  0.00000 -0.30575
      14     H     0.40497  0.40497  0.00000  0.19005
      15     H     0.42985  0.42985  0.00000  0.14029
      16     C     3.15198  3.15198  0.00000 -0.30396
      17     H     0.42388  0.42388  0.00000  0.15224
      18     H     0.42444  0.42444  0.00000  0.15112
      19     C     3.24065  3.24065  0.00000 -0.48130
      20     H     0.42197  0.42197  0.00000  0.15605
      21     H     0.42480  0.42480  0.00000  0.15040
      22     H     0.42151  0.42151  0.00000  0.15698
      23     H     0.42071  0.42071  0.00000  0.15859
      24     H     0.41946  0.41946  0.00000  0.16107

   Total alpha = 33.00000, Total beta = 33.00000, Total charge = -0.00000
