  ==> Input File <==

--------------------------------------------------------------------------
set {
	reference rhf
	basis cc-pvtz
}

set_num_threads( 4 )
memory 2 gb

molecule MOL {
0 1

H	 -2.123894	 -0.667238	 -0.609809
O	 -2.041679	 -0.058866	 0.103463
C	 -0.959304	 0.780994	 -0.094939
C	 0.354905	 0.037902	 -0.006215
H	 -0.985899	 1.279578	 -1.057596
H	 -0.969809	 1.529522	 0.682889
F	 0.872841	 0.135599	 1.205391
F	 0.174976	 -1.241456	 -0.260118
F	 1.247587	 0.493905	 -0.851881

	symmetry c1
}
set optking {
	frozen_dihedral = ("
		7 4 3 5
	")
}

ee = optimize('scf')
oeprop('DIPOLE', 'QUADRUPOLE', 'MULLIKEN_CHARGES')
f=open( 'psi4out.xyz', 'w' )
f.write( "9  " )
f.write( str(ee) + "\n" )
f.write( MOL.save_string_xyz() )
f.close()
--------------------------------------------------------------------------

    Molecular point group: c1
  Charge       = 0
  Multiplicity = 1
  Basis Set: CC-PVTZ
  Basis Set:
  @DF-RHF Final Energy:  -450.84181202121368
    Total Energy =                       -450.8418120212137410
    Molecular point group: c1
  Basis Set: CC-PVTZ
  Basis Set:
  Basis Set: CC-PVTZ
  Basis Set:
  @DF-RHF Final Energy:  -450.84261270356325
    Total Energy =                       -450.8426127035631907
  Basis Set: CC-PVTZ
  Basis Set:
  Basis Set: CC-PVTZ
  Basis Set:
  @DF-RHF Final Energy:  -450.84300084133002
    Total Energy =                       -450.8430008413299674
  Basis Set: CC-PVTZ
  Basis Set:
  Basis Set: CC-PVTZ
  Basis Set:
  @DF-RHF Final Energy:  -450.84303457455576
    Total Energy =                       -450.8430345745558157
  Basis Set: CC-PVTZ
  Basis Set:
  Basis Set: CC-PVTZ
  Basis Set:
  @DF-RHF Final Energy:  -450.84303733916664
    Total Energy =                       -450.8430373391668695
  Basis Set: CC-PVTZ
  Basis Set:
  Charge       = 0
  Multiplicity = 1
  Basis Set: CC-PVTZ
  Basis Set:

    Orbital Energies (a.u.)
    -----------------------

    Doubly Occupied:

       1A    -26.342678     2A    -26.336647     3A    -26.336178
       4A    -20.583748     5A    -11.495649     6A    -11.309767
       7A     -1.748542     8A     -1.646964     9A     -1.641095
      10A     -1.407364    11A     -1.047510    12A     -0.930640
      13A     -0.837854    14A     -0.835656    15A     -0.815090
      16A     -0.729180    17A     -0.719954    18A     -0.704261
      19A     -0.672765    20A     -0.665807    21A     -0.648975
      22A     -0.632008    23A     -0.619819    24A     -0.530073
      25A     -0.484590

  @DF-RHF Final Energy:  -450.84303771422879

   => Energetics <=

    Nuclear Repulsion Energy =            276.9435744061690912
    One-Electron Energy =               -1176.1276003808723090
    Two-Electron Energy =                 448.3409882604745462
    DFT Exchange-Correlation Energy =       0.0000000000000000
    Empirical Dispersion Energy =           0.0000000000000000
    PCM Polarization Energy =               0.0000000000000000
    EFP Energy =                            0.0000000000000000
    Total Energy =                       -450.8430377142286716
    Molecular point group: c1
  Basis Set: CC-PVTZ
  Basis Set:

  -Total Gradient:
     Atom            X                  Y                   Z
    ------   -----------------  -----------------  -----------------
       1       -0.000023623823    -0.000005455008     0.000001853564
       2        0.000039114058     0.000006922511    -0.000012672091
       3       -0.002094301704    -0.004163724182    -0.003158793874
       4       -0.002634370721    -0.004294750687     0.002071551072
       5        0.002344494887     0.004442014408     0.002303240622
       6       -0.000007730358     0.000016916052    -0.000001194913
       7        0.002323702626     0.003885423239    -0.001192538587
       8       -0.000017269281     0.000065292200     0.000032831287
       9        0.000069984313     0.000047361468    -0.000044277076

  **** Optimization is complete! (in 6 steps) ****
    Final optimized geometry and variables:
    Molecular point group: c1

    Geometry (in Angstrom), charge = 0, multiplicity = 1:

    H           -2.134009451301    -0.691139684097    -0.553954612249
    O           -2.072045345404    -0.013955740747     0.096172604870
    C           -0.964665224469     0.781301317981    -0.126885698339
    C            0.355469333339     0.023635298605    -0.007206050444
    H           -0.970070772167     1.285750118089    -1.086013439760
    H           -0.959577651628     1.547077491555     0.634252707426
    F            0.866029973768     0.095414550622     1.202219457913
    F            0.225680050209    -1.247390426510    -0.319674630255
    F            1.253118364187     0.541689575357    -0.825465636930

  Mulliken Charges: (a.u.)
   Center  Symbol    Alpha    Beta     Spin     Total
       1     H     0.38605  0.38605  0.00000  0.22790
       2     O     4.18835  4.18835  0.00000 -0.37671
       3     C     3.00114  3.00114  0.00000 -0.00227
       4     C     2.67854  2.67854  0.00000  0.64292
       5     H     0.46236  0.46236  0.00000  0.07529
       6     H     0.44894  0.44894  0.00000  0.10212
       7     F     4.60894  4.60894  0.00000 -0.21788
       8     F     4.61251  4.61251  0.00000 -0.22502
       9     F     4.61317  4.61317  0.00000 -0.22634

   Total alpha = 25.00000, Total beta = 25.00000, Total charge = -0.00000
