  ==> Input File <==

--------------------------------------------------------------------------
set {
	reference rhf
	basis 6-31G*
}

set_num_threads( 1 )
memory 2 gb

molecule MOL {
0 1

H	 3.517848	 4.543983	 2.425841
C	 3.066922	 3.697531	 1.939047
C	 1.807537	 3.816860	 1.370841
C	 3.746701	 2.491066	 1.881818
H	 1.281422	 4.753095	 1.415926
C	 1.228388	 2.728049	 0.745094
H	 4.722864	 2.400451	 2.322841
C	 3.168924	 1.399809	 1.255954
H	 0.254702	 2.802074	 0.299977
C	 1.906856	 1.516169	 0.685509
H	 3.691364	 0.464287	 1.209328
C	 1.239129	 0.373821	 0.000060
O	 1.970282	 -0.730723	 0.000018
O	 0.159653	 0.436410	 -0.499613
C	 3.377318	 -0.566646	 -0.000065
H	 3.695437	 -0.028981	 -0.881264
H	 3.789299	 -1.563704	 0.000236
H	 3.695516	 -0.028316	 0.880770

	symmetry c1
}
set optking {
	frozen_dihedral = ("
		12 13 15 16,
		13 12 10 6
	")
}

ee = energy('scf')
oeprop('DIPOLE', 'QUADRUPOLE', 'MULLIKEN_CHARGES')
f=open( 'psi4out.xyz', 'w' )
f.write( "18  " )
f.write( str(ee) + "\n" )
f.write( MOL.save_string_xyz() )
f.close()
--------------------------------------------------------------------------

    Molecular point group: c1

    Geometry (in Angstrom), charge = 0, multiplicity = 1:

       Center              X                  Y                   Z               Mass
    ------------   -----------------  -----------------  -----------------  -----------------
           H          1.361247368279     3.116447343725     1.732859488559     1.007825032070
           C          0.910321368279     2.269995343725     1.246065488559    12.000000000000
           C         -0.349063631721     2.389324343725     0.677859488559    12.000000000000
           C          1.590100368279     1.063530343725     1.188836488559    12.000000000000
           H         -0.875178631721     3.325559343725     0.722944488559     1.007825032070
           C         -0.928212631721     1.300513343725     0.052112488559    12.000000000000
           H          2.566263368279     0.972915343725     1.629859488559     1.007825032070
           C          1.012323368279    -0.027726656275     0.562972488559    12.000000000000
           H         -1.901898631721     1.374538343725    -0.393004511441     1.007825032070
           C         -0.249744631721     0.088633343725    -0.007472511441    12.000000000000
           H          1.534763368279    -0.963248656275     0.516346488559     1.007825032070
           C         -0.917471631721    -1.053714656275    -0.692921511441    12.000000000000
           O         -0.186318631721    -2.158258656275    -0.692963511441    15.994914619560
           O         -1.996947631721    -0.991125656275    -1.192594511441    15.994914619560
           C          1.220717368279    -1.994181656275    -0.693046511441    12.000000000000
           H          1.538836368279    -1.456516656275    -1.574245511441     1.007825032070
           H          1.632698368279    -2.991239656275    -0.692745511441     1.007825032070
           H          1.538915368279    -1.455851656275     0.187788488559     1.007825032070

  Charge       = 0
  Multiplicity = 1
  Basis Set: 6-31G*
  Basis Set:

    Orbital Energies (a.u.)
    -----------------------

    Doubly Occupied:

       1A    -20.607574     2A    -20.546172     3A    -11.380406
       4A    -11.272665     5A    -11.255540     6A    -11.253293
       7A    -11.250325     8A    -11.246727     9A    -11.245993
      10A    -11.239427    11A     -1.471557    12A     -1.371052
      13A     -1.183378    14A     -1.096933    15A     -1.046243
      16A     -1.009276    17A     -0.894531    18A     -0.874617
      19A     -0.808737    20A     -0.750564    21A     -0.727855
      22A     -0.681674    23A     -0.668744    24A     -0.650875
      25A     -0.627905    26A     -0.618070    27A     -0.571360
      28A     -0.561653    29A     -0.552219    30A     -0.523265
      31A     -0.519005    32A     -0.474516    33A     -0.443309
      34A     -0.386891    35A     -0.353378    36A     -0.349726

  @DF-RHF Final Energy:  -457.07015713384988

   => Energetics <=

    Nuclear Repulsion Energy =            508.5539387205470803
    One-Electron Energy =               -1630.2173318056229618
    Two-Electron Energy =                 664.5932359512257790
    DFT Exchange-Correlation Energy =       0.0000000000000000
    Empirical Dispersion Energy =           0.0000000000000000
    PCM Polarization Energy =               0.0000000000000000
    EFP Energy =                            0.0000000000000000
    Total Energy =                       -457.0701571338499889

  Mulliken Charges: (a.u.)
   Center  Symbol    Alpha    Beta     Spin     Total
       1     H     0.39470  0.39470  0.00000  0.21060
       2     C     3.08985  3.08985  0.00000 -0.17971
       3     C     3.10519  3.10519  0.00000 -0.21037
       4     C     3.10639  3.10639  0.00000 -0.21278
       5     H     0.39282  0.39282  0.00000  0.21436
       6     C     3.08375  3.08375  0.00000 -0.16749
       7     H     0.39588  0.39588  0.00000  0.20823
       8     C     3.09866  3.09866  0.00000 -0.19733
       9     H     0.37252  0.37252  0.00000  0.25497
      10     C     3.08543  3.08543  0.00000 -0.17086
      11     H     0.38828  0.38828  0.00000  0.22344
      12     C     2.57373  2.57373  0.00000  0.85253
      13     O     4.30621  4.30621  0.00000 -0.61243
      14     O     4.27442  4.27442  0.00000 -0.54885
      15     C     3.09502  3.09502  0.00000 -0.19004
      16     H     0.40678  0.40678  0.00000  0.18643
      17     H     0.40295  0.40295  0.00000  0.19411
      18     H     0.42741  0.42741  0.00000  0.14518

   Total alpha = 36.00000, Total beta = 36.00000, Total charge = -0.00000
