  ==> Input File <==

--------------------------------------------------------------------------
set {
	reference rhf
	basis 6-31G*
}

set_num_threads( 4 )
memory 2 gb

molecule MOL {
0 1

O	 2.210360	 -0.342928	 -0.112736
C	 1.122059	 0.121804	 -0.000188
C	 -0.170150	 -0.657997	 -0.000612
O	 0.898750	 1.421931	 0.143955
C	 -1.412532	 0.227344	 -0.000452
H	 -0.153702	 -1.313099	 -0.867402
H	 -0.153924	 -1.313811	 0.865644
C	 -2.706999	 -0.587347	 -0.000541
H	 -1.388000	 0.879466	 -0.868000
H	 -1.387972	 0.879138	 0.867341
C	 -3.956778	 0.291888	 0.000910
H	 -2.726114	 -1.239230	 -0.871609
H	 -2.725217	 -1.240844	 0.869333
H	 -3.985213	 0.933254	 -0.875158
H	 -4.860123	 -0.309979	 0.000519
H	 -3.984618	 0.931166	 0.878514
C	 2.032125	 2.270643	 0.160998
H	 2.685554	 2.015581	 0.982861
H	 1.649322	 3.271734	 0.284405
H	 2.580464	 2.191054	 -0.766632

	symmetry c1
}
set optking {
	frozen_dihedral = ("
		1 2 3 6
	")
}

ee = optimize('scf')
oeprop('DIPOLE', 'QUADRUPOLE', 'MULLIKEN_CHARGES')
f=open( 'psi4out.xyz', 'w' )
f.write( "20  " )
f.write( str(ee) + "\n" )
f.write( MOL.save_string_xyz() )
f.close()
--------------------------------------------------------------------------

    Molecular point group: c1
  Charge       = 0
  Multiplicity = 1
  Basis Set: 6-31G*
  Basis Set:
  @DF-RHF Final Energy:  -383.93755383238795
    Total Energy =                       -383.9375538323878345
    Molecular point group: c1
  Basis Set: 6-31G*
  Basis Set:
  Basis Set: 6-31G*
  Basis Set:
  @DF-RHF Final Energy:  -383.93836664908832
    Total Energy =                       -383.9383666490880387
  Basis Set: 6-31G*
  Basis Set:
  Basis Set: 6-31G*
  Basis Set:
  @DF-RHF Final Energy:  -383.93891505441752
    Total Energy =                       -383.9389150544169524
  Basis Set: 6-31G*
  Basis Set:
  Basis Set: 6-31G*
  Basis Set:
  @DF-RHF Final Energy:  -383.93893739683756
    Total Energy =                       -383.9389373968374457
  Basis Set: 6-31G*
  Basis Set:
  Basis Set: 6-31G*
  Basis Set:
  @DF-RHF Final Energy:  -383.93896058670020
    Total Energy =                       -383.9389605866999773
  Basis Set: 6-31G*
  Basis Set:
  Basis Set: 6-31G*
  Basis Set:
  @DF-RHF Final Energy:  -383.93898029982682
    Total Energy =                       -383.9389802998269943
  Basis Set: 6-31G*
  Basis Set:
  Charge       = 0
  Multiplicity = 1
  Basis Set: 6-31G*
  Basis Set:

    Orbital Energies (a.u.)
    -----------------------

    Doubly Occupied:

       1A    -20.606780     2A    -20.540193     3A    -11.372618
       4A    -11.281747     5A    -11.235968     6A    -11.223426
       7A    -11.222360     8A    -11.213321     9A     -1.470419
      10A     -1.360872    11A     -1.091232    12A     -1.023673
      13A     -0.966998    14A     -0.892410    15A     -0.805964
      16A     -0.775023    17A     -0.693030    18A     -0.684468
      19A     -0.670187    20A     -0.647541    21A     -0.593675
      22A     -0.592150    23A     -0.581116    24A     -0.541745
      25A     -0.531606    26A     -0.522832    27A     -0.502753
      28A     -0.494768    29A     -0.479004    30A     -0.474995
      31A     -0.451418    32A     -0.427423

  @DF-RHF Final Energy:  -383.93898031561042

   => Energetics <=

    Nuclear Repulsion Energy =            383.6721308426686505
    One-Electron Energy =               -1283.2787908358623099
    Two-Electron Energy =                 515.6676796775832372
    DFT Exchange-Correlation Energy =       0.0000000000000000
    Empirical Dispersion Energy =           0.0000000000000000
    PCM Polarization Energy =               0.0000000000000000
    EFP Energy =                            0.0000000000000000
    Total Energy =                       -383.9389803156104790
    Molecular point group: c1
  Basis Set: 6-31G*
  Basis Set:

  -Total Gradient:
     Atom            X                  Y                   Z
    ------   -----------------  -----------------  -----------------
       1       -0.000011272384    -0.000002999847     0.000280688998
       2       -0.000011999062     0.000021630552    -0.000422973948
       3        0.000141666371    -0.000237779866     0.000304614814
       4        0.000014328392     0.000036208582     0.000000812984
       5       -0.000002536184     0.000004727045    -0.000003690253
       6       -0.000109951352     0.000196809837    -0.000155746534
       7        0.000002819411     0.000000861982     0.000002132136
       8       -0.000002489573    -0.000003967511    -0.000003447801
       9        0.000002556517    -0.000005718801    -0.000001861748
      10       -0.000006566331     0.000006181976    -0.000002876019
      11        0.000002481847     0.000001278922     0.000007683771
      12       -0.000003679535     0.000004731134    -0.000003533389
      13        0.000004255654    -0.000003479596    -0.000002468691
      14        0.000000736032    -0.000002190683    -0.000000077544
      15        0.000001986192    -0.000001073132     0.000002576628
      16       -0.000000890933     0.000002285210     0.000000080385
      17       -0.000027395265    -0.000016907946    -0.000001935197
      18        0.000001005494    -0.000002776212     0.000002232662
      19        0.000003824465     0.000003614380     0.000000109508
      20        0.000001120231    -0.000001436023    -0.000002320762

  **** Optimization is complete! (in 7 steps) ****
    Final optimized geometry and variables:
    Molecular point group: c1

    Geometry (in Angstrom), charge = 0, multiplicity = 1:

    O            2.394606181547    -0.738899312245    -0.126374641946
    C            1.337513240277    -0.202624862230    -0.023738326368
    C            0.024732871748    -0.955593574609    -0.021098307699
    O            1.202447089496     1.107133949367     0.112491254541
    C           -1.253531213482    -0.118712913289    -0.020251211470
    H            0.055649037882    -1.613202683307    -0.884115203967
    H            0.056327944993    -1.607547291687     0.847725521701
    C           -2.509400827616    -0.992466451670    -0.033109876340
    H           -1.259472324824     0.538677972822    -0.884774074997
    H           -1.267258612425     0.526166704987     0.852622740289
    C           -3.798836370230    -0.172541651195    -0.029399517378
    H           -2.494282585907    -1.636851494435    -0.909560011331
    H           -2.499881219360    -1.653323914623     0.831171212448
    H           -3.854611738468     0.473864253429    -0.900549425565
    H           -4.672905071684    -0.815986129081    -0.038248898407
    H           -3.860095322119     0.457352647716     0.853388155691
    C            2.392482235269     1.875476836399     0.131059063443
    H            3.021156353161     1.579757001783     0.958322876435
    H            2.078892445062     2.901318641513     0.245833127495
    H            2.938409199409     1.750396709967    -0.792695934279

  Mulliken Charges: (a.u.)
   Center  Symbol    Alpha    Beta     Spin     Total
       1     O     4.28930  4.28930  0.00000 -0.57859
       2     C     2.60409  2.60409  0.00000  0.79182
       3     C     3.21228  3.21228  0.00000 -0.42455
       4     O     4.30441  4.30441  0.00000 -0.60882
       5     C     3.14986  3.14986  0.00000 -0.29971
       6     H     0.39796  0.39796  0.00000  0.20407
       7     H     0.39849  0.39849  0.00000  0.20302
       8     C     3.15479  3.15479  0.00000 -0.30957
       9     H     0.41565  0.41565  0.00000  0.16871
      10     H     0.41360  0.41360  0.00000  0.17280
      11     C     3.23934  3.23934  0.00000 -0.47867
      12     H     0.42172  0.42172  0.00000  0.15657
      13     H     0.42196  0.42196  0.00000  0.15609
      14     H     0.42057  0.42057  0.00000  0.15887
      15     H     0.41787  0.41787  0.00000  0.16426
      16     H     0.42056  0.42056  0.00000  0.15889
      17     C     3.09278  3.09278  0.00000 -0.18557
      18     H     0.40818  0.40818  0.00000  0.18364
      19     H     0.40855  0.40855  0.00000  0.18291
      20     H     0.40808  0.40808  0.00000  0.18384

   Total alpha = 32.00000, Total beta = 32.00000, Total charge = -0.00000
