  ==> Input File <==

--------------------------------------------------------------------------
set {
	reference rhf
	basis 6-31G*
}

set_num_threads( 4 )
memory 2 gb

molecule MOL {
0 1

O	 -1.487788	 1.240889	 -0.102860
C	 -1.083277	 0.139568	 0.115197
C	 0.323299	 -0.082943	 0.642902
C	 -1.933017	 -1.084621	 -0.143902
C	 1.355627	 -0.005344	 -0.493127
H	 0.396251	 -1.044647	 1.143147
H	 0.528637	 0.693580	 1.371677
C	 1.643201	 -1.372140	 -1.111526
H	 1.000691	 0.672785	 -1.266065
H	 2.271389	 0.422740	 -0.099092
H	 2.378262	 -1.291704	 -1.905822
H	 0.743951	 -1.810347	 -1.534788
H	 2.031184	 -2.062746	 -0.368843
H	 -1.393885	 -1.806447	 -0.750509
H	 -2.850323	 -0.799888	 -0.640100
H	 -2.169004	 -1.571158	 0.798858

	symmetry c1
}
set optking {
	frozen_dihedral = ("
		9 5 3 2
	")
}

ee = optimize('scf')
oeprop('DIPOLE', 'QUADRUPOLE', 'MULLIKEN_CHARGES')
f=open( 'psi4out.xyz', 'w' )
f.write( "16  " )
f.write( str(ee) + "\n" )
f.write( MOL.save_string_xyz() )
f.close()
--------------------------------------------------------------------------

    Molecular point group: c1
  Charge       = 0
  Multiplicity = 1
  Basis Set: 6-31G*
  Basis Set:
  @DF-RHF Final Energy:  -270.02576219264665
    Total Energy =                       -270.0257621926468232
    Molecular point group: c1
  Basis Set: 6-31G*
  Basis Set:
  Basis Set: 6-31G*
  Basis Set:
  @DF-RHF Final Energy:  -270.02642455887997
    Total Energy =                       -270.0264245588798531
  Basis Set: 6-31G*
  Basis Set:
  Basis Set: 6-31G*
  Basis Set:
  @DF-RHF Final Energy:  -270.02457587772346
    Total Energy =                       -270.0245758777234641
  Basis Set: 6-31G*
  Basis Set:
  Basis Set: 6-31G*
  Basis Set:
  @DF-RHF Final Energy:  -270.02689719399928
    Total Energy =                       -270.0268971939992184
  Basis Set: 6-31G*
  Basis Set:
  @DF-RHF Final Energy:  -270.02745837945304
    Total Energy =                       -270.0274583794528098
  @DF-RHF Final Energy:  -270.02846399431030
    Total Energy =                       -270.0284639943104708
  @DF-RHF Final Energy:  -270.02871558672268
    Total Energy =                       -270.0287155867226829
  @DF-RHF Final Energy:  -270.02897343014592
    Total Energy =                       -270.0289734301461522
  @DF-RHF Final Energy:  -270.02916730579250
    Total Energy =                       -270.0291673057926118
  @DF-RHF Final Energy:  -270.02926103126049
    Total Energy =                       -270.0292610312603756
  @DF-RHF Final Energy:  -270.02950532398415
    Total Energy =                       -270.0295053239839831
  @DF-RHF Final Energy:  -270.03003022199971
    Total Energy =                       -270.0300302219996524
  @DF-RHF Final Energy:  -270.03008348383480
    Total Energy =                       -270.0300834838348578
  @DF-RHF Final Energy:  -270.03021011915166
    Total Energy =                       -270.0302101191517750
  Basis Set: 6-31G*
  Basis Set:
  @DF-RHF Final Energy:  -270.03024543382833
    Total Energy =                       -270.0302454338284406
  Basis Set: 6-31G*
  Basis Set:
  Basis Set: 6-31G*
  Basis Set:
  @DF-RHF Final Energy:  -270.03024960392014
    Total Energy =                       -270.0302496039202538
  Basis Set: 6-31G*
  Basis Set:
  Basis Set: 6-31G*
  Basis Set:
  @DF-RHF Final Energy:  -270.03025115494563
    Total Energy =                       -270.0302511549454039
  Basis Set: 6-31G*
  Basis Set:
  Charge       = 0
  Multiplicity = 1
  Basis Set: 6-31G*
  Basis Set:

    Orbital Energies (a.u.)
    -----------------------

    Doubly Occupied:

       1A    -20.551819     2A    -11.328051     3A    -11.232560
       4A    -11.229282     5A    -11.218382     6A    -11.209415
       7A     -1.397371     8A     -1.075184     9A     -1.015381
      10A     -0.944808    11A     -0.825544    12A     -0.728986
      13A     -0.665094    14A     -0.637271    15A     -0.622619
      16A     -0.593714    17A     -0.581386    18A     -0.554479
      19A     -0.547338    20A     -0.500984    21A     -0.486238
      22A     -0.479980    23A     -0.473197    24A     -0.402686

  @DF-RHF Final Energy:  -270.03025173260448

   => Energetics <=

    Nuclear Repulsion Energy =            239.8169991762561608
    One-Electron Energy =                -841.0909658135036580
    Two-Electron Energy =                 331.2437149046430704
    DFT Exchange-Correlation Energy =       0.0000000000000000
    Empirical Dispersion Energy =           0.0000000000000000
    PCM Polarization Energy =               0.0000000000000000
    EFP Energy =                            0.0000000000000000
    Total Energy =                       -270.0302517326043699
    Molecular point group: c1
  Basis Set: 6-31G*
  Basis Set:

  -Total Gradient:
     Atom            X                  Y                   Z
    ------   -----------------  -----------------  -----------------
       1       -0.000049474732    -0.000017896026     0.000013354842
       2       -0.000187188808     0.002518867750     0.001243411113
       3        0.000165579724    -0.004108488264    -0.002466326271
       4       -0.000002228982     0.000101519094     0.000058738238
       5        0.000976316070     0.004017137052     0.004096378136
       6       -0.000010022873    -0.000011835072    -0.000007801792
       7       -0.000021912868    -0.000000208168     0.000002838580
       8        0.000001552696    -0.000005680291     0.000010948208
       9       -0.000870328341    -0.002420497365    -0.002895426425
      10        0.000014415019    -0.000005535473     0.000018998115
      11       -0.000006960452    -0.000004129597    -0.000013707425
      12        0.000006605422    -0.000005521601    -0.000004580281
      13       -0.000004388848     0.000002749463     0.000000350953
      14        0.000005676431    -0.000009771442    -0.000035646396
      15       -0.000018565406    -0.000021318557    -0.000008110088
      16        0.000000925949    -0.000029391505    -0.000013419506

  **** Optimization is complete! (in 18 steps) ****
    Final optimized geometry and variables:
    Molecular point group: c1

    Geometry (in Angstrom), charge = 0, multiplicity = 1:

    O           -1.032632741268     0.751983563580    -0.896825806392
    C           -0.950923203113     0.135532701966     0.120931858110
    C            0.370232896683    -0.090585542804     0.838968086422
    C           -2.176566506637    -0.467309536681     0.775750966353
    C            1.603608821060     0.396007254238     0.072015011855
    H            0.451125378995    -1.144574623948     1.096376581398
    H            0.283312856241     0.430616319083     1.791812858179
    C            2.192472117585    -0.682533012708    -0.839548128382
    H            1.318919342016     1.240020189623    -0.542983697362
    H            2.359497200813     0.730999441759     0.774950166042
    H            3.047825115635    -0.302918858825    -1.389335757682
    H            1.458162646831    -1.018647005170    -1.565264143123
    H            2.522349503911    -1.547199313276    -0.269663800280
    H           -2.134927697732    -1.550418797054     0.697792126620
    H           -3.068895464629    -0.110708084736     0.280319028039
    H           -2.217838810784    -0.221084531385     1.832060273012

  Mulliken Charges: (a.u.)
   Center  Symbol    Alpha    Beta     Spin     Total
       1     O     4.26160  4.26160  0.00000 -0.52320
       2     C     2.73692  2.73692  0.00000  0.52617
       3     C     3.21153  3.21153  0.00000 -0.42306
       4     C     3.28707  3.28707  0.00000 -0.57413
       5     C     3.15510  3.15510  0.00000 -0.31021
       6     H     0.40980  0.40980  0.00000  0.18039
       7     H     0.40636  0.40636  0.00000  0.18728
       8     C     3.24250  3.24250  0.00000 -0.48500
       9     H     0.39893  0.39893  0.00000  0.20214
      10     H     0.41968  0.41968  0.00000  0.16064
      11     H     0.41742  0.41742  0.00000  0.16515
      12     H     0.41516  0.41516  0.00000  0.16968
      13     H     0.42490  0.42490  0.00000  0.15019
      14     H     0.40639  0.40639  0.00000  0.18722
      15     H     0.39640  0.39640  0.00000  0.20720
      16     H     0.41023  0.41023  0.00000  0.17953

   Total alpha = 24.00000, Total beta = 24.00000, Total charge = -0.00000
