  ==> Input File <==

--------------------------------------------------------------------------
set {
	reference rhf
	basis cc-pvtz
}

set_num_threads( 4 )
memory 2 gb

molecule MOL {
0 1

H	 -1.838229	 0.067641	 1.061714
C	 -1.045921	 -0.484969	 0.604108
C	 -1.039342	 -1.865069	 0.600278
C	 0.000000	 0.179985	 0.000046
H	 -1.843553	 -2.400822	 1.064744
C	 -0.000002	 -2.552036	 -0.000013
N	 0.000000	 1.644631	 0.000076
C	 1.045922	 -0.484944	 -0.604042
H	 -0.000000	 -3.625035	 -0.000032
C	 1.039341	 -1.865044	 -0.600272
O	 1.050559	 2.194174	 -0.000073
O	 -1.050559	 2.194174	 -0.000074
H	 1.838225	 0.067684	 -1.061633
H	 1.843554	 -2.400779	 -1.064756

	symmetry c1
}
set optking {
	frozen_dihedral = ("
		2 4 7 11
	")
}

ee = optimize('scf')
oeprop('DIPOLE', 'QUADRUPOLE', 'MULLIKEN_CHARGES')
f=open( 'psi4out.xyz', 'w' )
f.write( "14  " )
f.write( str(ee) + "\n" )
f.write( MOL.save_string_xyz() )
f.close()
--------------------------------------------------------------------------

    Molecular point group: c1
  Charge       = 0
  Multiplicity = 1
  Basis Set: CC-PVTZ
  Basis Set:
  @DF-RHF Final Energy:  -434.32830169970509
    Total Energy =                       -434.3283016997052073
    Molecular point group: c1
  Basis Set: CC-PVTZ
  Basis Set:
  Basis Set: CC-PVTZ
  Basis Set:
  @DF-RHF Final Energy:  -434.32085950850637
    Total Energy =                       -434.3208595085060324
  Basis Set: CC-PVTZ
  Basis Set:
  Basis Set: CC-PVTZ
  Basis Set:
  @DF-RHF Final Energy:  -434.32830009378438
    Total Energy =                       -434.3283000937842644
  Basis Set: CC-PVTZ
  Basis Set:
  Basis Set: CC-PVTZ
  Basis Set:
  @DF-RHF Final Energy:  -434.32850324679885
    Total Energy =                       -434.3285032467989595
  Basis Set: CC-PVTZ
  Basis Set:
  Basis Set: CC-PVTZ
  Basis Set:
  @DF-RHF Final Energy:  -434.32850430411474
    Total Energy =                       -434.3285043041142899
  Basis Set: CC-PVTZ
  Basis Set:
  Charge       = 0
  Multiplicity = 1
  Basis Set: CC-PVTZ
  Basis Set:

    Orbital Energies (a.u.)
    -----------------------

    Doubly Occupied:

       1A    -20.593115     2A    -20.592909     3A    -15.847503
       4A    -11.303396     5A    -11.267713     6A    -11.267575
       7A    -11.263783     8A    -11.258892     9A    -11.258713
      10A     -1.641642    11A     -1.424352    12A     -1.205311
      13A     -1.096329    14A     -1.055735    15A     -0.959544
      16A     -0.869320    17A     -0.829361    18A     -0.788216
      19A     -0.740457    20A     -0.735520    21A     -0.713512
      22A     -0.657971    23A     -0.651735    24A     -0.626412
      25A     -0.557214    26A     -0.543800    27A     -0.532147
      28A     -0.494459    29A     -0.490832    30A     -0.456957
      31A     -0.376202    32A     -0.369833

  @DF-RHF Final Energy:  -434.32850623418773

   => Energetics <=

    Nuclear Repulsion Energy =            418.1744676756805461
    One-Electron Energy =               -1420.0650198924683991
    Two-Electron Energy =                 567.5620459825997841
    DFT Exchange-Correlation Energy =       0.0000000000000000
    Empirical Dispersion Energy =           0.0000000000000000
    PCM Polarization Energy =               0.0000000000000000
    EFP Energy =                            0.0000000000000000
    Total Energy =                       -434.3285062341881257
    Molecular point group: c1
  Basis Set: CC-PVTZ
  Basis Set:

  -Total Gradient:
     Atom            X                  Y                   Z
    ------   -----------------  -----------------  -----------------
       1        0.000000744902    -0.000003498378    -0.000002029520
       2        0.001487600677    -0.000067559315     0.002517779538
       3       -0.000016774073     0.000019646455    -0.000004091182
       4       -0.002116686822     0.000052215378    -0.002383568087
       5        0.000000963902    -0.000000044309     0.000002246138
       6        0.000019572818    -0.000001985567    -0.000015798241
       7        0.000589498242     0.000045441223    -0.003472719806
       8       -0.000023345439     0.000021268626    -0.000009395175
       9       -0.000001418578     0.000000849972     0.000000835575
      10       -0.000002628499    -0.000021306257     0.000022208471
      11        0.000072838081    -0.000053611535     0.003348403684
      12       -0.000014344692     0.000006540573    -0.000001112066
      13        0.000002951212    -0.000001368033    -0.000000030801
      14        0.000001028263     0.000003411173    -0.000002728528

  **** Optimization is complete! (in 6 steps) ****
    Final optimized geometry and variables:
    Molecular point group: c1

    Geometry (in Angstrom), charge = 0, multiplicity = 1:

    H           -1.851215452149     0.073980073082     1.034650098432
    C           -1.053331810167    -0.480722592427     0.587455223468
    C           -1.037247575017    -1.861057932087     0.601407880990
    C           -0.010843035192     0.180060729660    -0.023483859659
    H           -1.834261797140    -2.396547712977     1.078439079389
    C            0.002130689247    -2.548330924797     0.001874161003
    N            0.000187563783     1.642035375520    -0.002696773308
    C            1.046661553750    -0.482094605891    -0.607043300440
    H            0.006018696096    -3.621192793455     0.009719610343
    C            1.038952984102    -1.862227187919    -0.604149028214
    O            1.056671777810     2.180344495326    -0.011066170989
    O           -1.047300664217     2.195705414979     0.046030229301
    H            1.847370056442     0.071784380352    -1.050284220898
    H            1.843608043891    -2.398921316441    -1.066786405593

  Mulliken Charges: (a.u.)
   Center  Symbol    Alpha    Beta     Spin     Total
       1     H     0.40270  0.40270  0.00000  0.19460
       2     C     3.08222  3.08222  0.00000 -0.16444
       3     C     3.07142  3.07142  0.00000 -0.14284
       4     C     2.95899  2.95899  0.00000  0.08201
       5     H     0.41699  0.41699  0.00000  0.16602
       6     C     3.06635  3.06635  0.00000 -0.13269
       7     N     3.26433  3.26433  0.00000  0.47133
       8     C     3.08078  3.08078  0.00000 -0.16155
       9     H     0.41723  0.41723  0.00000  0.16555
      10     C     3.07115  3.07115  0.00000 -0.14231
      11     O     4.17307  4.17307  0.00000 -0.34613
      12     O     4.17414  4.17414  0.00000 -0.34828
      13     H     0.40360  0.40360  0.00000  0.19281
      14     H     0.41704  0.41704  0.00000  0.16592

   Total alpha = 32.00000, Total beta = 32.00000, Total charge = -0.00000
