  ==> Input File <==

--------------------------------------------------------------------------
set {
	reference rhf
	basis cc-pvtz
}

set_num_threads( 4 )
memory 2 gb

molecule MOL {
0 1

O	 -0.752674	 -1.277304	 -1.147351
C	 -0.569303	 -0.202354	 -0.651795
C	 -1.678288	 0.829625	 -0.649855
N	 0.622280	 0.144970	 -0.099307
H	 -1.378839	 1.731537	 -1.168730
H	 -2.525113	 0.393521	 -1.153038
H	 -1.963320	 1.100613	 0.359252
C	 1.664396	 -0.854993	 0.000772
C	 0.826579	 1.331040	 0.697721
H	 2.462727	 -0.615153	 -0.690869
H	 1.261798	 -1.821849	 -0.240651
H	 2.081615	 -0.891605	 1.003877
H	 1.838343	 1.687280	 0.552595
H	 0.158057	 2.124345	 0.410248
H	 0.691734	 1.135169	 1.759086

	symmetry c1
}
set optking {
	frozen_dihedral = ("
		2 4 8 10
	")
}

ee = optimize('scf')
oeprop('DIPOLE', 'QUADRUPOLE', 'MULLIKEN_CHARGES')
f=open( 'psi4out.xyz', 'w' )
f.write( "15  " )
f.write( str(ee) + "\n" )
f.write( MOL.save_string_xyz() )
f.close()
--------------------------------------------------------------------------

    Molecular point group: c1
  Charge       = 0
  Multiplicity = 1
  Basis Set: CC-PVTZ
  Basis Set:
  @DF-RHF Final Energy:  -286.13458120457375
    Total Energy =                       -286.1345812045741468
    Molecular point group: c1
  Basis Set: CC-PVTZ
  Basis Set:
  Basis Set: CC-PVTZ
  Basis Set:
  @DF-RHF Final Energy:  -286.13504425505437
    Total Energy =                       -286.1350442550542539
  Basis Set: CC-PVTZ
  Basis Set:
  Basis Set: CC-PVTZ
  Basis Set:
  @DF-RHF Final Energy:  -286.13513089672227
    Total Energy =                       -286.1351308967222167
  Basis Set: CC-PVTZ
  Basis Set:
  Basis Set: CC-PVTZ
  Basis Set:
  @DF-RHF Final Energy:  -286.13521243753314
    Total Energy =                       -286.1352124375331982
  Basis Set: CC-PVTZ
  Basis Set:
  @DF-RHF Final Energy:  -286.13529780694194
    Total Energy =                       -286.1352978069415940
  @DF-RHF Final Energy:  -286.13535371092746
    Total Energy =                       -286.1353537109275180
  @DF-RHF Final Energy:  -286.13539568154636
    Total Energy =                       -286.1353956815461288
  @DF-RHF Final Energy:  -286.13544853031226
    Total Energy =                       -286.1354485303121464
  @DF-RHF Final Energy:  -286.13546785709121
    Total Energy =                       -286.1354678570910437
  @DF-RHF Final Energy:  -286.13550776034822
    Total Energy =                       -286.1355077603479913
  @DF-RHF Final Energy:  -286.13554165897983
    Total Energy =                       -286.1355416589796050
  @DF-RHF Final Energy:  -286.13556883446381
    Total Energy =                       -286.1355688344638111
  @DF-RHF Final Energy:  -286.13559302903326
    Total Energy =                       -286.1355930290333163
  @DF-RHF Final Energy:  -286.13561075562870
    Total Energy =                       -286.1356107556287611
  Basis Set: CC-PVTZ
  Basis Set:
  @DF-RHF Final Energy:  -286.13561501272329
    Total Energy =                       -286.1356150127233491
  Basis Set: CC-PVTZ
  Basis Set:
  Basis Set: CC-PVTZ
  Basis Set:
  @DF-RHF Final Energy:  -286.13561342170988
    Total Energy =                       -286.1356134217101044
  Basis Set: CC-PVTZ
  Basis Set:
  Basis Set: CC-PVTZ
  Basis Set:
  @DF-RHF Final Energy:  -286.13561865375971
    Total Energy =                       -286.1356186537594795
  Basis Set: CC-PVTZ
  Basis Set:
  Charge       = 0
  Multiplicity = 1
  Basis Set: CC-PVTZ
  Basis Set:

    Orbital Energies (a.u.)
    -----------------------

    Doubly Occupied:

       1A    -20.502582     2A    -15.578802     3A    -11.335338
       4A    -11.264107     5A    -11.246427     6A    -11.226434
       7A     -1.386645     8A     -1.246617     9A     -1.015101
      10A     -0.973423    11A     -0.921509    12A     -0.739389
      13A     -0.683396    14A     -0.662179    15A     -0.653869
      16A     -0.590706    17A     -0.577969    18A     -0.566877
      19A     -0.561396    20A     -0.548747    21A     -0.530525
      22A     -0.507694    23A     -0.413025    24A     -0.369863

  @DF-RHF Final Energy:  -286.13561881789462

   => Energetics <=

    Nuclear Repulsion Energy =            252.8148437451019390
    One-Electron Energy =                -889.6956820101861467
    Two-Electron Energy =                 350.7452194471896405
    DFT Exchange-Correlation Energy =       0.0000000000000000
    Empirical Dispersion Energy =           0.0000000000000000
    PCM Polarization Energy =               0.0000000000000000
    EFP Energy =                            0.0000000000000000
    Total Energy =                       -286.1356188178945672
    Molecular point group: c1
  Basis Set: CC-PVTZ
  Basis Set:

  -Total Gradient:
     Atom            X                  Y                   Z
    ------   -----------------  -----------------  -----------------
       1        0.000007603305     0.000014441958     0.000010955197
       2       -0.000068227372    -0.000067095687     0.000062389061
       3        0.000003269690     0.000003972701    -0.000002142741
       4        0.000083916412     0.000088707111    -0.000091221558
       5       -0.000001952856    -0.000001340247     0.000001147607
       6        0.000000591417    -0.000000870617     0.000000287125
       7        0.000001046981    -0.000000215428     0.000002050086
       8       -0.000064779648    -0.000088925840    -0.000093536557
       9        0.000001440931     0.000001695820     0.000006203127
      10        0.000041177239     0.000051373991     0.000102879600
      11       -0.000002616891     0.000000144001     0.000000620319
      12       -0.000002583987     0.000000522909     0.000001424840
      13       -0.000000898560    -0.000002009670    -0.000000993350
      14       -0.000000270195    -0.000001110012    -0.000002913780
      15        0.000002283532     0.000000709009     0.000002851023

  **** Optimization is complete! (in 18 steps) ****
    Final optimized geometry and variables:
    Molecular point group: c1

    Geometry (in Angstrom), charge = 0, multiplicity = 1:

    O           -0.752000186504    -1.240784601195    -0.924975892866
    C           -0.594592293755    -0.196784132847    -0.358478327558
    C           -1.676426990909     0.862625603117    -0.415526153240
    N            0.526321131570     0.076626605349     0.355869201430
    H           -1.310407582123     1.780044945219    -0.859273956422
    H           -2.477942561651     0.470447855562    -1.018994819168
    H           -2.054282211389     1.093181838657     0.572727040349
    C            1.611248049436    -0.880707063563     0.373043795514
    C            0.830100195159     1.355422410279     0.950311881393
    H            2.467220473931    -0.503356011995    -0.179513785398
    H            1.285581946403    -1.802599896224    -0.072534098161
    H            1.923892809251    -1.066561689812     1.394531391312
    H            1.536360906392     1.919066409523     0.345808349530
    H           -0.053526496687     1.954027973446     1.086252489663
    H            1.276923487335     1.202809093315     1.925434132891

  Mulliken Charges: (a.u.)
   Center  Symbol    Alpha    Beta     Spin     Total
       1     O     4.22206  4.22206  0.00000 -0.44411
       2     C     2.84649  2.84649  0.00000  0.30703
       3     C     3.16045  3.16045  0.00000 -0.32091
       4     N     3.55926  3.55926  0.00000 -0.11853
       5     H     0.44947  0.44947  0.00000  0.10106
       6     H     0.42851  0.42851  0.00000  0.14298
       7     H     0.44932  0.44932  0.00000  0.10135
       8     C     3.10045  3.10045  0.00000 -0.20091
       9     C     3.09485  3.09485  0.00000 -0.18971
      10     H     0.45798  0.45798  0.00000  0.08405
      11     H     0.42513  0.42513  0.00000  0.14974
      12     H     0.45642  0.45642  0.00000  0.08716
      13     H     0.45402  0.45402  0.00000  0.09196
      14     H     0.44495  0.44495  0.00000  0.11010
      15     H     0.45063  0.45063  0.00000  0.09875

   Total alpha = 24.00000, Total beta = 24.00000, Total charge = -0.00000
