  ==> Input File <==

--------------------------------------------------------------------------
set {
	reference rhf
	basis 6-31G*
}

set_num_threads( 1 )
memory 2 gb

molecule MOL {
0 1

H	 -0.756394	 4.381235	 5.845212
C	 -1.421942	 3.533107	 5.717746
C	 -1.503242	 3.110247	 4.251542
H	 -1.047461	 2.722923	 6.336379
H	 -2.398214	 3.818217	 6.100375
C	 -2.439929	 1.919587	 4.035299
H	 -0.509558	 2.858085	 3.895720
H	 -1.847734	 3.952233	 3.653146
C	 -2.555732	 1.484829	 2.574189
H	 -2.100186	 1.077306	 4.627566
H	 -3.433259	 2.179232	 4.394358
C	 -1.309734	 0.809355	 2.020596
H	 -3.369566	 0.769296	 2.467148
H	 -2.819183	 2.326775	 1.937874
C	 -1.181045	 0.701995	 0.511084
O	 -0.468659	 0.361332	 2.740509
C	 -2.285934	 -0.139295	 -0.145128
H	 -0.209233	 0.269288	 0.305998
H	 -1.194903	 1.705788	 0.090498
C	 -3.651768	 0.085446	 0.506485
H	 -2.346596	 0.110469	 -1.202272
H	 -2.034737	 -1.195320	 -0.088721
C	 -4.759797	 -0.746382	 -0.137905
H	 -3.908762	 1.140117	 0.445781
H	 -3.588286	 -0.154158	 1.565709
H	 -4.868882	 -0.505166	 -1.191300
H	 -4.548009	 -1.809175	 -0.062213
H	 -5.715422	 -0.564821	 0.343442

	symmetry c1
}
set optking {
	frozen_dihedral = ("
		10 6 3 2,
		16 12 15 17
	")
}

ee = energy('scf')
oeprop('DIPOLE', 'QUADRUPOLE', 'MULLIKEN_CHARGES')
f=open( 'psi4out.xyz', 'w' )
f.write( "28  " )
f.write( str(ee) + "\n" )
f.write( MOL.save_string_xyz() )
f.close()
--------------------------------------------------------------------------

    Molecular point group: c1

    Geometry (in Angstrom), charge = 0, multiplicity = 1:

       Center              X                  Y                   Z               Mass
    ------------   -----------------  -----------------  -----------------  -----------------
           H          1.409615533030     3.268572847755     3.624696877890     1.007825032070
           C          0.744067533030     2.420444847755     3.497230877890    12.000000000000
           C          0.662767533030     1.997584847755     2.031026877890    12.000000000000
           H          1.118548533030     1.610260847755     4.115863877890     1.007825032070
           H         -0.232204466970     2.705554847755     3.879859877890     1.007825032070
           C         -0.273919466970     0.806924847755     1.814783877890    12.000000000000
           H          1.656451533030     1.745422847755     1.675204877890     1.007825032070
           H          0.318275533030     2.839570847755     1.432630877890     1.007825032070
           C         -0.389722466970     0.372166847755     0.353673877890    12.000000000000
           H          0.065823533030    -0.035356152245     2.407050877890     1.007825032070
           H         -1.267249466970     1.066569847755     2.173842877890     1.007825032070
           C          0.856275533030    -0.303307152245    -0.199919122110    12.000000000000
           H         -1.203556466970    -0.343366152245     0.246632877890     1.007825032070
           H         -0.653173466970     1.214112847755    -0.282641122110     1.007825032070
           C          0.984964533030    -0.410667152245    -1.709431122110    12.000000000000
           O          1.697350533030    -0.751330152245     0.519993877890    15.994914619560
           C         -0.119924466970    -1.251957152245    -2.365643122110    12.000000000000
           H          1.956776533030    -0.843374152245    -1.914517122110     1.007825032070
           H          0.971106533030     0.593125847755    -2.130017122110     1.007825032070
           C         -1.485758466970    -1.027216152245    -1.714030122110    12.000000000000
           H         -0.180586466970    -1.002193152245    -3.422787122110     1.007825032070
           H          0.131272533030    -2.307982152245    -2.309236122110     1.007825032070
           C         -2.593787466970    -1.859044152245    -2.358420122110    12.000000000000
           H         -1.742752466970     0.027454847755    -1.774734122110     1.007825032070
           H         -1.422276466970    -1.266820152245    -0.654806122110     1.007825032070
           H         -2.702872466970    -1.617828152245    -3.411815122110     1.007825032070
           H         -2.381999466970    -2.921837152245    -2.282728122110     1.007825032070
           H         -3.549412466970    -1.677483152245    -1.877073122110     1.007825032070

  Charge       = 0
  Multiplicity = 1
  Basis Set: 6-31G*
  Basis Set:

    Orbital Energies (a.u.)
    -----------------------

    Doubly Occupied:

       1A    -20.549458     2A    -11.321934     3A    -11.233021
       4A    -11.228987     5A    -11.224792     6A    -11.220873
       7A    -11.216545     8A    -11.213084     9A    -11.210127
      10A    -11.204161    11A     -1.394136    12A     -1.105331
      13A     -1.072960    14A     -1.016424    15A     -0.996522
      16A     -0.905143    17A     -0.887310    18A     -0.815323
      19A     -0.790560    20A     -0.726155    21A     -0.678428
      22A     -0.656135    23A     -0.630838    24A     -0.617151
      25A     -0.606989    26A     -0.586810    27A     -0.580420
      28A     -0.570030    29A     -0.557036    30A     -0.530207
      31A     -0.523452    32A     -0.518174    33A     -0.499812
      34A     -0.488165    35A     -0.478256    36A     -0.471851
      37A     -0.462397    38A     -0.461835    39A     -0.430370
      40A     -0.394361

  @DF-RHF Final Energy:  -426.12818927727517

   => Energetics <=

    Nuclear Repulsion Energy =            552.3410923487939499
    One-Electron Energy =               -1672.7874755063351131
    Two-Electron Energy =                 694.3181938802658806
    DFT Exchange-Correlation Energy =       0.0000000000000000
    Empirical Dispersion Energy =           0.0000000000000000
    PCM Polarization Energy =               0.0000000000000000
    EFP Energy =                            0.0000000000000000
    Total Energy =                       -426.1281892772753963

  Mulliken Charges: (a.u.)
   Center  Symbol    Alpha    Beta     Spin     Total
       1     H     0.41991  0.41991  0.00000  0.16018
       2     C     3.23996  3.23996  0.00000 -0.47991
       3     C     3.15615  3.15615  0.00000 -0.31230
       4     H     0.41876  0.41876  0.00000  0.16248
       5     H     0.42406  0.42406  0.00000  0.15188
       6     C     3.14473  3.14473  0.00000 -0.28946
       7     H     0.41140  0.41140  0.00000  0.17720
       8     H     0.42840  0.42840  0.00000  0.14321
       9     C     3.21948  3.21948  0.00000 -0.43895
      10     H     0.40842  0.40842  0.00000  0.18317
      11     H     0.42357  0.42357  0.00000  0.15287
      12     C     2.73577  2.73577  0.00000  0.52847
      13     H     0.39694  0.39694  0.00000  0.20613
      14     H     0.41211  0.41211  0.00000  0.17577
      15     C     3.20231  3.20231  0.00000 -0.40463
      16     O     4.26519  4.26519  0.00000 -0.53039
      17     C     3.15580  3.15580  0.00000 -0.31161
      18     H     0.39807  0.39807  0.00000  0.20385
      19     H     0.41167  0.41167  0.00000  0.17667
      20     C     3.16815  3.16815  0.00000 -0.33631
      21     H     0.41449  0.41449  0.00000  0.17101
      22     H     0.41234  0.41234  0.00000  0.17532
      23     C     3.23609  3.23609  0.00000 -0.47217
      24     H     0.41803  0.41803  0.00000  0.16395
      25     H     0.41910  0.41910  0.00000  0.16180
      26     H     0.42100  0.42100  0.00000  0.15799
      27     H     0.41964  0.41964  0.00000  0.16072
      28     H     0.41847  0.41847  0.00000  0.16306

   Total alpha = 40.00000, Total beta = 40.00000, Total charge =  0.00000
