  ==> Input File <==

--------------------------------------------------------------------------
set {
	reference rhf
	basis cc-pvtz
}

set_num_threads( 4 )
memory 2 gb

molecule MOL {
0 1

H	 -1.980681	 0.820346	 0.666562
N	 -1.851927	 0.161443	 -0.071573
C	 -0.561396	 -0.500007	 0.035200
H	 -1.924778	 0.664161	 -0.931400
C	 0.575129	 0.507849	 -0.048832
H	 -0.478089	 -1.200753	 -0.788956
H	 -0.456191	 -1.081816	 0.952176
C	 1.951750	 -0.141983	 0.035101
H	 0.478254	 1.061643	 -0.975981
H	 0.467676	 1.231891	 0.755499
H	 2.101550	 -0.848142	 -0.774949
H	 2.738260	 0.600794	 -0.026526
H	 2.078939	 -0.679792	 0.968824

	symmetry c1
}
set optking {
	frozen_dihedral = ("
		1 2 3 6
	")
}

ee = optimize('scf')
oeprop('DIPOLE', 'QUADRUPOLE', 'MULLIKEN_CHARGES')
f=open( 'psi4out.xyz', 'w' )
f.write( "13  " )
f.write( str(ee) + "\n" )
f.write( MOL.save_string_xyz() )
f.close()
--------------------------------------------------------------------------

    Molecular point group: c1
  Charge       = 0
  Multiplicity = 1
  Basis Set: CC-PVTZ
  Basis Set:
  @DF-RHF Final Energy:  -173.35060247258704
    Total Energy =                       -173.3506024725870418
    Molecular point group: c1
  Basis Set: CC-PVTZ
  Basis Set:
  Basis Set: CC-PVTZ
  Basis Set:
  @DF-RHF Final Energy:  -173.35233889699012
    Total Energy =                       -173.3523388969898633
  Basis Set: CC-PVTZ
  Basis Set:
  Basis Set: CC-PVTZ
  Basis Set:
  @DF-RHF Final Energy:  -173.35255117562699
    Total Energy =                       -173.3525511756269850
  Basis Set: CC-PVTZ
  Basis Set:
  Basis Set: CC-PVTZ
  Basis Set:
  @DF-RHF Final Energy:  -173.35255367367500
    Total Energy =                       -173.3525536736748904
  Basis Set: CC-PVTZ
  Basis Set:
  Charge       = 0
  Multiplicity = 1
  Basis Set: CC-PVTZ
  Basis Set:

    Orbital Energies (a.u.)
    -----------------------

    Doubly Occupied:

       1A    -15.526942     2A    -11.238545     3A    -11.213754
       4A    -11.209697     5A     -1.179166     6A     -1.037807
       7A     -0.899981     8A     -0.807217     9A     -0.678528
      10A     -0.608677    11A     -0.605835    12A     -0.562614
      13A     -0.521905    14A     -0.518110    15A     -0.486813
      16A     -0.471037    17A     -0.380617

  @DF-RHF Final Energy:  -173.35255387596823

   => Energetics <=

    Nuclear Repulsion Energy =            131.8345107951633963
    One-Electron Energy =                -494.4796381299424297
    Two-Electron Energy =                 189.2925734588106934
    DFT Exchange-Correlation Energy =       0.0000000000000000
    Empirical Dispersion Energy =           0.0000000000000000
    PCM Polarization Energy =               0.0000000000000000
    EFP Energy =                            0.0000000000000000
    Total Energy =                       -173.3525538759683400
    Molecular point group: c1
  Basis Set: CC-PVTZ
  Basis Set:

  -Total Gradient:
     Atom            X                  Y                   Z
    ------   -----------------  -----------------  -----------------
       1        0.000123243002     0.000254058658    -0.000211382383
       2       -0.000123317701    -0.000264840745     0.000194520779
       3       -0.000105158991    -0.000202948990     0.000182021469
       4        0.000007775701    -0.000002542039     0.000011724584
       5       -0.000050866605    -0.000026939577     0.000018695948
       6        0.000104490643     0.000232148598    -0.000192312722
       7        0.000006453422     0.000000307233     0.000009073079
       8        0.000012564350     0.000013157136    -0.000019685276
       9        0.000005443574    -0.000003839772     0.000013180769
      10       -0.000003921068     0.000002508908    -0.000002972467
      11        0.000001421291    -0.000001977536     0.000008819764
      12        0.000027843687    -0.000007142373    -0.000002420829
      13       -0.000005971303     0.000008050499    -0.000009262715

  **** Optimization is complete! (in 5 steps) ****
    Final optimized geometry and variables:
    Molecular point group: c1

    Geometry (in Angstrom), charge = 0, multiplicity = 1:

    H           -2.035830217547     0.775439219189     0.683769133873
    N           -1.898632369908     0.102706169481    -0.041476451195
    C           -0.571144886972    -0.481658918082     0.034174011284
    H           -2.030871906245     0.577502887705    -0.909949500053
    C            0.591271371724     0.505889469231    -0.034101004231
    H           -0.478201536380    -1.201143098335    -0.772903990957
    H           -0.507136207781    -1.049609736213     0.956756086577
    C            1.954025533984    -0.173626761366     0.049516591589
    H            0.521823453252     1.072213505539    -0.959515018985
    H            0.492739373960     1.226245662594     0.774297417526
    H            2.091450721740    -0.877304664681    -0.764823396307
    H            2.758619330344     0.550434283513    -0.001286939742
    H            2.061780284300    -0.721978471764     0.979489693334

  Mulliken Charges: (a.u.)
   Center  Symbol    Alpha    Beta     Spin     Total
       1     H     0.43242  0.43242  0.00000  0.13516
       2     N     3.68806  3.68806  0.00000 -0.37611
       3     C     3.02885  3.02885  0.00000 -0.05771
       4     H     0.43236  0.43236  0.00000  0.13528
       5     C     3.08112  3.08112  0.00000 -0.16223
       6     H     0.45397  0.45397  0.00000  0.09205
       7     H     0.45375  0.45375  0.00000  0.09251
       8     C     3.15212  3.15212  0.00000 -0.30424
       9     H     0.45976  0.45976  0.00000  0.08048
      10     H     0.45978  0.45978  0.00000  0.08043
      11     H     0.45494  0.45494  0.00000  0.09011
      12     H     0.44797  0.44797  0.00000  0.10406
      13     H     0.45489  0.45489  0.00000  0.09022

   Total alpha = 17.00000, Total beta = 17.00000, Total charge = -0.00000
