  ==> Input File <==

--------------------------------------------------------------------------
set {
	reference rhf
	basis 6-31G*
}

set_num_threads( 4 )
memory 2 gb

molecule MOL {
0 1

H	 2.733608	 -1.172823	 1.100570
O	 3.442541	 -1.129668	 0.475572
C	 3.207807	 -2.038079	 -0.570250
C	 2.097691	 -1.592518	 -1.515683
H	 4.142040	 -2.110881	 -1.112083
H	 2.986841	 -3.027996	 -0.172735
C	 0.718604	 -1.502685	 -0.857719
H	 2.367011	 -0.625408	 -1.932253
H	 2.057103	 -2.295476	 -2.346086
C	 -0.382755	 -1.105696	 -1.844749
H	 0.756299	 -0.780882	 -0.046581
H	 0.467520	 -2.464530	 -0.410336
C	 -1.798052	 -1.084181	 -1.255841
H	 -0.152468	 -0.127830	 -2.263786
H	 -0.367710	 -1.803698	 -2.679174
C	 -2.037799	 -0.007733	 -0.193645
H	 -2.504364	 -0.931843	 -2.069311
H	 -2.027645	 -2.062484	 -0.836261
C	 -3.489788	 0.042957	 0.286558
H	 -1.760270	 0.964399	 -0.598674
H	 -1.390334	 -0.176827	 0.663385
C	 -4.216917	 1.317354	 -0.141063
H	 -4.025645	 -0.823308	 -0.095450
H	 -3.513059	 -0.038752	 1.371301
H	 -4.239342	 1.411634	 -1.223113
H	 -5.243387	 1.322503	 0.212445
H	 -3.726170	 2.201406	 0.256408

	symmetry c1
}
set optking {
	frozen_dihedral = ("
		20 16 19 22
	")
}

ee = optimize('scf')
oeprop('DIPOLE', 'QUADRUPOLE', 'MULLIKEN_CHARGES')
f=open( 'psi4out.xyz', 'w' )
f.write( "27  " )
f.write( str(ee) + "\n" )
f.write( MOL.save_string_xyz() )
f.close()
--------------------------------------------------------------------------

    Molecular point group: c1
  Charge       = 0
  Multiplicity = 1
  Basis Set: 6-31G*
  Basis Set:
  @DF-RHF Final Energy:  -388.27604970891576
    Total Energy =                       -388.2760497089160481
    Molecular point group: c1
  Basis Set: 6-31G*
  Basis Set:
  Basis Set: 6-31G*
  Basis Set:
  @DF-RHF Final Energy:  -388.27629305102158
    Total Energy =                       -388.2762930510220940
  Basis Set: 6-31G*
  Basis Set:
  Basis Set: 6-31G*
  Basis Set:
  @DF-RHF Final Energy:  -388.27636870101503
    Total Energy =                       -388.2763687010146896
  Basis Set: 6-31G*
  Basis Set:
  Basis Set: 6-31G*
  Basis Set:
  @DF-RHF Final Energy:  -388.27630130741903
    Total Energy =                       -388.2763013074189757
  Basis Set: 6-31G*
  Basis Set:
  Basis Set: 6-31G*
  Basis Set:
  @DF-RHF Final Energy:  -388.27638035318597
    Total Energy =                       -388.2763803531868234
  Basis Set: 6-31G*
  Basis Set:
  Charge       = 0
  Multiplicity = 1
  Basis Set: 6-31G*
  Basis Set:

    Orbital Energies (a.u.)
    -----------------------

    Doubly Occupied:

       1A    -20.552329     2A    -11.267069     3A    -11.219848
       4A    -11.217091     5A    -11.216026     6A    -11.215779
       7A    -11.215228     8A    -11.214103     9A    -11.209578
      10A     -1.359083    11A     -1.094411    12A     -1.059925
      13A     -1.010638    14A     -0.947712    15A     -0.888789
      16A     -0.822410    17A     -0.800710    18A     -0.777401
      19A     -0.693764    20A     -0.647426    21A     -0.634445
      22A     -0.615290    23A     -0.600493    24A     -0.590526
      25A     -0.579492    26A     -0.554010    27A     -0.539823
      28A     -0.527403    29A     -0.509882    30A     -0.490398
      31A     -0.484727    32A     -0.476679    33A     -0.468890
      34A     -0.459655    35A     -0.449293    36A     -0.440140
      37A     -0.422738

  @DF-RHF Final Energy:  -388.27638045332930

   => Energetics <=

    Nuclear Repulsion Energy =            459.6882485907037221
    One-Electron Energy =               -1437.3828543902045567
    Two-Electron Energy =                 589.4182253461714254
    DFT Exchange-Correlation Energy =       0.0000000000000000
    Empirical Dispersion Energy =           0.0000000000000000
    PCM Polarization Energy =               0.0000000000000000
    EFP Energy =                            0.0000000000000000
    Total Energy =                       -388.2763804533293523
    Molecular point group: c1
  Basis Set: 6-31G*
  Basis Set:

  -Total Gradient:
     Atom            X                  Y                   Z
    ------   -----------------  -----------------  -----------------
       1        0.000006165528    -0.000001278336    -0.000000682912
       2        0.000002523996    -0.000000455221    -0.000002646400
       3       -0.000005956817    -0.000012161494     0.000006491990
       4       -0.000006259696    -0.000007621969    -0.000006574635
       5       -0.000001329910     0.000000658481     0.000000532218
       6        0.000002324316    -0.000001214897     0.000001935637
       7        0.000002731823     0.000011087799    -0.000006290649
       8       -0.000002044921     0.000000863107     0.000008426138
       9       -0.000001164570     0.000004392558    -0.000007700069
      10        0.000019581761    -0.000003947908    -0.000004871063
      11       -0.000001785748     0.000005411301    -0.000012161064
      12        0.000001311125     0.000010993996     0.000004437748
      13       -0.000007629452    -0.000000155969     0.000028812950
      14       -0.000001277761     0.000000720097     0.000004629401
      15        0.000019542948    -0.000000287876    -0.000003379689
      16        0.000798037865     0.000875765972     0.002404568286
      17        0.000002057483     0.000005152347     0.000008016117
      18       -0.000011269515    -0.000003619800     0.000000296724
      19       -0.000636225561    -0.000941783240    -0.001906564413
      20       -0.000544126400    -0.000532262029    -0.001623950941
      21       -0.000011888445     0.000001385452     0.000001634859
      22        0.000376051813     0.000588142338     0.001101677295
      23       -0.000003195588     0.000006856285    -0.000006121140
      24        0.000003886123     0.000002995744     0.000003686051
      25        0.000008297555    -0.000001291157     0.000003445083
      26       -0.000007206891    -0.000000490669    -0.000001517089
      27       -0.000001151078    -0.000007854910     0.000003869565

  **** Optimization is complete! (in 6 steps) ****
    Final optimized geometry and variables:
    Molecular point group: c1

    Geometry (in Angstrom), charge = 0, multiplicity = 1:

    H            2.970420897055    -0.393451927175     1.693088572240
    O            3.676810485007    -0.348337251621     1.065352417409
    C            3.437825784347    -1.253854824675     0.018008907870
    C            2.324782733892    -0.804999841034    -0.922411705615
    H            4.370162004362    -1.325588979210    -0.527188500252
    H            3.217761474917    -2.244739956593     0.413599498627
    C            0.948150732629    -0.715481987107    -0.259366048229
    H            2.593441976307     0.162843612523    -1.337691501242
    H            2.280571518469    -1.505958515251    -1.754306139611
    C           -0.156537011715    -0.315772491321    -1.241744078721
    H            0.989467020324     0.004638777038     0.553091644049
    H            0.697985898113    -1.678029658621     0.187007728681
    C           -1.569669330177    -0.298841823442    -0.648807877061
    H            0.071403120906     0.664225560362    -1.657298748524
    H           -0.142728917422    -1.010222741660    -2.079219483006
    C           -1.809192176412     0.772529034595     0.421356281721
    H           -2.279477800652    -0.141413995882    -1.458746221219
    H           -1.798658550797    -1.279348231282    -0.234162573754
    C           -3.280682497895     0.836333422658     0.889883596531
    H           -1.517470035110     1.735815551502     0.007968808267
    H           -1.159072881118     0.594224126046     1.271632681450
    C           -4.004477435594     2.107571338224     0.444064734437
    H           -3.821011633387    -0.031246187701     0.520075719028
    H           -3.326308778113     0.774157034194     1.973559157442
    H           -3.997984171791     2.204743179092    -0.638393279945
    H           -5.040336487432     2.106775502004     0.769689504376
    H           -3.527140237500     2.991659887318     0.856540382485

  Mulliken Charges: (a.u.)
   Center  Symbol    Alpha    Beta     Spin     Total
       1     H     0.27992  0.27992  0.00000  0.44015
       2     O     4.37093  4.37093  0.00000 -0.74186
       3     C     2.99741  2.99741  0.00000  0.00519
       4     C     3.16086  3.16086  0.00000 -0.32171
       5     H     0.41444  0.41444  0.00000  0.17112
       6     H     0.43204  0.43204  0.00000  0.13593
       7     C     3.16324  3.16324  0.00000 -0.32647
       8     H     0.41497  0.41497  0.00000  0.17007
       9     H     0.42433  0.42433  0.00000  0.15134
      10     C     3.15267  3.15267  0.00000 -0.30535
      11     H     0.42302  0.42302  0.00000  0.15396
      12     H     0.42541  0.42541  0.00000  0.14917
      13     C     3.15550  3.15550  0.00000 -0.31100
      14     H     0.42164  0.42164  0.00000  0.15673
      15     H     0.42151  0.42151  0.00000  0.15699
      16     C     3.15635  3.15635  0.00000 -0.31270
      17     H     0.42123  0.42123  0.00000  0.15755
      18     H     0.42385  0.42385  0.00000  0.15230
      19     C     3.15530  3.15530  0.00000 -0.31059
      20     H     0.42084  0.42084  0.00000  0.15833
      21     H     0.42065  0.42065  0.00000  0.15869
      22     C     3.23969  3.23969  0.00000 -0.47938
      23     H     0.42007  0.42007  0.00000  0.15985
      24     H     0.42059  0.42059  0.00000  0.15882
      25     H     0.42219  0.42219  0.00000  0.15562
      26     H     0.42034  0.42034  0.00000  0.15932
      27     H     0.42103  0.42103  0.00000  0.15793

   Total alpha = 37.00000, Total beta = 37.00000, Total charge =  0.00000
