  ==> Input File <==

--------------------------------------------------------------------------
set {
	reference rhf
	basis 6-31G*
}

set_num_threads( 4 )
memory 2 gb

molecule MOL {
0 1

H	 -3.162202	 -0.157112	 -0.141872
C	 -2.911645	 0.806882	 -0.580138
O	 -1.555431	 0.893627	 -0.877618
H	 -3.456789	 0.922421	 -1.506751
H	 -3.221450	 1.590587	 0.109975
C	 -0.719715	 0.768384	 0.229244
C	 0.719720	 0.768376	 -0.229267
H	 -0.876667	 1.599851	 0.917521
H	 -0.924858	 -0.155273	 0.766624
O	 1.392611	 -0.295398	 0.366430
H	 0.750534	 0.687200	 -1.313918
H	 1.185043	 1.714359	 0.050526
C	 2.706965	 -0.449871	 -0.062409
H	 2.756559	 -0.644779	 -1.131878
H	 3.305899	 0.433456	 0.155466
H	 3.125548	 -1.294566	 0.467107

	symmetry c1
}
set optking {
	frozen_dihedral = ("
		3 6 7 11
	")
}

ee = optimize('scf')
oeprop('DIPOLE', 'QUADRUPOLE', 'MULLIKEN_CHARGES')
f=open( 'psi4out.xyz', 'w' )
f.write( "16  " )
f.write( str(ee) + "\n" )
f.write( MOL.save_string_xyz() )
f.close()
--------------------------------------------------------------------------

    Molecular point group: c1
  Charge       = 0
  Multiplicity = 1
  Basis Set: 6-31G*
  Basis Set:
  @DF-RHF Final Energy:  -306.97387741982067
    Total Energy =                       -306.9738774198206102
    Molecular point group: c1
  Basis Set: 6-31G*
  Basis Set:
  Basis Set: 6-31G*
  Basis Set:
  @DF-RHF Final Energy:  -306.97451658593366
    Total Energy =                       -306.9745165859336566
  Basis Set: 6-31G*
  Basis Set:
  Basis Set: 6-31G*
  Basis Set:
  @DF-RHF Final Energy:  -306.97457025683036
    Total Energy =                       -306.9745702568303614
  Basis Set: 6-31G*
  Basis Set:
  Charge       = 0
  Multiplicity = 1
  Basis Set: 6-31G*
  Basis Set:

    Orbital Energies (a.u.)
    -----------------------

    Doubly Occupied:

       1A    -20.557600     2A    -20.557068     3A    -11.267623
       4A    -11.267013     5A    -11.265936     6A    -11.265714
       7A     -1.387583     8A     -1.375720     9A     -1.027446
      10A     -0.939931    11A     -0.885148    12A     -0.831577
      13A     -0.687065    14A     -0.676270    15A     -0.657418
      16A     -0.644115    17A     -0.625596    18A     -0.599345
      19A     -0.560971    20A     -0.525186    21A     -0.508029
      22A     -0.481453    23A     -0.466018    24A     -0.419991
      25A     -0.412610

  @DF-RHF Final Energy:  -306.97457650091701

   => Energetics <=

    Nuclear Repulsion Energy =            254.9498040773894161
    One-Electron Energy =                -924.0639136589011287
    Two-Electron Energy =                 362.1395330805947879
    DFT Exchange-Correlation Energy =       0.0000000000000000
    Empirical Dispersion Energy =           0.0000000000000000
    PCM Polarization Energy =               0.0000000000000000
    EFP Energy =                            0.0000000000000000
    Total Energy =                       -306.9745765009168963
    Molecular point group: c1
  Basis Set: 6-31G*
  Basis Set:

  -Total Gradient:
     Atom            X                  Y                   Z
    ------   -----------------  -----------------  -----------------
       1       -0.000010737761     0.000009779052     0.000003737191
       2       -0.000036385650    -0.000021086687    -0.000058840705
       3       -0.000003936991    -0.002125416759    -0.000060228367
       4       -0.000027608936     0.000005624639     0.000011916985
       5       -0.000000945368     0.000003500104     0.000000827000
       6       -0.000019255795     0.003420488252     0.000011945278
       7        0.000076259750    -0.003979312722     0.000201025437
       8        0.000013235221     0.000015029586     0.000011872093
       9        0.000035869031    -0.000014939455     0.000016697044
      10        0.000061446744     0.000002860151     0.000016680462
      11       -0.000123355327     0.002750919247    -0.000190567456
      12       -0.000007976840    -0.000021677934     0.000019869424
      13       -0.000029511631    -0.000054820675     0.000023973007
      14        0.000019372491     0.000004293160    -0.000000383827
      15        0.000012191160     0.000005006213    -0.000000590602
      16        0.000041339897    -0.000000246172    -0.000007932963

  **** Optimization is complete! (in 4 steps) ****
    Final optimized geometry and variables:
    Molecular point group: c1

    Geometry (in Angstrom), charge = 0, multiplicity = 1:

    H           -3.163204235268    -0.463854570345     0.140833546939
    C           -2.867039035930     0.456581885435    -0.358761678078
    O           -1.513228410671     0.447433406782    -0.681281762513
    H           -3.422432662592     0.548734129842    -1.281984652460
    H           -3.117738565240     1.295493096539     0.288220889137
    C           -0.666020488179     0.324732865121     0.422644930330
    C            0.780133409866     0.333018140129    -0.065067851218
    H           -0.850011609495     1.133232024312     1.127730863271
    H           -0.848315619312    -0.614356529912     0.938194575177
    O            1.464337429215    -0.729054190639     0.528214448521
    H            0.781355621322     0.252844771786    -1.148631963975
    H            1.269270731170     1.272793501129     0.187779297668
    C            2.805355424786    -0.813364800330     0.165153003227
    H            2.919013340016    -0.953654649158    -0.908027683244
    H            3.354171264643     0.080829351213     0.455678697350
    H            3.229560271131    -1.666110409537     0.677152082334

  Mulliken Charges: (a.u.)
   Center  Symbol    Alpha    Beta     Spin     Total
       1     H     0.42821  0.42821  0.00000  0.14358
       2     C     3.08036  3.08036  0.00000 -0.16072
       3     O     4.30822  4.30822  0.00000 -0.61644
       4     H     0.41160  0.41160  0.00000  0.17679
       5     H     0.42999  0.42999  0.00000  0.14002
       6     C     2.99959  2.99959  0.00000  0.00081
       7     C     2.99949  2.99949  0.00000  0.00101
       8     H     0.42850  0.42850  0.00000  0.14299
       9     H     0.41364  0.41364  0.00000  0.17271
      10     O     4.30768  4.30768  0.00000 -0.61537
      11     H     0.41338  0.41338  0.00000  0.17323
      12     H     0.42946  0.42946  0.00000  0.14108
      13     C     3.08047  3.08047  0.00000 -0.16093
      14     H     0.42797  0.42797  0.00000  0.14406
      15     H     0.42988  0.42988  0.00000  0.14024
      16     H     0.41153  0.41153  0.00000  0.17694

   Total alpha = 25.00000, Total beta = 25.00000, Total charge =  0.00000
