  ==> Input File <==

--------------------------------------------------------------------------
set {
	reference rhf
	basis 6-31G*
}

set_num_threads( 4 )
memory 2 gb

molecule MOL {
0 1

H	 -3.141623	 0.402308	 1.403861
C	 -2.123570	 0.210214	 1.117957
C	 -1.732411	 -1.061476	 0.712959
C	 -1.184597	 1.220632	 1.146872
H	 -2.450878	 -1.861356	 0.684245
C	 -0.427906	 -1.311558	 0.345640
H	 -1.468978	 2.210473	 1.457402
C	 0.135896	 0.984734	 0.779301
H	 -0.112427	 -2.288924	 0.030896
C	 0.515059	 -0.286360	 0.377261
H	 0.842560	 1.791083	 0.812375
O	 1.765256	 -0.628444	 0.000000
C	 2.778419	 0.335181	 0.000000
H	 2.731280	 0.961222	 -0.884976
H	 3.711703	 -0.207767	 0.000000
H	 2.731280	 0.961222	 0.884976

	symmetry c1
}
set optking {
	frozen_dihedral = ("
		10 12 13 14
	")
}

ee = optimize('scf')
oeprop('DIPOLE', 'QUADRUPOLE', 'MULLIKEN_CHARGES')
f=open( 'psi4out.xyz', 'w' )
f.write( "16  " )
f.write( str(ee) + "\n" )
f.write( MOL.save_string_xyz() )
f.close()
--------------------------------------------------------------------------

    Molecular point group: c1
  Charge       = 0
  Multiplicity = 1
  Basis Set: 6-31G*
  Basis Set:
  @DF-RHF Final Energy:  -344.58113638032648
    Total Energy =                       -344.5811363803265976
    Molecular point group: c1
  Basis Set: 6-31G*
  Basis Set:
  Basis Set: 6-31G*
  Basis Set:
  @DF-RHF Final Energy:  -344.58147832718919
    Total Energy =                       -344.5814783271891883
  Basis Set: 6-31G*
  Basis Set:
  Basis Set: 6-31G*
  Basis Set:
  @DF-RHF Final Energy:  -344.58197889781326
    Total Energy =                       -344.5819788978135421
  Basis Set: 6-31G*
  Basis Set:
  Basis Set: 6-31G*
  Basis Set:
  @DF-RHF Final Energy:  -344.58201710048132
    Total Energy =                       -344.5820171004814938
  Basis Set: 6-31G*
  Basis Set:
  Basis Set: 6-31G*
  Basis Set:
  @DF-RHF Final Energy:  -344.58201916064934
    Total Energy =                       -344.5820191606493381
  Basis Set: 6-31G*
  Basis Set:
  Charge       = 0
  Multiplicity = 1
  Basis Set: 6-31G*
  Basis Set:

    Orbital Energies (a.u.)
    -----------------------

    Doubly Occupied:

       1A    -20.583869     2A    -11.293567     3A    -11.279606
       4A    -11.232886     5A    -11.231357     6A    -11.223825
       7A    -11.219517     8A    -11.219272     9A     -1.412794
      10A     -1.145766    11A     -1.021351    12A     -1.012723
      13A     -0.941094    14A     -0.830594    15A     -0.804557
      16A     -0.720802    17A     -0.663743    18A     -0.661490
      19A     -0.655376    20A     -0.616195    21A     -0.586975
      22A     -0.576428    23A     -0.524885    24A     -0.518702
      25A     -0.508332    26A     -0.476881    27A     -0.459510
      28A     -0.334527    29A     -0.305425

  @DF-RHF Final Energy:  -344.58201961825552

   => Energetics <=

    Nuclear Repulsion Energy =            348.0377584534491575
    One-Electron Energy =               -1157.1154584804030492
    Two-Electron Energy =                 464.4956804086982629
    DFT Exchange-Correlation Energy =       0.0000000000000000
    Empirical Dispersion Energy =           0.0000000000000000
    PCM Polarization Energy =               0.0000000000000000
    EFP Energy =                            0.0000000000000000
    Total Energy =                       -344.5820196182555719
    Molecular point group: c1
  Basis Set: 6-31G*
  Basis Set:

  -Total Gradient:
     Atom            X                  Y                   Z
    ------   -----------------  -----------------  -----------------
       1       -0.000004992389    -0.000013887452    -0.000004113983
       2        0.000033932314     0.000069017560     0.000028549066
       3        0.000050014622    -0.000062563538    -0.000061916154
       4       -0.000069428412    -0.000025057620     0.000000147475
       5       -0.000006759090     0.000001509945     0.000008910237
       6       -0.000116108788    -0.000008535396     0.000010445535
       7        0.000013282116    -0.000000493291    -0.000004499857
       8        0.000051255429    -0.000066198719    -0.000056766311
       9        0.000004303804    -0.000000862440     0.000003000572
      10        0.000442572841    -0.000815396707     0.001888199271
      11        0.000016752939     0.000005415600     0.000008231850
      12       -0.000226629552     0.000968037822    -0.003071674245
      13       -0.001499247228     0.001191875196     0.002660585557
      14        0.001345352891    -0.001272241264    -0.001415597542
      15       -0.000014800825    -0.000003624184     0.000000133197
      16       -0.000019500673     0.000033004486     0.000006365331

  **** Optimization is complete! (in 6 steps) ****
    Final optimized geometry and variables:
    Molecular point group: c1

    Geometry (in Angstrom), charge = 0, multiplicity = 1:

    H           -3.175128327907     0.430141580852     0.978110679903
    C           -2.168634411847     0.253491741450     0.645062123391
    C           -1.768870143716    -1.019595752045     0.254000559963
    C           -1.254585487044     1.286387622987     0.596729466122
    H           -2.468834266786    -1.835707607915     0.284577016775
    C           -0.477965560938    -1.251202108638    -0.170821783690
    H           -1.547875509437     2.278819737391     0.890197502990
    C            0.049801408449     1.069480757105     0.166922741293
    H           -0.154866015824    -2.229999904155    -0.473108960896
    C            0.440143755164    -0.204868103923    -0.213172027631
    H            0.736214395432     1.893370387645     0.125861702970
    O            1.675580745620    -0.519931297085    -0.658254304244
    C            2.737796778047     0.367756396652    -0.450808261918
    H            2.727955985880     1.171579864141    -1.179967703803
    H            3.642803388844    -0.206317495876    -0.588239212430
    H            2.727258341736     0.779114592588     0.551726382873

  Mulliken Charges: (a.u.)
   Center  Symbol    Alpha    Beta     Spin     Total
       1     H     0.40121  0.40121  0.00000  0.19758
       2     C     3.11187  3.11187  0.00000 -0.22373
       3     C     3.09206  3.09206  0.00000 -0.18413
       4     C     3.09120  3.09120  0.00000 -0.18241
       5     H     0.39878  0.39878  0.00000  0.20244
       6     C     3.12536  3.12536  0.00000 -0.25071
       7     H     0.39961  0.39961  0.00000  0.20077
       8     C     3.14325  3.14325  0.00000 -0.28650
       9     H     0.39301  0.39301  0.00000  0.21398
      10     C     2.78360  2.78360  0.00000  0.43279
      11     H     0.39731  0.39731  0.00000  0.20537
      12     O     4.32681  4.32681  0.00000 -0.65362
      13     C     3.09144  3.09144  0.00000 -0.18288
      14     H     0.41953  0.41953  0.00000  0.16094
      15     H     0.40582  0.40582  0.00000  0.18836
      16     H     0.41913  0.41913  0.00000  0.16175

   Total alpha = 29.00000, Total beta = 29.00000, Total charge = -0.00000
