  ==> Input File <==

--------------------------------------------------------------------------
set {
	reference rhf
	basis 6-31G*
}

set_num_threads( 4 )
memory 2 gb

molecule MOL {
0 1

H	 1.114066	 2.270122	 -2.709555
O	 1.762284	 2.066844	 -2.049108
C	 1.235178	 1.313871	 -1.063021
C	 2.080637	 0.940938	 -0.022799
C	 -0.086898	 0.913588	 -1.058397
H	 3.104050	 1.264635	 -0.049334
C	 1.600269	 0.170392	 1.015743
H	 -0.760392	 1.186383	 -1.846759
C	 -0.536158	 0.140425	 0.000000
H	 2.259924	 -0.112981	 1.814750
C	 0.275533	 -0.244528	 1.043319
N	 -1.935604	 -0.280333	 0.000000
H	 -0.111675	 -0.842473	 1.842029
O	 -2.161694	 -1.452901	 0.000000
O	 -2.770341	 0.571417	 0.000000

	symmetry c1
}
set optking {
	frozen_dihedral = ("
		11 9 12 14
	")
}

ee = optimize('scf')
oeprop('DIPOLE', 'QUADRUPOLE', 'MULLIKEN_CHARGES')
f=open( 'psi4out.xyz', 'w' )
f.write( "15  " )
f.write( str(ee) + "\n" )
f.write( MOL.save_string_xyz() )
f.close()
--------------------------------------------------------------------------

    Molecular point group: c1
  Charge       = 0
  Multiplicity = 1
  Basis Set: 6-31G*
  Basis Set:
  @DF-RHF Final Energy:  -509.01996402328922
    Total Energy =                       -509.0199640232888214
    Molecular point group: c1
  Basis Set: 6-31G*
  Basis Set:
  Basis Set: 6-31G*
  Basis Set:
  @DF-RHF Final Energy:  -509.01459702871614
    Total Energy =                       -509.0145970287164801
  Basis Set: 6-31G*
  Basis Set:
  Basis Set: 6-31G*
  Basis Set:
  @DF-RHF Final Energy:  -509.02033996888184
    Total Energy =                       -509.0203399688825812
  Basis Set: 6-31G*
  Basis Set:
  Basis Set: 6-31G*
  Basis Set:
  @DF-RHF Final Energy:  -509.02058953764896
    Total Energy =                       -509.0205895376491299
  Basis Set: 6-31G*
  Basis Set:
  Basis Set: 6-31G*
  Basis Set:
  @DF-RHF Final Energy:  -509.02059294393644
    Total Energy =                       -509.0205929439364354
  Basis Set: 6-31G*
  Basis Set:
  Charge       = 0
  Multiplicity = 1
  Basis Set: 6-31G*
  Basis Set:

    Orbital Energies (a.u.)
    -----------------------

    Doubly Occupied:

       1A    -20.617540     2A    -20.609322     3A    -20.608624
       4A    -15.859047     5A    -11.333037     6A    -11.315413
       7A    -11.268577     8A    -11.268537     9A    -11.263849
      10A    -11.256385    11A     -1.640640    12A     -1.438531
      13A     -1.424600    14A     -1.202447    15A     -1.095875
      16A     -1.048383    17A     -0.965929    18A     -0.883298
      19A     -0.830066    20A     -0.789477    21A     -0.761570
      22A     -0.734544    23A     -0.720114    24A     -0.710837
      25A     -0.669674    26A     -0.635633    27A     -0.617687
      28A     -0.593265    29A     -0.562992    30A     -0.548333
      31A     -0.529371    32A     -0.490628    33A     -0.487584
      34A     -0.454535    35A     -0.374468    36A     -0.343320

  @DF-RHF Final Energy:  -509.02059350374907

   => Energetics <=

    Nuclear Repulsion Energy =            502.9571590205861185
    One-Electron Energy =               -1692.0472479573431883
    Two-Electron Energy =                 680.0694954330081146
    DFT Exchange-Correlation Energy =       0.0000000000000000
    Empirical Dispersion Energy =           0.0000000000000000
    PCM Polarization Energy =               0.0000000000000000
    EFP Energy =                            0.0000000000000000
    Total Energy =                       -509.0205935037490690
    Molecular point group: c1
  Basis Set: 6-31G*
  Basis Set:

  -Total Gradient:
     Atom            X                  Y                   Z
    ------   -----------------  -----------------  -----------------
       1        0.000001111239    -0.000005314498    -0.000006520086
       2       -0.000005811187     0.000011505455     0.000002975116
       3       -0.000001016457    -0.000026086282     0.000030466395
       4        0.000011793832    -0.000030422290    -0.000031647462
       5        0.000023589408    -0.000130815752    -0.000015880129
       6        0.000002942183    -0.000000939769     0.000001705545
       7       -0.000029900228     0.000057588677     0.000028931154
       8       -0.000013793014     0.000001881978    -0.000018651328
       9        0.001703854328    -0.006539564884    -0.005962247798
      10        0.000000762428    -0.000005491565    -0.000005893313
      11       -0.001203834882     0.004574549594     0.002503564453
      12       -0.000463648313     0.002378371373     0.009744332991
      13       -0.000008065816    -0.000013351029     0.000008782189
      14       -0.000042256874    -0.000252978703    -0.006281449488
      15        0.000024273357    -0.000018932307     0.000001531761

  **** Optimization is complete! (in 6 steps) ****
    Final optimized geometry and variables:
    Molecular point group: c1

    Geometry (in Angstrom), charge = 0, multiplicity = 1:

    H            1.226998897882     1.859888160849    -2.453497455543
    O            1.877506979792     1.648194461917    -1.798049733019
    C            1.354482910060     0.893584967968    -0.813133892209
    C            2.200244958521     0.527506483144     0.229531888033
    C            0.030214451324     0.494164261329    -0.804720320063
    H            3.220697759415     0.860231938450     0.205776498105
    C            1.721707216073    -0.241290314309     1.269683306630
    H           -0.653458009625     0.791503133807    -1.578245592330
    C           -0.400452968341    -0.304413896172     0.237618208168
    H            2.378705866093    -0.509086050664     2.076322153655
    C            0.401840045276    -0.675568305273     1.288855844063
    N           -1.807951978263    -0.690855836856     0.260495205683
    H            0.018504240647    -1.286945508090     2.082359928303
    O           -2.052267969697    -1.857107091967     0.301525851233
    O           -2.614841337272     0.184985701183     0.191291962954

  Mulliken Charges: (a.u.)
   Center  Symbol    Alpha    Beta     Spin     Total
       1     H     0.26735  0.26735  0.00000  0.46529
       2     O     4.37439  4.37439  0.00000 -0.74878
       3     C     2.79229  2.79229  0.00000  0.41542
       4     C     3.11395  3.11395  0.00000 -0.22790
       5     C     3.13399  3.13399  0.00000 -0.26799
       6     H     0.38188  0.38188  0.00000  0.23623
       7     C     3.09684  3.09684  0.00000 -0.19367
       8     H     0.37824  0.37824  0.00000  0.24352
       9     C     2.89218  2.89218  0.00000  0.21564
      10     H     0.38663  0.38663  0.00000  0.22673
      11     C     3.10065  3.10065  0.00000 -0.20130
      12     N     3.25795  3.25795  0.00000  0.48409
      13     H     0.37502  0.37502  0.00000  0.24995
      14     O     4.22258  4.22258  0.00000 -0.44517
      15     O     4.22604  4.22604  0.00000 -0.45208

   Total alpha = 36.00000, Total beta = 36.00000, Total charge =  0.00000
