                              Psi4 1.0.54 Driver

  ==> Input File <==

--------------------------------------------------------------------------
set {
	reference rhf
	basis cc-pvtz
}

set_num_threads( 4 )
memory 2 gb

molecule MOL {
0 1

H	 3.116530	 -1.451225	 -0.717135
O	 2.824271	 -1.154299	 0.131461
C	 2.076458	 -0.067370	 -0.038225
C	 0.626018	 -0.337582	 0.258241
O	 2.538288	 0.965419	 -0.381593
C	 -0.267326	 0.883135	 0.076490
H	 0.325620	 -1.161483	 -0.378003
H	 0.574537	 -0.713685	 1.275261
C	 -1.726822	 0.642622	 0.463839
H	 -0.210803	 1.217591	 -0.953497
H	 0.129920	 1.693110	 0.675679
C	 -2.480891	 -0.340606	 -0.429852
H	 -2.243098	 1.597649	 0.438609
H	 -1.776542	 0.301208	 1.495542
C	 -3.955933	 -0.460128	 -0.060472
H	 -2.393755	 -0.020485	 -1.464726
H	 -2.024244	 -1.323637	 -0.374360
H	 -4.467673	 -1.160944	 -0.709827
H	 -4.458917	 0.497287	 -0.144505
H	 -4.076458	 -0.806900	 0.960497

	symmetry c1
}
set optking {
	frozen_dihedral = ("
		1 2 3 5
	")
}

ee,wfn = optimize('scf', return_wfn=True)
oeprop( wfn, 'DIPOLE', 'QUADRUPOLE', 'MULLIKEN_CHARGES')
f=open( 'psi4out.xyz', 'w' )
f.write( "20  " )
f.write( str(ee) + "\n" )
f.write( MOL.save_string_xyz() )
f.close()
--------------------------------------------------------------------------

    Molecular point group: c1
  Charge       = 0
  Multiplicity = 1
  Basis Set: CC-PVTZ
  Basis Set:
  @DF-RHF Final Energy:  -384.07690254199366
    Total Energy =                       -384.0769025419934337
    Molecular point group: c1
  Basis Set: CC-PVTZ
  Basis Set:
  Basis Set: CC-PVTZ
  Basis Set:
  @DF-RHF Final Energy:  -384.07524501094019
    Total Energy =                       -384.0752450109400229
  Basis Set: CC-PVTZ
  Basis Set:
  Basis Set: CC-PVTZ
  Basis Set:
  @DF-RHF Final Energy:  -384.07775713890749
    Total Energy =                       -384.0777571389072591
  Basis Set: CC-PVTZ
  Basis Set:
  Basis Set: CC-PVTZ
  Basis Set:
  @DF-RHF Final Energy:  -384.07842569883030
    Total Energy =                       -384.0784256988305287
  Basis Set: CC-PVTZ
  Basis Set:
  Basis Set: CC-PVTZ
  Basis Set:
  @DF-RHF Final Energy:  -384.07843506788726
    Total Energy =                       -384.0784350678873125
  Basis Set: CC-PVTZ
  Basis Set:
  Charge       = 0
  Multiplicity = 1
  Basis Set: CC-PVTZ
  Basis Set:

    Orbital Energies (a.u.)
    -----------------------

    Doubly Occupied:

       1A    -20.588027     2A    -20.549092     3A    -11.373947
       4A    -11.239278     5A    -11.221664     6A    -11.220000
       7A    -11.219201     8A    -11.211627     9A     -1.464603
      10A     -1.369899    11A     -1.097923    12A     -1.041820
      13A     -0.960740    14A     -0.867647    15A     -0.818122
      16A     -0.780846    17A     -0.710743    18A     -0.682772
      19A     -0.666010    20A     -0.633127    21A     -0.618570
      22A     -0.588995    23A     -0.561323    24A     -0.552363
      25A     -0.539771    26A     -0.510119    27A     -0.504664
      28A     -0.490694    29A     -0.471366    30A     -0.467883
      31A     -0.459277    32A     -0.446125

  @DF-RHF Final Energy:  -384.07843509950897

   => Energetics <=

    Nuclear Repulsion Energy =            375.8994333691169913
    One-Electron Energy =               -1268.0992574522738323
    Two-Electron Energy =                 508.1213889836481030
    DFT Exchange-Correlation Energy =       0.0000000000000000
    Empirical Dispersion Energy =           0.0000000000000000
    PCM Polarization Energy =               0.0000000000000000
    EFP Energy =                            0.0000000000000000
    Total Energy =                       -384.0784350995087379
    Molecular point group: c1
  Basis Set: CC-PVTZ
  Basis Set:

  -Total Gradient:
     Atom            X                  Y                   Z
    ------   -----------------  -----------------  -----------------
       1       -0.006403641495    -0.005052914732    -0.001056228938
       2        0.008200961669     0.007358637345     0.004321740069
       3       -0.002336598783    -0.004217207564    -0.010016506364
       4        0.000006325014    -0.000087286661    -0.000188214808
       5        0.000542477676     0.001988305747     0.006823451141
       6        0.000022392737    -0.000001428124     0.000097469852
       7       -0.000055274473    -0.000043425580     0.000021148485
       8        0.000010317258    -0.000001951349     0.000042866079
       9       -0.000021722159     0.000057741200    -0.000036781483
      10       -0.000016459215     0.000026918560    -0.000009331598
      11        0.000009865716    -0.000014579043     0.000010146434
      12        0.000023739772     0.000017686891    -0.000026929472
      13       -0.000024111954     0.000007125111    -0.000021733150
      14       -0.000008206671     0.000027486451     0.000016568780
      15        0.000006404018    -0.000027702536     0.000026233494
      16       -0.000011190074     0.000006837725     0.000009765134
      17        0.000063461804    -0.000038085138    -0.000016629430
      18       -0.000003305230    -0.000014282822    -0.000000479266
      19        0.000003439845     0.000009319119    -0.000007234388
      20       -0.000008875444    -0.000001194602     0.000010679429

  **** Optimization is complete! (in 6 steps) ****
    Final optimized geometry and variables:
    Molecular point group: c1

    Geometry (in Angstrom), charge = 0, multiplicity = 1:

    H            3.245941167479    -1.494788829462    -0.583524404908
    O            2.861573239370    -1.139722894034     0.201217939579
    C            2.077517352166    -0.066444878622    -0.070591230038
    C            0.627368929241    -0.327208159947     0.234976330686
    O            2.529272824952     0.960275457938    -0.421536883646
    C           -0.268626417808     0.893060941075     0.067713164570
    H            0.318035726863    -1.151064951709    -0.399360374797
    H            0.587662910890    -0.711667790189     1.249730575115
    C           -1.724161870569     0.651874436747     0.469754611337
    H           -0.223501779651     1.232549983749    -0.961447437095
    H            0.135540749618     1.700427899695     0.666075252687
    C           -2.485223138529    -0.334753366378    -0.414347665013
    H           -2.242321296528     1.605962283591     0.447510755823
    H           -1.763139614925     0.312662786545     1.502592433460
    C           -3.953578692895    -0.465739776352    -0.022507751174
    H           -2.416371699697    -0.012120800419    -1.449928322463
    H           -2.020802603763    -1.314743612921    -0.367662822383
    H           -4.469497332566    -1.171652869590    -0.663027494364
    H           -4.465470902795     0.487460693174    -0.100276575187
    H           -4.055832880299    -0.811850626910     1.000660575750

  Mulliken Charges: (a.u.)
   Center  Symbol    Alpha    Beta     Spin     Total
       1     H     0.38427  0.38427  0.00000  0.23146
       2     O     4.17735  4.17735  0.00000 -0.35470
       3     C     2.80038  2.80038  0.00000  0.39924
       4     C     3.11254  3.11254  0.00000 -0.22509
       5     O     4.16666  4.16666  0.00000 -0.33332
       6     C     3.09487  3.09487  0.00000 -0.18975
       7     H     0.44543  0.44543  0.00000  0.10915
       8     H     0.43643  0.43643  0.00000  0.12713
       9     C     3.09891  3.09891  0.00000 -0.19782
      10     H     0.44615  0.44615  0.00000  0.10769
      11     H     0.43855  0.43855  0.00000  0.12291
      12     C     3.08678  3.08678  0.00000 -0.17356
      13     H     0.44542  0.44542  0.00000  0.10916
      14     H     0.45338  0.45338  0.00000  0.09324
      15     C     3.14945  3.14945  0.00000 -0.29890
      16     H     0.45288  0.45288  0.00000  0.09424
      17     H     0.45472  0.45472  0.00000  0.09055
      18     H     0.44787  0.44787  0.00000  0.10426
      19     H     0.45339  0.45339  0.00000  0.09322
      20     H     0.45455  0.45455  0.00000  0.09089

   Total alpha = 32.00000, Total beta = 32.00000, Total charge =  0.00000

*** Psi4 exiting successfully. Buy a developer a beer!
