  ==> Input File <==

--------------------------------------------------------------------------
set {
	reference rhf
	basis cc-pvtz
}

set_num_threads( 4 )
memory 2 gb

molecule MOL {
0 1

H	 2.867672	 -0.456275	 0.875795
C	 2.403497	 -0.020426	 0.000000
N	 0.989899	 -0.304564	 0.000000
H	 2.867672	 -0.456275	 -0.875795
H	 2.620366	 1.051270	 0.000000
C	 0.707114	 -1.705844	 0.232412
C	 0.332934	 0.155717	 -1.205863
H	 1.142793	 -2.336458	 -0.548775
H	 1.144213	 -2.005799	 1.177769
C	 -0.791652	 -1.933877	 0.276505
H	 0.495485	 1.221651	 -1.315816
H	 0.740468	 -0.334880	 -2.095230
C	 -1.156218	 -0.120146	 -1.124815
H	 -1.012578	 -2.988985	 0.357532
H	 -1.211388	 -1.425989	 1.142513
O	 -1.406601	 -1.474218	 -0.890413
H	 -1.640666	 0.135779	 -2.056716
H	 -1.594819	 0.481597	 -0.331321

	symmetry c1
}
set optking {
	frozen_dihedral = ("
		6 3 2 5
	")
}

ee = optimize('scf')
oeprop('DIPOLE', 'QUADRUPOLE', 'MULLIKEN_CHARGES')
f=open( 'psi4out.xyz', 'w' )
f.write( "18  " )
f.write( str(ee) + "\n" )
f.write( MOL.save_string_xyz() )
f.close()
--------------------------------------------------------------------------

    Molecular point group: c1
  Charge       = 0
  Multiplicity = 1
  Basis Set: CC-PVTZ
  Basis Set:
  @DF-RHF Final Energy:  -325.14494728888599
    Total Energy =                       -325.1449472888856462
    Molecular point group: c1
  Basis Set: CC-PVTZ
  Basis Set:
  Basis Set: CC-PVTZ
  Basis Set:
  @DF-RHF Final Energy:  -325.14561031691778
    Total Energy =                       -325.1456103169178391
  Basis Set: CC-PVTZ
  Basis Set:
  Basis Set: CC-PVTZ
  Basis Set:
  @DF-RHF Final Energy:  -325.14568863878992
    Total Energy =                       -325.1456886387901477
  Basis Set: CC-PVTZ
  Basis Set:
  Charge       = 0
  Multiplicity = 1
  Basis Set: CC-PVTZ
  Basis Set:

    Orbital Energies (a.u.)
    -----------------------

    Doubly Occupied:

       1A    -20.547644     2A    -15.544123     3A    -11.264399
       4A    -11.264368     5A    -11.242597     6A    -11.242524
       7A    -11.239167     8A     -1.386544     9A     -1.234133
      10A     -1.039335    11A     -0.982230    12A     -0.884266
      13A     -0.869532    14A     -0.774361    15A     -0.685187
      16A     -0.646903    17A     -0.645447    18A     -0.635311
      19A     -0.631110    20A     -0.574274    21A     -0.556978
      22A     -0.541400    23A     -0.527173    24A     -0.501709
      25A     -0.485555    26A     -0.454127    27A     -0.410854
      28A     -0.354893

  @DF-RHF Final Energy:  -325.14568956272188

   => Energetics <=

    Nuclear Repulsion Energy =            341.9377615611003307
    One-Electron Energy =               -1119.8346128431069246
    Two-Electron Energy =                 452.7511617192845961
    DFT Exchange-Correlation Energy =       0.0000000000000000
    Empirical Dispersion Energy =           0.0000000000000000
    PCM Polarization Energy =               0.0000000000000000
    EFP Energy =                            0.0000000000000000
    Total Energy =                       -325.1456895627219410
    Molecular point group: c1
  Basis Set: CC-PVTZ
  Basis Set:

  -Total Gradient:
     Atom            X                  Y                   Z
    ------   -----------------  -----------------  -----------------
       1       -0.000043767445    -0.000009252669     0.000009432077
       2        0.000034632724     0.000029461132    -0.001389865992
       3       -0.000009883119    -0.000223131385    -0.001029324881
       4       -0.000025545304    -0.000010417082    -0.000007242496
       5       -0.000051944428    -0.000005203239     0.001411912919
       6        0.000042822267     0.000064011443     0.001032454177
       7        0.000020631478     0.000009830204    -0.000045641280
       8       -0.000002793903     0.000022758893     0.000003694352
       9        0.000013643289     0.000011376407     0.000011670768
      10        0.000024501283     0.000129941652    -0.000005648270
      11        0.000000183625     0.000007113068    -0.000000288490
      12       -0.000014423670     0.000002318571     0.000015234203
      13        0.000023603089    -0.000018014623     0.000011023740
      14        0.000035007008     0.000013925990    -0.000004849048
      15       -0.000014305883    -0.000007538919     0.000019919440
      16       -0.000034091900    -0.000014634212    -0.000030557491
      17        0.000000074571    -0.000001957717    -0.000001564849
      18        0.000001656319    -0.000000587513    -0.000000358876

  **** Optimization is complete! (in 4 steps) ****
    Final optimized geometry and variables:
    Molecular point group: c1

    Geometry (in Angstrom), charge = 0, multiplicity = 1:

    H            2.704019137905     0.356515534431     1.288376165291
    C            2.250992489753     0.751016360490     0.387473798179
    N            0.838537797952     0.463143941536     0.386462486123
    H            2.774760855943     0.320377609466    -0.469967546237
    H            2.410490923743     1.822327616443     0.383902582002
    C            0.550418833549    -0.935889226092     0.622740459703
    C            0.177257542449     0.932587271377    -0.812457754068
    H            0.979181639768    -1.572235939520    -0.157883289028
    H            0.988244896498    -1.235512513311     1.567763489262
    C           -0.949805459209    -1.154379770811     0.672337428444
    H            0.344956259477     1.998384475105    -0.918501558495
    H            0.577601638529     0.444381277051    -1.706459285541
    C           -1.312719696197     0.663042254298    -0.724681586684
    H           -1.176789995248    -2.208177720029     0.754274107261
    H           -1.362420804255    -0.644149484595     1.540512432938
    O           -1.567188009511    -0.690434897052    -0.491564104548
    H           -1.800666855222     0.922951447997    -1.653726690158
    H           -1.744905055833     1.265120702187     0.072143616161

  Mulliken Charges: (a.u.)
   Center  Symbol    Alpha    Beta     Spin     Total
       1     H     0.45244  0.45244  0.00000  0.09511
       2     C     3.09486  3.09486  0.00000 -0.18972
       3     N     3.61709  3.61709  0.00000 -0.23417
       4     H     0.46911  0.46911  0.00000  0.06178
       5     H     0.45101  0.45101  0.00000  0.09799
       6     C     3.04025  3.04025  0.00000 -0.08049
       7     C     3.04106  3.04106  0.00000 -0.08212
       8     H     0.46939  0.46939  0.00000  0.06122
       9     H     0.45390  0.45390  0.00000  0.09220
      10     C     2.98363  2.98363  0.00000  0.03275
      11     H     0.45412  0.45412  0.00000  0.09176
      12     H     0.46854  0.46854  0.00000  0.06292
      13     C     2.98339  2.98339  0.00000  0.03321
      14     H     0.44976  0.44976  0.00000  0.10048
      15     H     0.46763  0.46763  0.00000  0.06473
      16     O     4.18647  4.18647  0.00000 -0.37294
      17     H     0.44977  0.44977  0.00000  0.10045
      18     H     0.46759  0.46759  0.00000  0.06483

   Total alpha = 28.00000, Total beta = 28.00000, Total charge = -0.00000
