  ==> Input File <==

--------------------------------------------------------------------------
set {
	reference rhf
	basis 6-31G*
}

set_num_threads( 1 )
memory 2 gb

molecule MOL {
0 1

H	 -4.236494	 0.538104	 0.039757
O	 -3.517110	 -0.026191	 -0.205115
C	 -2.306886	 0.532354	 0.237577
C	 -1.177863	 -0.397191	 -0.171080
H	 -2.156308	 1.517575	 -0.201710
H	 -2.315015	 0.655684	 1.319734
C	 0.198102	 0.111031	 0.262842
H	 -1.208843	 -0.518759	 -1.250427
H	 -1.368741	 -1.376554	 0.258909
C	 1.331804	 -0.827780	 -0.158768
H	 0.361943	 1.100838	 -0.156218
H	 0.217265	 0.229072	 1.345532
C	 2.723619	 -0.410569	 0.329459
H	 1.342964	 -0.912588	 -1.244120
H	 1.116806	 -1.824343	 0.220779
C	 3.315937	 0.799183	 -0.395795
H	 3.397927	 -1.254572	 0.206757
H	 2.684060	 -0.207717	 1.397846
H	 3.356172	 0.629699	 -1.468500
H	 2.735966	 1.700049	 -0.224764
H	 4.328023	 0.995041	 -0.055096

	symmetry c1
}
set optking {
	frozen_dihedral = ("
		2 3 4 8,
		8 4 7 10,
		4 7 10 14,
		1 2 3 5
	")
}

ee = energy('scf')
oeprop('DIPOLE', 'QUADRUPOLE', 'MULLIKEN_CHARGES')
f=open( 'psi4out.xyz', 'w' )
f.write( "21  " )
f.write( str(ee) + "\n" )
f.write( MOL.save_string_xyz() )
f.close()
--------------------------------------------------------------------------

    Molecular point group: c1

    Geometry (in Angstrom), charge = 0, multiplicity = 1:

       Center              X                  Y                   Z               Mass
    ------------   -----------------  -----------------  -----------------  -----------------
           H         -4.247081276027     0.552335581867     0.057777985240     1.007825032070
           O         -3.527697276027    -0.011959418133    -0.187094014760    15.994914619560
           C         -2.317473276027     0.546585581867     0.255597985240    12.000000000000
           C         -1.188450276027    -0.382959418133    -0.153059014760    12.000000000000
           H         -2.166895276027     1.531806581867    -0.183689014760     1.007825032070
           H         -2.325602276027     0.669915581867     1.337754985240     1.007825032070
           C          0.187514723973     0.125262581867     0.280862985240    12.000000000000
           H         -1.219430276027    -0.504527418133    -1.232406014760     1.007825032070
           H         -1.379328276027    -1.362322418133     0.276929985240     1.007825032070
           C          1.321216723973    -0.813548418133    -0.140747014760    12.000000000000
           H          0.351355723973     1.115069581867    -0.138197014760     1.007825032070
           H          0.206677723973     0.243303581867     1.363552985240     1.007825032070
           C          2.713031723973    -0.396337418133     0.347479985240    12.000000000000
           H          1.332376723973    -0.898356418133    -1.226099014760     1.007825032070
           H          1.106218723973    -1.810111418133     0.238799985240     1.007825032070
           C          3.305349723973     0.813414581867    -0.377774014760    12.000000000000
           H          3.387339723973    -1.240340418133     0.224777985240     1.007825032070
           H          2.673472723973    -0.193485418133     1.415866985240     1.007825032070
           H          3.345584723973     0.643930581867    -1.450479014760     1.007825032070
           H          2.725378723973     1.714280581867    -0.206743014760     1.007825032070
           H          4.317435723973     1.009272581867    -0.037075014760     1.007825032070

  Charge       = 0
  Multiplicity = 1
  Basis Set: 6-31G*
  Basis Set:

    Orbital Energies (a.u.)
    -----------------------

    Doubly Occupied:

       1A    -20.551851     2A    -11.267074     3A    -11.215818
       4A    -11.215004     5A    -11.213458     6A    -11.210678
       7A    -11.208230     8A     -1.358678     9A     -1.086087
      10A     -1.033344    11A     -0.954775    12A     -0.874722
      13A     -0.806660    14A     -0.780547    15A     -0.692479
      16A     -0.661333    17A     -0.620510    18A     -0.608870
      19A     -0.586598    20A     -0.568454    21A     -0.536550
      22A     -0.520062    23A     -0.510847    24A     -0.486793
      25A     -0.479416    26A     -0.461599    27A     -0.455295
      28A     -0.442896    29A     -0.434004

  @DF-RHF Final Energy:  -310.21263111951390

   => Energetics <=

    Nuclear Repulsion Energy =            312.0093285497208058
    One-Electron Energy =               -1038.7587155997198352
    Two-Electron Energy =                 416.5367559304852989
    DFT Exchange-Correlation Energy =       0.0000000000000000
    Empirical Dispersion Energy =           0.0000000000000000
    PCM Polarization Energy =               0.0000000000000000
    EFP Energy =                            0.0000000000000000
    Total Energy =                       -310.2126311195137873

  Mulliken Charges: (a.u.)
   Center  Symbol    Alpha    Beta     Spin     Total
       1     H     0.28118  0.28118  0.00000  0.43765
       2     O     4.37178  4.37178  0.00000 -0.74356
       3     C     2.98974  2.98974  0.00000  0.02051
       4     C     3.15910  3.15910  0.00000 -0.31821
       5     H     0.43293  0.43293  0.00000  0.13414
       6     H     0.43286  0.43286  0.00000  0.13427
       7     C     3.16132  3.16132  0.00000 -0.32264
       8     H     0.41476  0.41476  0.00000  0.17048
       9     H     0.41477  0.41477  0.00000  0.17045
      10     C     3.15212  3.15212  0.00000 -0.30425
      11     H     0.42202  0.42202  0.00000  0.15596
      12     H     0.42391  0.42391  0.00000  0.15218
      13     C     3.15304  3.15304  0.00000 -0.30607
      14     H     0.42280  0.42280  0.00000  0.15439
      15     H     0.42093  0.42093  0.00000  0.15815
      16     C     3.24053  3.24053  0.00000 -0.48106
      17     H     0.42058  0.42058  0.00000  0.15883
      18     H     0.42345  0.42345  0.00000  0.15309
      19     H     0.42180  0.42180  0.00000  0.15641
      20     H     0.42100  0.42100  0.00000  0.15799
      21     H     0.41936  0.41936  0.00000  0.16128

   Total alpha = 29.00000, Total beta = 29.00000, Total charge = -0.00000
