  ==> Input File <==

--------------------------------------------------------------------------
set {
	reference rhf
	basis 6-31G*
}

set_num_threads( 4 )
memory 2 gb

molecule MOL {
0 1

H	 -2.240291	 0.559484	 0.604969
C	 -2.008299	 -0.205926	 -0.129530
O	 -0.774054	 0.001095	 -0.743181
H	 -2.752932	 -0.160639	 -0.912984
H	 -2.076115	 -1.178578	 0.348530
C	 0.406953	 0.000033	 0.038965
C	 1.527284	 -0.003667	 -0.998752
C	 0.498933	 1.262172	 0.902524
C	 0.494271	 -1.259566	 0.906664
H	 1.452513	 0.873252	 -1.631882
H	 1.448863	 -0.881882	 -1.629595
H	 2.502020	 -0.005104	 -0.521731
H	 0.364280	 2.147110	 0.289513
H	 1.472180	 1.321775	 1.378800
H	 -0.247853	 1.275162	 1.689097
H	 0.356778	 -2.146106	 0.296587
H	 1.467182	 -1.320941	 1.383330
H	 -0.252763	 -1.267328	 1.693119

	symmetry c1
}
set optking {
	frozen_dihedral = ("
		2 3 6 7
	")
}

ee = optimize('scf')
oeprop('DIPOLE', 'QUADRUPOLE', 'MULLIKEN_CHARGES')
f=open( 'psi4out.xyz', 'w' )
f.write( "18  " )
f.write( str(ee) + "\n" )
f.write( MOL.save_string_xyz() )
f.close()
--------------------------------------------------------------------------

    Molecular point group: c1
  Charge       = 0
  Multiplicity = 1
  Basis Set: 6-31G*
  Basis Set:
  @DF-RHF Final Energy:  -271.17520249218620
    Total Energy =                       -271.1752024921862585
    Molecular point group: c1
  Basis Set: 6-31G*
  Basis Set:
  Basis Set: 6-31G*
  Basis Set:
  @DF-RHF Final Energy:  -271.17527652824850
    Total Energy =                       -271.1752765282483324
  Basis Set: 6-31G*
  Basis Set:
  Basis Set: 6-31G*
  Basis Set:
  @DF-RHF Final Energy:  -271.17539202115876
    Total Energy =                       -271.1753920211587001
  Basis Set: 6-31G*
  Basis Set:
  Basis Set: 6-31G*
  Basis Set:
  @DF-RHF Final Energy:  -271.17541429573572
    Total Energy =                       -271.1754142957359477
  Basis Set: 6-31G*
  Basis Set:
  Basis Set: 6-31G*
  Basis Set:
  @DF-RHF Final Energy:  -271.17541986310630
    Total Energy =                       -271.1754198631062991
  Basis Set: 6-31G*
  Basis Set:
  Charge       = 0
  Multiplicity = 1
  Basis Set: 6-31G*
  Basis Set:

    Orbital Energies (a.u.)
    -----------------------

    Doubly Occupied:

       1A    -20.546754     2A    -11.281286     3A    -11.260757
       4A    -11.210051     5A    -11.207392     6A    -11.203266
       7A     -1.370031     8A     -1.073031     9A     -0.946521
      10A     -0.939164    11A     -0.912395    12A     -0.752308
      13A     -0.655395    14A     -0.644570    15A     -0.637540
      16A     -0.592168    17A     -0.574318    18A     -0.552619
      19A     -0.534299    20A     -0.524108    21A     -0.514718
      22A     -0.488523    23A     -0.486030    24A     -0.439182
      25A     -0.403870

  @DF-RHF Final Energy:  -271.17541999360753

   => Energetics <=

    Nuclear Repulsion Energy =            272.3282952801247347
    One-Electron Energy =                -907.5068360160405518
    Two-Electron Energy =                 364.0031207423081696
    DFT Exchange-Correlation Energy =       0.0000000000000000
    Empirical Dispersion Energy =           0.0000000000000000
    PCM Polarization Energy =               0.0000000000000000
    EFP Energy =                            0.0000000000000000
    Total Energy =                       -271.1754199936076475
    Molecular point group: c1
  Basis Set: 6-31G*
  Basis Set:

  -Total Gradient:
     Atom            X                  Y                   Z
    ------   -----------------  -----------------  -----------------
       1        0.000001696035     0.000009976142     0.000006567024
       2        0.000057397298    -0.000554417511    -0.000082772583
       3       -0.000079965145     0.000721931880     0.000116710702
       4        0.000001550653    -0.000005686664    -0.000001527520
       5        0.000000150976     0.000006090468    -0.000001850119
       6        0.000017787651     0.000273849989    -0.000035116283
       7       -0.000019428303    -0.000434247940    -0.000002734884
       8        0.000008879432     0.000000388959    -0.000020680008
       9        0.000009042475    -0.000014819144     0.000028818026
      10        0.000000514415     0.000008749042    -0.000007738945
      11       -0.000002273101     0.000006288511     0.000005521865
      12       -0.000003277737    -0.000009265806     0.000000364281
      13        0.000010719165     0.000009816143    -0.000007374016
      14       -0.000006900949    -0.000009224603    -0.000002718161
      15       -0.000010097722    -0.000000182111    -0.000000185126
      16        0.000014823763     0.000004591384    -0.000004118724
      17       -0.000001063435    -0.000004601721     0.000017619241
      18        0.000000444531    -0.000009237017    -0.000008784770

  **** Optimization is complete! (in 6 steps) ****
    Final optimized geometry and variables:
    Molecular point group: c1

    Geometry (in Angstrom), charge = 0, multiplicity = 1:

    H           -2.186461489886     0.523104724722     0.696888206412
    C           -2.009084055603    -0.167950546959    -0.122170980184
    O           -0.776717459054     0.036639991275    -0.740363409637
    H           -2.765232618851     0.000542681951    -0.877336029379
    H           -2.118287250152    -1.182062788158     0.250160260229
    C            0.406005115989     0.033290262367     0.039898406598
    C            1.527546350355     0.027087443276    -0.996300740177
    C            0.484905997577     1.303150636104     0.892883506208
    C            0.502373727700    -1.218292427899     0.917977295962
    H            1.438177272532     0.889314158922    -1.647439735496
    H            1.465798338215    -0.865196255067    -1.609037547382
    H            2.501561062378     0.053613220122    -0.518391712427
    H            0.380505966926     2.181193352044     0.264826110722
    H            1.440245484640     1.359348341509     1.404946736435
    H           -0.291805601768     1.332763166346     1.649553192671
    H            0.369312454368    -2.113198788284     0.318875900035
    H            1.478155167754    -1.268095594445     1.389716962061
    H           -0.240916012415    -1.222370225127     1.708120563878

  Mulliken Charges: (a.u.)
   Center  Symbol    Alpha    Beta     Spin     Total
       1     H     0.43097  0.43097  0.00000  0.13806
       2     C     3.07938  3.07938  0.00000 -0.15876
       3     O     4.31881  4.31881  0.00000 -0.63763
       4     H     0.41280  0.41280  0.00000  0.17441
       5     H     0.42810  0.42810  0.00000  0.14380
       6     C     2.84261  2.84261  0.00000  0.31478
       7     C     3.23296  3.23296  0.00000 -0.46592
       8     C     3.24301  3.24301  0.00000 -0.48602
       9     C     3.25104  3.25104  0.00000 -0.50209
      10     H     0.41353  0.41353  0.00000  0.17293
      11     H     0.41492  0.41492  0.00000  0.17016
      12     H     0.42515  0.42515  0.00000  0.14971
      13     H     0.41334  0.41334  0.00000  0.17331
      14     H     0.42138  0.42138  0.00000  0.15723
      15     H     0.42083  0.42083  0.00000  0.15834
      16     H     0.41356  0.41356  0.00000  0.17288
      17     H     0.41814  0.41814  0.00000  0.16373
      18     H     0.41947  0.41947  0.00000  0.16107

   Total alpha = 25.00000, Total beta = 25.00000, Total charge =  0.00000
