                              Psi4 1.0.54 Driver

  ==> Input File <==

--------------------------------------------------------------------------
set {
	reference rhf
	basis cc-pvtz
}

set_num_threads( 4 )
memory 2 gb

molecule MOL {
0 1

H	 -2.698799	 -0.000846	 0.036018
C	 -1.694291	 -0.000483	 0.434279
O	 -0.828718	 -0.000608	 -0.655022
H	 -1.576855	 0.881100	 1.056504
H	 -1.576401	 -0.881658	 1.057001
C	 -1.145038	 -0.792784	 -1.773179
C	 -1.152287	 -2.283084	 -1.451890
C	 -2.426951	 -0.343572	 -2.465390
H	 -0.321136	 -0.605189	 -2.450389
H	 -0.245733	 -2.560176	 -0.928023
H	 -1.203542	 -2.856686	 -2.370095
H	 -2.002125	 -2.566836	 -0.842100
H	 -2.404346	 0.724355	 -2.644455
H	 -2.524621	 -0.846746	 -3.420403
H	 -3.310582	 -0.575763	 -1.882445

	symmetry c1
}
set optking {
	frozen_dihedral = ("
		6 3 2 1
	")
}

ee,wfn = optimize('scf', return_wfn=True)
oeprop( wfn, 'DIPOLE', 'QUADRUPOLE', 'MULLIKEN_CHARGES')
f=open( 'psi4out.xyz', 'w' )
f.write( "15  " )
f.write( str(ee) + "\n" )
f.write( MOL.save_string_xyz() )
f.close()
--------------------------------------------------------------------------

    Molecular point group: c1
  Charge       = 0
  Multiplicity = 1
  Basis Set: CC-PVTZ
  Basis Set:
  @DF-RHF Final Energy:  -232.22312315201282
    Total Energy =                       -232.2231231520128745
    Molecular point group: c1
  Basis Set: CC-PVTZ
  Basis Set:
  Basis Set: CC-PVTZ
  Basis Set:
  @DF-RHF Final Energy:  -232.22493159958199
    Total Energy =                       -232.2249315995819643
  Basis Set: CC-PVTZ
  Basis Set:
  Basis Set: CC-PVTZ
  Basis Set:
  @DF-RHF Final Energy:  -232.22566671952413
    Total Energy =                       -232.2256667195242130
  Basis Set: CC-PVTZ
  Basis Set:
  Basis Set: CC-PVTZ
  Basis Set:
  @DF-RHF Final Energy:  -232.22568850375339
    Total Energy =                       -232.2256885037533607
  Basis Set: CC-PVTZ
  Basis Set:
  Basis Set: CC-PVTZ
  Basis Set:
  @DF-RHF Final Energy:  -232.22569401788473
    Total Energy =                       -232.2256940178845639
  Basis Set: CC-PVTZ
  Basis Set:
  Charge       = 0
  Multiplicity = 1
  Basis Set: CC-PVTZ
  Basis Set:

    Orbital Energies (a.u.)
    -----------------------

    Doubly Occupied:

       1A    -20.541179     2A    -11.272808     3A    -11.258843
       4A    -11.209463     5A    -11.207937     6A     -1.373041
       7A     -1.051351     8A     -0.940767     9A     -0.931223
      10A     -0.781625    11A     -0.676644    12A     -0.641815
      13A     -0.634440    14A     -0.572807    15A     -0.564152
      16A     -0.553274    17A     -0.535166    18A     -0.499876
      19A     -0.497795    20A     -0.444777    21A     -0.408071

  @DF-RHF Final Energy:  -232.22569416680338

   => Energetics <=

    Nuclear Repulsion Energy =            199.0646082884314012
    One-Electron Energy =                -709.3865017930992281
    Two-Electron Energy =                 278.0961993378643911
    DFT Exchange-Correlation Energy =       0.0000000000000000
    Empirical Dispersion Energy =           0.0000000000000000
    PCM Polarization Energy =               0.0000000000000000
    EFP Energy =                            0.0000000000000000
    Total Energy =                       -232.2256941668034642
    Molecular point group: c1
  Basis Set: CC-PVTZ
  Basis Set:

  -Total Gradient:
     Atom            X                  Y                   Z
    ------   -----------------  -----------------  -----------------
       1        0.000202505784    -0.001466817066     0.000013219695
       2       -0.000435156257     0.002356606729    -0.000195802629
       3        0.000988484271    -0.001763347070     0.000682464882
       4       -0.000035031360    -0.000015469556     0.000014491762
       5       -0.000019111590    -0.000005620037    -0.000004994408
       6       -0.000686337038     0.000895870377    -0.000491383029
       7       -0.000014298058    -0.000004943764     0.000019040718
       8       -0.000004253033    -0.000035909434    -0.000029956333
       9       -0.000008070185     0.000007686733    -0.000007810378
      10       -0.000013659615     0.000014922333    -0.000004713094
      11       -0.000001506924     0.000011712746     0.000015717559
      12       -0.000001299992    -0.000001327185     0.000008565291
      13       -0.000006088243    -0.000002314946     0.000007278945
      14       -0.000001692869     0.000013989643     0.000007834950
      15        0.000035515108    -0.000005039504    -0.000033953930

  **** Optimization is complete! (in 6 steps) ****
    Final optimized geometry and variables:
    Molecular point group: c1

    Geometry (in Angstrom), charge = 0, multiplicity = 1:

    H           -1.268783770593     0.588035786485     1.338906470620
    C           -0.219307308150     0.682163987746     1.595284809660
    O            0.608097177000     0.718914725642     0.475853871342
    H           -0.079158404195     1.609648181350     2.132112510880
    H            0.039431139841    -0.139177636181     2.257383720300
    C            0.320684177731    -0.130691824336    -0.607223430172
    C            0.269678710761    -1.599699115855    -0.204175618762
    C           -0.924543102954     0.308646899655    -1.369644116725
    H            1.171411058886     0.003686178243    -1.263679013497
    H            1.163335432721    -1.873232342345     0.343485977524
    H            0.208605981938    -2.223768690562    -1.088057231299
    H           -0.592498053891    -1.821363071332     0.414623566239
    H           -0.860400327067     1.361573085768    -1.614022900638
    H           -1.008442430387    -0.251868976815    -2.293796683183
    H           -1.834163001186     0.142822072337    -0.804578278866

  Mulliken Charges: (a.u.)
   Center  Symbol    Alpha    Beta     Spin     Total
       1     H     0.47052  0.47052  0.00000  0.05896
       2     C     3.04016  3.04016  0.00000 -0.08033
       3     O     4.18437  4.18437  0.00000 -0.36874
       4     H     0.44291  0.44291  0.00000  0.11419
       5     H     0.46567  0.46567  0.00000  0.06866
       6     C     2.93642  2.93642  0.00000  0.12716
       7     C     3.16027  3.16027  0.00000 -0.32053
       8     C     3.15348  3.15348  0.00000 -0.30696
       9     H     0.44680  0.44680  0.00000  0.10639
      10     H     0.44401  0.44401  0.00000  0.11197
      11     H     0.44819  0.44819  0.00000  0.10362
      12     H     0.45497  0.45497  0.00000  0.09007
      13     H     0.44469  0.44469  0.00000  0.11061
      14     H     0.45137  0.45137  0.00000  0.09726
      15     H     0.45616  0.45616  0.00000  0.08767

   Total alpha = 21.00000, Total beta = 21.00000, Total charge = -0.00000

*** Psi4 exiting successfully. Buy a developer a beer!
