                              Psi4 1.0.54 Driver

  ==> Input File <==

--------------------------------------------------------------------------
set {
	reference rhf
	basis cc-pvtz
}

set_num_threads( 4 )
memory 2 gb

molecule MOL {
0 1

O	 1.847685	 1.294399	 -0.000190
C	 1.704209	 0.119472	 -0.000093
C	 0.380337	 -0.600947	 -0.000234
O	 2.715427	 -0.733672	 0.000025
C	 -0.824290	 0.329213	 -0.000115
H	 0.371455	 -1.255476	 -0.865660
H	 0.371410	 -1.255787	 0.864952
C	 -1.383457	 0.554742	 1.401487
H	 -1.594442	 -0.083487	 -0.641846
H	 -0.542682	 1.278566	 -0.441381
C	 -2.592263	 1.485784	 1.421913
H	 -1.661595	 -0.401397	 1.839309
H	 -0.605220	 0.965709	 2.040777
C	 -3.151463	 1.710836	 2.822648
H	 -3.370557	 1.075802	 0.784474
H	 -2.315169	 2.441635	 0.986336
H	 -3.469839	 0.776077	 3.272200
H	 -4.007534	 2.375231	 2.801274
H	 -2.406234	 2.153076	 3.475558
C	 4.020999	 -0.192556	 0.000019
H	 4.182809	 0.412891	 -0.879449
H	 4.692590	 -1.035653	 0.000152
H	 4.182726	 0.413087	 0.879368

	symmetry c1
}
set optking {
	frozen_dihedral = ("
		9 5 3 6
	")
}

ee,wfn = optimize('scf', return_wfn=True)
oeprop( wfn, 'DIPOLE', 'QUADRUPOLE', 'MULLIKEN_CHARGES')
f=open( 'psi4out.xyz', 'w' )
f.write( "23  " )
f.write( str(ee) + "\n" )
f.write( MOL.save_string_xyz() )
f.close()
--------------------------------------------------------------------------

    Molecular point group: c1
  Charge       = 0
  Multiplicity = 1
  Basis Set: CC-PVTZ
  Basis Set:
  @DF-RHF Final Energy:  -423.12815599660678
    Total Energy =                       -423.1281559966067789
    Molecular point group: c1
  Basis Set: CC-PVTZ
  Basis Set:
  Basis Set: CC-PVTZ
  Basis Set:
  @DF-RHF Final Energy:  -423.12842815116727
    Total Energy =                       -423.1284281511673271
  Basis Set: CC-PVTZ
  Basis Set:
  Basis Set: CC-PVTZ
  Basis Set:
  @DF-RHF Final Energy:  -423.12843936492669
    Total Energy =                       -423.1284393649266349
  Basis Set: CC-PVTZ
  Basis Set:
  Basis Set: CC-PVTZ
  Basis Set:
  @DF-RHF Final Energy:  -423.12840916894294
    Total Energy =                       -423.1284091689431079
  Basis Set: CC-PVTZ
  Basis Set:
  Basis Set: CC-PVTZ
  Basis Set:
  @DF-RHF Final Energy:  -423.12849273974734
    Total Energy =                       -423.1284927397475712
  Basis Set: CC-PVTZ
  Basis Set:
  Basis Set: CC-PVTZ
  Basis Set:
  @DF-RHF Final Energy:  -423.12849430349672
    Total Energy =                       -423.1284943034968364
  Basis Set: CC-PVTZ
  Basis Set:
  Basis Set: CC-PVTZ
  Basis Set:
  @DF-RHF Final Energy:  -423.12849543607211
    Total Energy =                       -423.1284954360723987
  Basis Set: CC-PVTZ
  Basis Set:
  Charge       = 0
  Multiplicity = 1
  Basis Set: CC-PVTZ
  Basis Set:

    Orbital Energies (a.u.)
    -----------------------

    Doubly Occupied:

       1A    -20.596974     2A    -20.535057     3A    -11.365635
       4A    -11.278975     5A    -11.233622     6A    -11.216215
       7A    -11.212223     8A    -11.211524     9A    -11.205147
      10A     -1.473114    11A     -1.366571    12A     -1.091806
      13A     -1.042890    14A     -0.987296    15A     -0.931399
      16A     -0.844320    17A     -0.794444    18A     -0.768930
      19A     -0.705535    20A     -0.683988    21A     -0.676039
      22A     -0.640905    23A     -0.613005    24A     -0.600263
      25A     -0.570280    26A     -0.558004    27A     -0.554384
      28A     -0.532856    29A     -0.524492    30A     -0.498891
      31A     -0.489877    32A     -0.466551    33A     -0.465448
      34A     -0.459167    35A     -0.453037    36A     -0.442179

  @DF-RHF Final Energy:  -423.12849561813402

   => Energetics <=

    Nuclear Repulsion Energy =            459.5989932219907814
    One-Electron Energy =               -1487.2728969488989605
    Two-Electron Energy =                 604.5454081087740406
    DFT Exchange-Correlation Energy =       0.0000000000000000
    Empirical Dispersion Energy =           0.0000000000000000
    PCM Polarization Energy =               0.0000000000000000
    EFP Energy =                            0.0000000000000000
    Total Energy =                       -423.1284956181340249
    Molecular point group: c1
  Basis Set: CC-PVTZ
  Basis Set:

  -Total Gradient:
     Atom            X                  Y                   Z
    ------   -----------------  -----------------  -----------------
       1        0.000047593339    -0.000011919366     0.000010019784
       2       -0.000043345982    -0.000012232024    -0.000039436904
       3        0.002450358121     0.003490801036    -0.002952230885
       4        0.000014899093     0.000029878635     0.000008306203
       5       -0.001949664510    -0.002808056347     0.003820568650
       6       -0.001744130395    -0.002450060995     0.001858725094
       7        0.000004604580     0.000002259337     0.000006094722
       8       -0.000003813595    -0.000007103551    -0.000013181989
       9        0.001221388171     0.001759296246    -0.002715758296
      10        0.000003273103     0.000006724908     0.000011803576
      11        0.000003317050     0.000011520378     0.000003306715
      12        0.000002688874    -0.000004936603     0.000008892308
      13       -0.000001249450     0.000006065038    -0.000004736991
      14       -0.000000896297    -0.000011835413    -0.000002974150
      15        0.000000252217     0.000000062156    -0.000001338259
      16        0.000002848885     0.000001167977     0.000003342920
      17       -0.000000400537    -0.000001155057     0.000004948003
      18       -0.000001011631    -0.000002661535    -0.000003389035
      19       -0.000000434418     0.000000257756    -0.000005001358
      20       -0.000020360363    -0.000009799697     0.000004753759
      21        0.000003124344     0.000004970792    -0.000005764860
      22        0.000006681951     0.000000870852    -0.000001607896
      23        0.000004277455     0.000005885478     0.000004658891

  **** Optimization is complete! (in 8 steps) ****
    Final optimized geometry and variables:
    Molecular point group: c1

    Geometry (in Angstrom), charge = 0, multiplicity = 1:

    O            1.497924824736     0.853850201275    -0.544166689419
    C            1.363076882108    -0.319695737049    -0.622645691508
    C            0.047085981144    -1.055052669786    -0.653587556021
    O            2.381152486527    -1.161536311162    -0.686158906094
    C           -1.188271722416    -0.153163295848    -0.627203781653
    H            0.049927492095    -1.710489519844    -1.516073696530
    H            0.054497769555    -1.727916363873     0.198748490702
    C           -1.732804652802     0.098915960795     0.775131014586
    H           -1.956004022357    -0.589342538506    -1.257616857274
    H           -0.934160038455     0.795101517713    -1.084192575562
    C           -2.936905264662     1.035130803930     0.792074182577
    H           -2.009020493078    -0.849355139648     1.231349299676
    H           -0.943175155262     0.519963435648     1.391603516142
    C           -3.485047463138     1.279414088004     2.194001161066
    H           -3.722504178498     0.621359804213     0.165217291308
    H           -2.656912249964     1.984068714258     0.344113266305
    H           -3.805254843870     0.351743133515     2.656965877391
    H           -4.337627213642     1.948365187839     2.171114440942
    H           -2.732207436013     1.725129971814     2.835433070952
    C            3.682325210466    -0.610774808680    -0.654193403822
    H            3.834930875095     0.055734057118    -1.490046023987
    H            4.360610691720    -1.446228140909    -0.715809478362
    H            3.843590744768    -0.066623282433     0.264581054914

  Mulliken Charges: (a.u.)
   Center  Symbol    Alpha    Beta     Spin     Total
       1     O     4.19848  4.19848  0.00000 -0.39696
       2     C     2.80083  2.80083  0.00000  0.39834
       3     C     3.11356  3.11356  0.00000 -0.22711
       4     O     4.14630  4.14630  0.00000 -0.29260
       5     C     3.09693  3.09693  0.00000 -0.19387
       6     H     0.42979  0.42979  0.00000  0.14042
       7     H     0.44042  0.44042  0.00000  0.11915
       8     C     3.08482  3.08482  0.00000 -0.16965
       9     H     0.44605  0.44605  0.00000  0.10790
      10     H     0.44234  0.44234  0.00000  0.11532
      11     C     3.08629  3.08629  0.00000 -0.17258
      12     H     0.45726  0.45726  0.00000  0.08547
      13     H     0.45028  0.45028  0.00000  0.09945
      14     C     3.15019  3.15019  0.00000 -0.30037
      15     H     0.45587  0.45587  0.00000  0.08826
      16     H     0.45112  0.45112  0.00000  0.09775
      17     H     0.45618  0.45618  0.00000  0.08763
      18     H     0.44844  0.44844  0.00000  0.10312
      19     H     0.45402  0.45402  0.00000  0.09196
      20     C     3.03660  3.03660  0.00000 -0.07320
      21     H     0.45426  0.45426  0.00000  0.09148
      22     H     0.44546  0.44546  0.00000  0.10907
      23     H     0.45449  0.45449  0.00000  0.09103

   Total alpha = 36.00000, Total beta = 36.00000, Total charge = -0.00000

*** Psi4 exiting successfully. Buy a developer a beer!
