  ==> Input File <==

--------------------------------------------------------------------------
set {
	reference rhf
	basis 6-31G*
}

set_num_threads( 4 )
memory 2 gb

molecule MOL {
0 1

H	 2.843743	 -0.424071	 -0.263404
O	 2.009821	 -0.871544	 -0.157906
C	 1.044099	 0.046600	 -0.162707
C	 -0.318135	 -0.576402	 0.000164
O	 1.274180	 1.205693	 -0.283380
C	 -1.454360	 0.441875	 -0.000474
H	 -0.439705	 -1.303390	 -0.798406
H	 -0.303759	 -1.150509	 0.922768
C	 -2.826123	 -0.230780	 0.000056
H	 -1.357605	 1.085198	 -0.868380
H	 -1.357504	 1.086451	 0.866496
H	 -2.959731	 -0.858053	 -0.876869
H	 -3.619374	 0.509403	 -0.000080
H	 -2.959371	 -0.857318	 0.877556

	symmetry c1
}
set optking {
	frozen_dihedral = ("
		7 4 6 10
	")
}

ee = optimize('scf')
oeprop('DIPOLE', 'QUADRUPOLE', 'MULLIKEN_CHARGES')
f=open( 'psi4out.xyz', 'w' )
f.write( "14  " )
f.write( str(ee) + "\n" )
f.write( MOL.save_string_xyz() )
f.close()
--------------------------------------------------------------------------

    Molecular point group: c1
  Charge       = 0
  Multiplicity = 1
  Basis Set: 6-31G*
  Basis Set:
  @DF-RHF Final Energy:  -305.88071562765515
    Total Energy =                       -305.8807156276549790
    Molecular point group: c1
  Basis Set: 6-31G*
  Basis Set:
  Basis Set: 6-31G*
  Basis Set:
  @DF-RHF Final Energy:  -305.88073353922084
    Total Energy =                       -305.8807335392208984
  Basis Set: 6-31G*
  Basis Set:
  Basis Set: 6-31G*
  Basis Set:
  @DF-RHF Final Energy:  -305.88073079797437
    Total Energy =                       -305.8807307979740813
  Basis Set: 6-31G*
  Basis Set:
  Basis Set: 6-31G*
  Basis Set:
  @DF-RHF Final Energy:  -305.88073603833584
    Total Energy =                       -305.8807360383357832
  Basis Set: 6-31G*
  Basis Set:
  Basis Set: 6-31G*
  Basis Set:
  @DF-RHF Final Energy:  -305.88073962964165
    Total Energy =                       -305.8807396296417664
  Basis Set: 6-31G*
  Basis Set:
  Charge       = 0
  Multiplicity = 1
  Basis Set: 6-31G*
  Basis Set:

    Orbital Energies (a.u.)
    -----------------------

    Doubly Occupied:

       1A    -20.613199     2A    -20.552316     3A    -11.381939
       4A    -11.241311     5A    -11.225565     6A    -11.217232
       7A     -1.475301     8A     -1.366391     9A     -1.083095
      10A     -0.979812    11A     -0.857497    12A     -0.791378
      13A     -0.700137    14A     -0.689348    15A     -0.666984
      16A     -0.615237    17A     -0.594236    18A     -0.573044
      19A     -0.545265    20A     -0.505634    21A     -0.491690
      22A     -0.481794    23A     -0.479055    24A     -0.445041

  @DF-RHF Final Energy:  -305.88073973922747

   => Energetics <=

    Nuclear Repulsion Energy =            239.9463313918537608
    One-Electron Energy =                -892.5091436644737541
    Two-Electron Energy =                 346.6820725333926134
    DFT Exchange-Correlation Energy =       0.0000000000000000
    Empirical Dispersion Energy =           0.0000000000000000
    PCM Polarization Energy =               0.0000000000000000
    EFP Energy =                            0.0000000000000000
    Total Energy =                       -305.8807397392274083
    Molecular point group: c1
  Basis Set: 6-31G*
  Basis Set:

  -Total Gradient:
     Atom            X                  Y                   Z
    ------   -----------------  -----------------  -----------------
       1        0.000003350760    -0.000003029903    -0.000001017390
       2        0.000010805589     0.000009157452    -0.000001714952
       3       -0.000002699634     0.000004283461     0.000008284804
       4        0.000958008430     0.001078811422    -0.000781882893
       5        0.000010554334    -0.000007275937    -0.000004361328
       6       -0.001001768079    -0.001124734147    -0.000614821495
       7       -0.000641215196    -0.000710977302     0.000744746750
       8       -0.000001259493     0.000000465718    -0.000004026952
       9       -0.000010428286     0.000002103615     0.000017826738
      10        0.000685829345     0.000762863792     0.000635656130
      11       -0.000005613651    -0.000009811633    -0.000002836646
      12        0.000007363179     0.000006514236     0.000003431685
      13       -0.000004274430    -0.000002171572    -0.000001019396
      14       -0.000008652874    -0.000006199199     0.000001734945

  **** Optimization is complete! (in 6 steps) ****
    Final optimized geometry and variables:
    Molecular point group: c1

    Geometry (in Angstrom), charge = 0, multiplicity = 1:

    H            2.849598527426    -0.419087405160    -0.141928600252
    O            2.014655399042    -0.866639556367    -0.045228582594
    C            1.049173075912     0.051618996053    -0.057710803865
    C           -0.314254926112    -0.571247151191     0.091286688836
    O            1.280610499028     1.210941183740    -0.173488728880
    C           -1.452495035213     0.445245643475     0.091106443244
    H           -0.433857091342    -1.299518538975    -0.706476869086
    H           -0.306284342749    -1.149464097642     1.011563386234
    C           -2.823970687916    -0.226763584335     0.109436359843
    H           -1.358924628122     1.088995267277    -0.776400614753
    H           -1.348338718229     1.094148814062     0.954708738834
    H           -2.969830931548    -0.851065168891    -0.767584773751
    H           -3.616940089532     0.513571386339     0.123044122950
    H           -2.945083613034    -0.856201963135     0.986665951822

  Mulliken Charges: (a.u.)
   Center  Symbol    Alpha    Beta     Spin     Total
       1     H     0.26772  0.26772  0.00000  0.46455
       2     O     4.35105  4.35105  0.00000 -0.70209
       3     C     2.62324  2.62324  0.00000  0.75351
       4     C     3.20974  3.20974  0.00000 -0.41949
       5     O     4.27912  4.27912  0.00000 -0.55824
       6     C     3.15270  3.15270  0.00000 -0.30540
       7     H     0.39887  0.39887  0.00000  0.20226
       8     H     0.39865  0.39865  0.00000  0.20270
       9     C     3.24295  3.24295  0.00000 -0.48589
      10     H     0.40820  0.40820  0.00000  0.18360
      11     H     0.41180  0.41180  0.00000  0.17639
      12     H     0.42061  0.42061  0.00000  0.15878
      13     H     0.41442  0.41442  0.00000  0.17116
      14     H     0.42091  0.42091  0.00000  0.15817

   Total alpha = 24.00000, Total beta = 24.00000, Total charge =  0.00000
