  ==> Input File <==

--------------------------------------------------------------------------
set {
	reference rhf
	basis cc-pvtz
}

set_num_threads( 4 )
memory 2 gb

molecule MOL {
0 1

H	 3.459101	 0.139266	 -0.762951
C	 2.749156	 -0.051729	 0.031265
C	 1.322304	 0.099773	 -0.484271
H	 2.929445	 -1.053887	 0.403481
H	 2.954281	 0.646699	 0.834672
C	 0.308557	 -0.162619	 0.622645
H	 1.143368	 -0.594400	 -1.295960
H	 1.169532	 1.100095	 -0.870217
N	 -1.069352	 -0.004081	 0.085342
H	 0.371632	 -1.172932	 0.991288
H	 0.400391	 0.548875	 1.426218
O	 -1.193426	 0.621732	 -0.913427
O	 -1.953739	 -0.489481	 0.707586

	symmetry c1
}
set optking {
	frozen_dihedral = ("
		12 9 6 3
	")
}

ee = optimize('scf')
oeprop('DIPOLE', 'QUADRUPOLE', 'MULLIKEN_CHARGES')
f=open( 'psi4out.xyz', 'w' )
f.write( "13  " )
f.write( str(ee) + "\n" )
f.write( MOL.save_string_xyz() )
f.close()
--------------------------------------------------------------------------

    Molecular point group: c1
  Charge       = 0
  Multiplicity = 1
  Basis Set: CC-PVTZ
  Basis Set:
  @DF-RHF Final Energy:  -321.85890508867578
    Total Energy =                       -321.8589050886758400
    Molecular point group: c1
  Basis Set: CC-PVTZ
  Basis Set:
  Basis Set: CC-PVTZ
  Basis Set:
  @DF-RHF Final Energy:  -321.85950510068085
    Total Energy =                       -321.8595051006806784
  Basis Set: CC-PVTZ
  Basis Set:
  Basis Set: CC-PVTZ
  Basis Set:
  @DF-RHF Final Energy:  -321.86048718505663
    Total Energy =                       -321.8604871850566269
  Basis Set: CC-PVTZ
  Basis Set:
  Basis Set: CC-PVTZ
  Basis Set:
  @DF-RHF Final Energy:  -321.86057457672985
    Total Energy =                       -321.8605745767297321
  Basis Set: CC-PVTZ
  Basis Set:
  Basis Set: CC-PVTZ
  Basis Set:
  @DF-RHF Final Energy:  -321.86028718496118
    Total Energy =                       -321.8602871849608960
  Basis Set: CC-PVTZ
  Basis Set:
  Basis Set: CC-PVTZ
  Basis Set:
  @DF-RHF Final Energy:  -321.86059786491444
    Total Energy =                       -321.8605978649142116
  Basis Set: CC-PVTZ
  Basis Set:
  Charge       = 0
  Multiplicity = 1
  Basis Set: CC-PVTZ
  Basis Set:

    Orbital Energies (a.u.)
    -----------------------

    Doubly Occupied:

       1A    -20.592827     2A    -20.588588     3A    -15.838432
       4A    -11.298988     5A    -11.247403     6A    -11.235039
       7A     -1.637174     8A     -1.421315     9A     -1.131718
      10A     -1.026759    11A     -0.884868    12A     -0.827103
      13A     -0.763320    14A     -0.751343    15A     -0.730879
      16A     -0.658494    17A     -0.607135    18A     -0.577204
      19A     -0.553530    20A     -0.522305    21A     -0.509739
      22A     -0.488127    23A     -0.474489    24A     -0.453918

  @DF-RHF Final Energy:  -321.86059826419881

   => Energetics <=

    Nuclear Repulsion Energy =            247.6317737363688707
    One-Electron Energy =                -929.3433485639626497
    Two-Electron Energy =                 359.8509765633948518
    DFT Exchange-Correlation Energy =       0.0000000000000000
    Empirical Dispersion Energy =           0.0000000000000000
    PCM Polarization Energy =               0.0000000000000000
    EFP Energy =                            0.0000000000000000
    Total Energy =                       -321.8605982641988703
    Molecular point group: c1
  Basis Set: CC-PVTZ
  Basis Set:

  -Total Gradient:
     Atom            X                  Y                   Z
    ------   -----------------  -----------------  -----------------
       1       -0.000001824437     0.000000004147     0.000005794113
       2        0.000012686544    -0.000000568935    -0.000004658656
       3        0.000020636635     0.000182962687     0.000010745344
       4        0.000000699879    -0.000003771302    -0.000001129566
       5        0.000002147835     0.000004562403     0.000001565622
       6       -0.000034667761    -0.000339881488    -0.000098833918
       7        0.000014127083     0.000004840311    -0.000007956856
       8       -0.000008802933    -0.000012261453     0.000013547537
       9       -0.000106288383     0.000388036464     0.000219472626
      10       -0.000014031292    -0.000000584498    -0.000014895048
      11       -0.000012494070     0.000005762981     0.000000726155
      12        0.000087087216    -0.000189969079    -0.000189235145
      13        0.000040723673    -0.000039132236     0.000064857787

  **** Optimization is complete! (in 7 steps) ****
    Final optimized geometry and variables:
    Molecular point group: c1

    Geometry (in Angstrom), charge = 0, multiplicity = 1:

    H            3.507523763278     0.123289290236    -0.742770618814
    C            2.772716700372    -0.062659400720     0.029597058551
    C            1.362465232883     0.121205810751    -0.524502970526
    H            2.927745085109    -1.070692109700     0.397976601852
    H            2.970107153342     0.624209696486     0.845392674401
    C            0.329792395349    -0.139370777609     0.553394865767
    H            1.197296716207    -0.557377713876    -1.352260643839
    H            1.238923188188     1.122719388843    -0.910406511909
    N           -1.081251655239    -0.007796995974     0.080696448028
    H            0.392031878808    -1.133357012496     0.965427079772
    H            0.404458235853     0.568180344247     1.368031249805
    O           -1.291047441247     0.608605410072    -0.907760416898
    O           -1.908458505710    -0.520788114537     0.757229650623

  Mulliken Charges: (a.u.)
   Center  Symbol    Alpha    Beta     Spin     Total
       1     H     0.44128  0.44128  0.00000  0.11743
       2     C     3.15253  3.15253  0.00000 -0.30506
       3     C     3.09168  3.09168  0.00000 -0.18336
       4     H     0.45292  0.45292  0.00000  0.09416
       5     H     0.45306  0.45306  0.00000  0.09389
       6     C     3.04596  3.04596  0.00000 -0.09192
       7     H     0.44211  0.44211  0.00000  0.11579
       8     H     0.43633  0.43633  0.00000  0.12733
       9     N     3.27361  3.27361  0.00000  0.45278
      10     H     0.43207  0.43207  0.00000  0.13585
      11     H     0.43520  0.43520  0.00000  0.12961
      12     O     4.16980  4.16980  0.00000 -0.33960
      13     O     4.17344  4.17344  0.00000 -0.34689

   Total alpha = 24.00000, Total beta = 24.00000, Total charge =  0.00000
