  ==> Input File <==

--------------------------------------------------------------------------
set {
	reference rhf
	basis 6-31G*
}

set_num_threads( 4 )
memory 2 gb

molecule MOL {
0 1

H	 -0.000158	 1.970498	 0.756846
O	 -0.000074	 1.880206	 -0.189275
C	 -0.000015	 0.544847	 -0.545111
C	 -1.278788	 -0.123820	 -0.051541
C	 1.278802	 -0.123718	 -0.051505
H	 -0.000001	 0.490777	 -1.623619
F	 -1.139144	 -0.467460	 1.210979
F	 -2.324658	 0.669827	 -0.144486
F	 -1.532090	 -1.223111	 -0.743634
F	 2.323327	 0.466644	 -0.591854
F	 1.326242	 -1.401483	 -0.363667
F	 1.388946	 -0.015632	 1.262939

	symmetry c1
}
set optking {
	frozen_dihedral = ("
		7 4 3 6
	")
}

ee = optimize('scf')
oeprop('DIPOLE', 'QUADRUPOLE', 'MULLIKEN_CHARGES')
f=open( 'psi4out.xyz', 'w' )
f.write( "12  " )
f.write( str(ee) + "\n" )
f.write( MOL.save_string_xyz() )
f.close()
--------------------------------------------------------------------------

    Molecular point group: c1
  Charge       = 0
  Multiplicity = 1
  Basis Set: 6-31G*
  Basis Set:
  @DF-RHF Final Energy:  -786.27473694325874
    Total Energy =                       -786.2747369432585174
    Molecular point group: c1
  Basis Set: 6-31G*
  Basis Set:
  Basis Set: 6-31G*
  Basis Set:
  @DF-RHF Final Energy:  -786.27604259597842
    Total Energy =                       -786.2760425959784243
  Basis Set: 6-31G*
  Basis Set:
  Basis Set: 6-31G*
  Basis Set:
  @DF-RHF Final Energy:  -786.27643957687599
    Total Energy =                       -786.2764395768758732
  Basis Set: 6-31G*
  Basis Set:
  Basis Set: 6-31G*
  Basis Set:
  @DF-RHF Final Energy:  -786.27654389428790
    Total Energy =                       -786.2765438942883520
  Basis Set: 6-31G*
  Basis Set:
  Basis Set: 6-31G*
  Basis Set:
  @DF-RHF Final Energy:  -786.27656174126264
    Total Energy =                       -786.2765617412622987
  Basis Set: 6-31G*
  Basis Set:
  Basis Set: 6-31G*
  Basis Set:
  @DF-RHF Final Energy:  -786.27656462411778
    Total Energy =                       -786.2765646241173272
  Basis Set: 6-31G*
  Basis Set:
  Charge       = 0
  Multiplicity = 1
  Basis Set: 6-31G*
  Basis Set:

    Orbital Energies (a.u.)
    -----------------------

    Doubly Occupied:

       1A    -26.363468     2A    -26.363224     3A    -26.360841
       4A    -26.358937     5A    -26.358812     6A    -26.357938
       7A    -20.617961     8A    -11.526335     9A    -11.524421
      10A    -11.349139    11A     -1.764629    12A     -1.757902
      13A     -1.661236    14A     -1.658696    15A     -1.655542
      16A     -1.654925    17A     -1.436372    18A     -1.102325
      19A     -0.995920    20A     -0.937718    21A     -0.863913
      22A     -0.862292    23A     -0.851190    24A     -0.844317
      25A     -0.831706    26A     -0.814641    27A     -0.739784
      28A     -0.728116    29A     -0.726094    30A     -0.719158
      31A     -0.688316    32A     -0.686593    33A     -0.683719
      34A     -0.673830    35A     -0.669516    36A     -0.660823
      37A     -0.658320    38A     -0.653341    39A     -0.619989
      40A     -0.550173    41A     -0.505876

  @DF-RHF Final Energy:  -786.27656535146707

   => Energetics <=

    Nuclear Repulsion Energy =            671.0570649853889336
    One-Electron Energy =               -2428.9911613992248931
    Two-Electron Energy =                 971.6575310623684345
    DFT Exchange-Correlation Energy =       0.0000000000000000
    Empirical Dispersion Energy =           0.0000000000000000
    PCM Polarization Energy =               0.0000000000000000
    EFP Energy =                            0.0000000000000000
    Total Energy =                       -786.2765653514675250
    Molecular point group: c1
  Basis Set: 6-31G*
  Basis Set:

  -Total Gradient:
     Atom            X                  Y                   Z
    ------   -----------------  -----------------  -----------------
       1       -0.000001053728    -0.000030501325    -0.000011470557
       2        0.000003954610    -0.000011560146    -0.000040996507
       3       -0.001856085731     0.002931578992    -0.000399616103
       4       -0.001211363985     0.002848398104     0.001127258772
       5        0.000013232192     0.000009792029    -0.000024546841
       6        0.001890596194    -0.003103785851     0.000138914007
       7        0.001213753098    -0.002709318173    -0.000859029083
       8       -0.000039062718     0.000030174177    -0.000002705051
       9       -0.000002388702     0.000030536294     0.000061867440
      10       -0.000002335601     0.000017283589     0.000010072787
      11       -0.000018622993    -0.000025304631    -0.000002051681
      12        0.000009377363     0.000012706938     0.000002302813

  **** Optimization is complete! (in 7 steps) ****
    Final optimized geometry and variables:
    Molecular point group: c1

    Geometry (in Angstrom), charge = 0, multiplicity = 1:

    H            0.057321265560     1.990729157876     0.813899438599
    O           -0.004386042918     1.918158573524    -0.131465662196
    C           -0.009750238876     0.594329759417    -0.517919454369
    C           -1.273114846346    -0.135970534608    -0.058638249044
    C            1.267045686575    -0.094008532555    -0.042936120955
    H            0.004212771351     0.552363886591    -1.596800954227
    F           -1.192462238816    -0.517703506631     1.205436483246
    F           -2.324979216181     0.640547923572    -0.184005197129
    F           -1.470945509003    -1.216863258802    -0.788795522162
    F            2.304917702988     0.388350728650    -0.693309616173
    F            1.225941091390    -1.395223291996    -0.242747606432
    F            1.467948604471     0.120936389886     1.246926907922

  Mulliken Charges: (a.u.)
   Center  Symbol    Alpha    Beta     Spin     Total
       1     H     0.26624  0.26624  0.00000  0.46753
       2     O     4.36072  4.36072  0.00000 -0.72144
       3     C     3.04978  3.04978  0.00000 -0.09955
       4     C     2.44668  2.44668  0.00000  1.10664
       5     C     2.44348  2.44348  0.00000  1.11304
       6     H     0.37476  0.37476  0.00000  0.25049
       7     F     4.67900  4.67900  0.00000 -0.35800
       8     F     4.67241  4.67241  0.00000 -0.34482
       9     F     4.67654  4.67654  0.00000 -0.35307
      10     F     4.67528  4.67528  0.00000 -0.35056
      11     F     4.67421  4.67421  0.00000 -0.34842
      12     F     4.68092  4.68092  0.00000 -0.36184

   Total alpha = 41.00000, Total beta = 41.00000, Total charge =  0.00000
