  ==> Input File <==

--------------------------------------------------------------------------
set {
	reference rhf
	basis 6-31G*
}

set_num_threads( 1 )
memory 2 gb

molecule MOL {
0 1

O	 -2.042549	 -1.228399	 -0.269030
C	 -1.653912	 -0.146171	 0.050137
C	 -0.332303	 0.024011	 0.778412
C	 -2.438579	 1.106236	 -0.272369
C	 -0.539096	 0.708329	 2.138860
H	 0.152383	 -0.938215	 0.918353
H	 0.309023	 0.639020	 0.156811
C	 0.773044	 0.927087	 2.893489
H	 -1.210455	 0.110765	 2.753090
H	 -1.032707	 1.661612	 1.975337
C	 0.571306	 1.615524	 4.242771
H	 1.266594	 -0.030332	 3.045748
H	 1.443648	 1.523596	 2.279457
H	 -0.068641	 1.025713	 4.892881
H	 0.108751	 2.590373	 4.119667
H	 1.517927	 1.760269	 4.753636
H	 -3.277823	 0.863061	 -0.908988
H	 -1.806773	 1.843019	 -0.759671
H	 -2.802853	 1.554979	 0.648059

	symmetry c1
}
set optking {
	frozen_dihedral = ("
		11 8 5 9,
		9 5 3 2
	")
}

ee = energy('scf')
oeprop('DIPOLE', 'QUADRUPOLE', 'MULLIKEN_CHARGES')
f=open( 'psi4out.xyz', 'w' )
f.write( "19  " )
f.write( str(ee) + "\n" )
f.write( MOL.save_string_xyz() )
f.close()
--------------------------------------------------------------------------

    Molecular point group: c1

    Geometry (in Angstrom), charge = 0, multiplicity = 1:

       Center              X                  Y                   Z               Mass
    ------------   -----------------  -----------------  -----------------  -----------------
           O         -1.227791973685    -1.666755078879    -1.645144662792    15.994914619560
           C         -0.839154973685    -0.584527078879    -1.325977662792    12.000000000000
           C          0.482454026315    -0.414345078879    -0.597702662792    12.000000000000
           C         -1.623821973685     0.667879921121    -1.648483662792    12.000000000000
           C          0.275661026315     0.269972921121     0.762745337208    12.000000000000
           H          0.967140026315    -1.376571078879    -0.457761662792     1.007825032070
           H          1.123780026315     0.200663921121    -1.219303662792     1.007825032070
           C          1.587801026315     0.488730921121     1.517374337208    12.000000000000
           H         -0.395697973685    -0.327591078879     1.376975337208     1.007825032070
           H         -0.217949973685     1.223255921121     0.599222337208     1.007825032070
           C          1.386063026315     1.177167921121     2.866656337208    12.000000000000
           H          2.081351026315    -0.468688078879     1.669633337208     1.007825032070
           H          2.258405026315     1.085239921121     0.903342337208     1.007825032070
           H          0.746116026315     0.587356921121     3.516766337208     1.007825032070
           H          0.923508026315     2.152016921121     2.743552337208     1.007825032070
           H          2.332684026315     1.321912921121     3.377521337208     1.007825032070
           H         -2.463065973685     0.424704921121    -2.285102662792     1.007825032070
           H         -0.992015973685     1.404662921121    -2.135785662792     1.007825032070
           H         -1.988095973685     1.116622921121    -0.728055662792     1.007825032070

  Charge       = 0
  Multiplicity = 1
  Basis Set: 6-31G*
  Basis Set:

    Orbital Energies (a.u.)
    -----------------------

    Doubly Occupied:

       1A    -20.547152     2A    -11.323972     3A    -11.232454
       4A    -11.229772     5A    -11.228657     6A    -11.226678
       7A    -11.216792     8A     -1.392393     9A     -1.095223
      10A     -1.030620    11A     -0.982179    12A     -0.892623
      13A     -0.809631    14A     -0.733736    15A     -0.663977
      16A     -0.647328    17A     -0.624960    18A     -0.614742
      19A     -0.581471    20A     -0.575945    21A     -0.553986
      22A     -0.536800    23A     -0.510478    24A     -0.502117
      25A     -0.485876    26A     -0.478003    27A     -0.469852
      28A     -0.396174

  @DF-RHF Final Energy:  -309.06339305529156

   => Energetics <=

    Nuclear Repulsion Energy =            302.0341528979334385
    One-Electron Energy =               -1017.0279487503090650
    Two-Electron Energy =                 405.9304027970831612
    DFT Exchange-Correlation Energy =       0.0000000000000000
    Empirical Dispersion Energy =           0.0000000000000000
    PCM Polarization Energy =               0.0000000000000000
    EFP Energy =                            0.0000000000000000
    Total Energy =                       -309.0633930552924085

  Mulliken Charges: (a.u.)
   Center  Symbol    Alpha    Beta     Spin     Total
       1     O     4.26106  4.26106  0.00000 -0.52211
       2     C     2.73398  2.73398  0.00000  0.53204
       3     C     3.20172  3.20172  0.00000 -0.40343
       4     C     3.29157  3.29157  0.00000 -0.58314
       5     C     3.16694  3.16694  0.00000 -0.33388
       6     H     0.39915  0.39915  0.00000  0.20170
       7     H     0.41298  0.41298  0.00000  0.17404
       8     C     3.15106  3.15106  0.00000 -0.30213
       9     H     0.41339  0.41339  0.00000  0.17322
      10     H     0.41938  0.41938  0.00000  0.16124
      11     C     3.24024  3.24024  0.00000 -0.48049
      12     H     0.41874  0.41874  0.00000  0.16251
      13     H     0.42156  0.42156  0.00000  0.15688
      14     H     0.41969  0.41969  0.00000  0.16061
      15     H     0.42124  0.42124  0.00000  0.15752
      16     H     0.41691  0.41691  0.00000  0.16618
      17     H     0.39522  0.39522  0.00000  0.20955
      18     H     0.41012  0.41012  0.00000  0.17976
      19     H     0.40504  0.40504  0.00000  0.18991

   Total alpha = 28.00000, Total beta = 28.00000, Total charge =  0.00000
