  ==> Input File <==

--------------------------------------------------------------------------
set {
	reference rhf
	basis 6-31G*
}

set_num_threads( 4 )
memory 2 gb

molecule MOL {
0 1

H	 -2.172150	 0.880146	 0.502514
C	 -2.018062	 -0.000025	 -0.114509
O	 -0.774054	 0.001095	 -0.743181
H	 -2.760490	 0.003458	 -0.901350
H	 -2.173624	 -0.884374	 0.496163
C	 -0.697410	 -0.174801	 -2.146647
C	 0.800199	 -0.107902	 -2.437685
C	 -1.249990	 -1.541663	 -2.563219
C	 -1.424240	 0.953299	 -2.885719
H	 1.321147	 -0.888608	 -1.894967
H	 1.200104	 0.847992	 -2.118756
H	 0.998360	 -0.230639	 -3.497557
H	 -0.780264	 -2.329094	 -1.983271
H	 -1.048049	 -1.724606	 -3.613625
H	 -2.323515	 -1.608986	 -2.423335
H	 -1.076682	 1.918505	 -2.532685
H	 -1.230878	 0.890031	 -3.951618
H	 -2.499202	 0.906540	 -2.748232

	symmetry c1
}
set optking {
	frozen_dihedral = ("
		6 3 2 5
	")
}

ee = optimize('scf')
oeprop('DIPOLE', 'QUADRUPOLE', 'MULLIKEN_CHARGES')
f=open( 'psi4out.xyz', 'w' )
f.write( "18  " )
f.write( str(ee) + "\n" )
f.write( MOL.save_string_xyz() )
f.close()
--------------------------------------------------------------------------

    Molecular point group: c1
  Charge       = 0
  Multiplicity = 1
  Basis Set: 6-31G*
  Basis Set:
  @DF-RHF Final Energy:  -271.17066049419856
    Total Energy =                       -271.1706604941985006
    Molecular point group: c1
  Basis Set: 6-31G*
  Basis Set:
  Basis Set: 6-31G*
  Basis Set:
  @DF-RHF Final Energy:  -271.17257272775487
    Total Energy =                       -271.1725727277550959
  Basis Set: 6-31G*
  Basis Set:
  Basis Set: 6-31G*
  Basis Set:
  @DF-RHF Final Energy:  -271.17325100789043
    Total Energy =                       -271.1732510078901441
  Basis Set: 6-31G*
  Basis Set:
  Basis Set: 6-31G*
  Basis Set:
  @DF-RHF Final Energy:  -271.17293915069860
    Total Energy =                       -271.1729391506987668
  Basis Set: 6-31G*
  Basis Set:
  @DF-RHF Final Energy:  -271.17336313299637
    Total Energy =                       -271.1733631329963146
  Basis Set: 6-31G*
  Basis Set:
  @DF-RHF Final Energy:  -271.17335991565602
    Total Energy =                       -271.1733599156559649
  Basis Set: 6-31G*
  Basis Set:
  Basis Set: 6-31G*
  Basis Set:
  @DF-RHF Final Energy:  -271.17337398591428
    Total Energy =                       -271.1733739859143384
  Basis Set: 6-31G*
  Basis Set:
  Basis Set: 6-31G*
  Basis Set:
  @DF-RHF Final Energy:  -271.17337658724546
    Total Energy =                       -271.1733765872454569
  Basis Set: 6-31G*
  Basis Set:
  Charge       = 0
  Multiplicity = 1
  Basis Set: 6-31G*
  Basis Set:

    Orbital Energies (a.u.)
    -----------------------

    Doubly Occupied:

       1A    -20.544453     2A    -11.281945     3A    -11.260938
       4A    -11.208933     5A    -11.208358     6A    -11.203204
       7A     -1.367802     8A     -1.072553     9A     -0.945616
      10A     -0.939917    11A     -0.912840    12A     -0.752604
      13A     -0.655027    14A     -0.643185    15A     -0.638560
      16A     -0.589969    17A     -0.571084    18A     -0.552027
      19A     -0.538587    20A     -0.523749    21A     -0.514926
      22A     -0.490150    23A     -0.487015    24A     -0.437775
      25A     -0.400956

  @DF-RHF Final Energy:  -271.17337659839131

   => Energetics <=

    Nuclear Repulsion Energy =            272.1374465404263674
    One-Electron Energy =                -907.1373020144028487
    Two-Electron Energy =                 363.8264788755850532
    DFT Exchange-Correlation Energy =       0.0000000000000000
    Empirical Dispersion Energy =           0.0000000000000000
    PCM Polarization Energy =               0.0000000000000000
    EFP Energy =                            0.0000000000000000
    Total Energy =                       -271.1733765983914282
    Molecular point group: c1
  Basis Set: 6-31G*
  Basis Set:

  -Total Gradient:
     Atom            X                  Y                   Z
    ------   -----------------  -----------------  -----------------
       1       -0.000007074546     0.000000973267     0.000002071478
       2       -0.000645178307    -0.000286664627    -0.001312273944
       3        0.000310460970    -0.001405723831     0.000485097491
       4        0.000008834479    -0.000000407017    -0.000002595951
       5        0.000465681813     0.000640915992     0.000989618344
       6       -0.000135135031     0.001035569260    -0.000155602148
       7       -0.000006528199     0.000006822404     0.000008484289
       8        0.000011705838    -0.000002347225     0.000000496127
       9       -0.000006263079     0.000004539581    -0.000012425330
      10       -0.000008199188    -0.000001343714    -0.000001289999
      11        0.000010260521     0.000002911701     0.000001946886
      12       -0.000004824600     0.000004434449     0.000002614705
      13       -0.000005503438    -0.000006410637     0.000002552556
      14        0.000001864801    -0.000001527915    -0.000001537757
      15        0.000005740426     0.000006535709     0.000002087389
      16        0.000007775196    -0.000002476204    -0.000003136183
      17       -0.000004566301    -0.000000767230    -0.000000799842
      18        0.000000948646     0.000004966037    -0.000005308111

  **** Optimization is complete! (in 9 steps) ****
    Final optimized geometry and variables:
    Molecular point group: c1

    Geometry (in Angstrom), charge = 0, multiplicity = 1:

    H           -1.226421735599     0.978768104800     2.326911170858
    C           -1.130551005531     0.114288847676     1.679677637122
    O            0.115482524816     0.169160085044     1.049114135611
    H           -1.962571123124     0.119886853638     0.986928393060
    H           -1.199672229230    -0.778018250663     2.294287262675
    C            0.215479021156    -0.025462895265    -0.349773127624
    C            1.717132531930     0.032169598358    -0.620122901311
    C           -0.335416148620    -1.396615873650    -0.753640190696
    C           -0.492599397159     1.101241340126    -1.108923868725
    H            2.227129474903    -0.746598376637    -0.064588218638
    H            2.117144114201     0.988752182582    -0.303575516614
    H            1.928660462703    -0.099659144129    -1.676422313743
    H            0.152670812615    -2.178595030945    -0.181653227600
    H           -0.157541193838    -1.583108576172    -1.807859472003
    H           -1.404654688410    -1.471197314773    -0.585533629186
    H           -0.115579086407     2.064184589020    -0.781710373065
    H           -0.316669022768     1.009284143963    -2.175944102167
    H           -1.566245540132     1.087908186927    -0.955059472668

  Mulliken Charges: (a.u.)
   Center  Symbol    Alpha    Beta     Spin     Total
       1     H     0.41848  0.41848  0.00000  0.16303
       2     C     3.07674  3.07674  0.00000 -0.15348
       3     O     4.32188  4.32188  0.00000 -0.64375
       4     H     0.42967  0.42967  0.00000  0.14066
       5     H     0.42307  0.42307  0.00000  0.15386
       6     C     2.84411  2.84411  0.00000  0.31178
       7     C     3.23302  3.23302  0.00000 -0.46604
       8     C     3.24589  3.24589  0.00000 -0.49177
       9     C     3.24429  3.24429  0.00000 -0.48859
      10     H     0.41428  0.41428  0.00000  0.17144
      11     H     0.41393  0.41393  0.00000  0.17215
      12     H     0.42509  0.42509  0.00000  0.14982
      13     H     0.41362  0.41362  0.00000  0.17275
      14     H     0.41987  0.41987  0.00000  0.16026
      15     H     0.42091  0.42091  0.00000  0.15817
      16     H     0.41345  0.41345  0.00000  0.17309
      17     H     0.42065  0.42065  0.00000  0.15870
      18     H     0.42104  0.42104  0.00000  0.15793

   Total alpha = 25.00000, Total beta = 25.00000, Total charge =  0.00000
