  ==> Input File <==

--------------------------------------------------------------------------
set {
	reference rhf
	basis 6-31G*
}

set_num_threads( 4 )
memory 2 gb

molecule MOL {
0 1

O	 -2.821601	 1.309235	 -0.001213
C	 -2.668563	 0.129746	 -0.000350
C	 -3.801572	 -0.864014	 -0.000442
O	 -1.481751	 -0.454642	 0.000584
H	 -4.417280	 -0.689587	 -0.874708
H	 -3.443784	 -1.883046	 -0.000565
H	 -4.417179	 -0.689832	 0.873954
C	 -0.334255	 0.388708	 0.000906
C	 0.891947	 -0.504646	 0.000751
H	 -0.365390	 1.025305	 -0.873475
H	 -0.365484	 1.024911	 0.875569
C	 2.191998	 0.301789	 0.000897
H	 0.855148	 -1.151283	 -0.871571
H	 0.855132	 -1.151660	 0.872805
C	 3.441114	 -0.581407	 0.000108
H	 2.215074	 0.954890	 -0.869742
H	 2.215465	 0.953923	 0.872248
C	 4.585197	 0.006507	 -0.824693
H	 3.185158	 -1.565293	 -0.386585
H	 3.774564	 -0.732950	 1.024274
H	 4.293029	 0.138459	 -1.862595
H	 5.455685	 -0.641678	 -0.806178
H	 4.887089	 0.976872	 -0.440945

	symmetry c1
}
set optking {
	frozen_dihedral = ("
		19 15 12 16
	")
}

ee = optimize('scf')
oeprop('DIPOLE', 'QUADRUPOLE', 'MULLIKEN_CHARGES')
f=open( 'psi4out.xyz', 'w' )
f.write( "23  " )
f.write( str(ee) + "\n" )
f.write( MOL.save_string_xyz() )
f.close()
--------------------------------------------------------------------------

    Molecular point group: c1
  Charge       = 0
  Multiplicity = 1
  Basis Set: 6-31G*
  Basis Set:
  @DF-RHF Final Energy:  -422.97570281867564
    Total Energy =                       -422.9757028186759271
    Molecular point group: c1
  Basis Set: 6-31G*
  Basis Set:
  Basis Set: 6-31G*
  Basis Set:
  @DF-RHF Final Energy:  -422.97599918495121
    Total Energy =                       -422.9759991849516609
  Basis Set: 6-31G*
  Basis Set:
  Basis Set: 6-31G*
  Basis Set:
  @DF-RHF Final Energy:  -422.97606643536022
    Total Energy =                       -422.9760664353603943
  Basis Set: 6-31G*
  Basis Set:
  Basis Set: 6-31G*
  Basis Set:
  @DF-RHF Final Energy:  -422.97606152823977
    Total Energy =                       -422.9760615282402796
  Basis Set: 6-31G*
  Basis Set:
  Basis Set: 6-31G*
  Basis Set:
  @DF-RHF Final Energy:  -422.97607309054047
    Total Energy =                       -422.9760730905404671
  Basis Set: 6-31G*
  Basis Set:
  Charge       = 0
  Multiplicity = 1
  Basis Set: 6-31G*
  Basis Set:

    Orbital Energies (a.u.)
    -----------------------

    Doubly Occupied:

       1A    -20.603093     2A    -20.540593     3A    -11.374143
       4A    -11.281476     5A    -11.232425     6A    -11.224821
       7A    -11.223644     8A    -11.221432     9A    -11.213476
      10A     -1.468035    11A     -1.360809    12A     -1.093084
      13A     -1.041700    14A     -1.003560    15A     -0.930929
      16A     -0.842770    17A     -0.803092    18A     -0.774596
      19A     -0.691637    20A     -0.685243    21A     -0.668559
      22A     -0.640859    23A     -0.607402    24A     -0.590579
      25A     -0.582345    26A     -0.569709    27A     -0.554848
      28A     -0.536391    29A     -0.524190    30A     -0.504731
      31A     -0.495341    32A     -0.478414    33A     -0.464975
      34A     -0.464507    35A     -0.451374    36A     -0.435419

  @DF-RHF Final Energy:  -422.97607337458714

   => Energetics <=

    Nuclear Repulsion Energy =            449.6477458994872904
    One-Electron Energy =               -1466.8872311014813477
    Two-Electron Energy =                 594.2634118274063439
    DFT Exchange-Correlation Energy =       0.0000000000000000
    Empirical Dispersion Energy =           0.0000000000000000
    PCM Polarization Energy =               0.0000000000000000
    EFP Energy =                            0.0000000000000000
    Total Energy =                       -422.9760733745877133
    Molecular point group: c1
  Basis Set: 6-31G*
  Basis Set:

  -Total Gradient:
     Atom            X                  Y                   Z
    ------   -----------------  -----------------  -----------------
       1       -0.000001492918     0.000003433094     0.000025729669
       2        0.000005494991    -0.000000666369    -0.000058983890
       3        0.000001854167    -0.000000307986     0.000025689167
       4       -0.000009944863    -0.000002847962     0.000016858037
       5       -0.000000585189     0.000000316458    -0.000004902292
       6        0.000000119735    -0.000000437984     0.000000556840
       7        0.000001840441     0.000000521207    -0.000004767264
       8       -0.000006914756    -0.000003747725    -0.000011655764
       9       -0.000005997561     0.000016212966     0.000014916670
      10       -0.000000115686     0.000000955947    -0.000001084665
      11        0.000001774950    -0.000004617953     0.000000559515
      12       -0.002767652360    -0.004058254196    -0.001924946971
      13        0.000007246366     0.000003256382     0.000005463433
      14       -0.000004158793     0.000000408817     0.000004080321
      15        0.001756461234     0.002341101685    -0.004414970936
      16        0.002029673463     0.003025438623     0.002328258128
      17       -0.000016686218    -0.000001502581     0.000003228092
      18        0.000017902134    -0.000013743897     0.000013134706
      19       -0.001031132812    -0.001311187506     0.003989736426
      20        0.000012646030     0.000002912097    -0.000005126886
      21       -0.000003555755    -0.000005239793     0.000009716045
      22        0.000011643692     0.000006462205    -0.000008711825
      23        0.000001579728     0.000001534475    -0.000002776557

  **** Optimization is complete! (in 6 steps) ****
    Final optimized geometry and variables:
    Molecular point group: c1

    Geometry (in Angstrom), charge = 0, multiplicity = 1:

    O           -2.808962059209     1.336537498623     0.138414882319
    C           -2.657929209762     0.156956244890     0.118778844506
    C           -3.792469258777    -0.835034558879     0.124215561692
    O           -1.472304114848    -0.429176258965     0.090304802372
    H           -4.423761447863    -0.646376668636    -0.735865383319
    H           -3.436516194394    -1.854471985069     0.102057994017
    H           -4.391666439671    -0.673309829453     1.012289298591
    C           -0.323536469382     0.412393556585     0.082792809907
    C            0.900693892956    -0.482596252347     0.049840882019
    H           -0.367798716141     1.060801133425    -0.782381694267
    H           -0.338921440038     1.036773812397     0.966311299535
    C            2.201691386546     0.319418147409     0.029074670548
    H            0.846074587560    -1.122613718972    -0.826275052560
    H            0.882235120276    -1.136660943514     0.917577776253
    C            3.463631059007    -0.561066140835     0.069244384241
    H            2.233072550258     0.969753222399    -0.842939616848
    H            2.219094395997     0.996506998927     0.881214611169
    C            4.649541108735     0.037920814959    -0.682914903905
    H            3.234533131013    -1.552724669739    -0.313711847695
    H            3.745544999574    -0.722555958270     1.107090988897
    H            4.426735667624     0.148499314593    -1.740227687737
    H            5.530697972408    -0.589455075172    -0.592377056089
    H            4.901838537849     1.020751440462    -0.294567792316

  Mulliken Charges: (a.u.)
   Center  Symbol    Alpha    Beta     Spin     Total
       1     O     4.28388  4.28388  0.00000 -0.56776
       2     C     2.61532  2.61532  0.00000  0.76936
       3     C     3.28775  3.28775  0.00000 -0.57549
       4     O     4.31267  4.31267  0.00000 -0.62533
       5     H     0.39749  0.39749  0.00000  0.20502
       6     H     0.39986  0.39986  0.00000  0.20027
       7     H     0.39749  0.39749  0.00000  0.20502
       8     C     2.99613  2.99613  0.00000  0.00775
       9     C     3.16595  3.16595  0.00000 -0.33189
      10     H     0.41055  0.41055  0.00000  0.17891
      11     H     0.41055  0.41055  0.00000  0.17890
      12     C     3.16276  3.16276  0.00000 -0.32553
      13     H     0.41372  0.41372  0.00000  0.17256
      14     H     0.41393  0.41393  0.00000  0.17213
      15     C     3.15333  3.15333  0.00000 -0.30667
      16     H     0.41924  0.41924  0.00000  0.16153
      17     H     0.41950  0.41950  0.00000  0.16101
      18     C     3.24028  3.24028  0.00000 -0.48056
      19     H     0.42001  0.42001  0.00000  0.15998
      20     H     0.41990  0.41990  0.00000  0.16019
      21     H     0.42067  0.42067  0.00000  0.15867
      22     H     0.41856  0.41856  0.00000  0.16288
      23     H     0.42047  0.42047  0.00000  0.15906

   Total alpha = 36.00000, Total beta = 36.00000, Total charge =  0.00000
