  ==> Input File <==

--------------------------------------------------------------------------
set {
	reference rhf
	basis cc-pvtz
}

set_num_threads( 4 )
memory 2 gb

molecule MOL {
0 1

H	 -0.764017	 1.524219	 -0.556506
O	 0.057669	 1.301365	 -0.158528
C	 0.004145	 -0.005141	 0.363049
C	 1.199168	 -0.827145	 -0.096690
C	 -1.316386	 -0.602081	 -0.083515
H	 0.012026	 0.043363	 1.450619
H	 1.216685	 -0.896776	 -1.178167
H	 2.129940	 -0.372354	 0.228035
H	 1.160783	 -1.829622	 0.314294
H	 -1.357882	 -0.655920	 -1.165207
H	 -2.140147	 0.011735	 0.257253
H	 -1.440790	 -1.601175	 0.317669

	symmetry c1
}
set optking {
	frozen_dihedral = ("
		1 2 3 4
	")
}

ee = optimize('scf')
oeprop('DIPOLE', 'QUADRUPOLE', 'MULLIKEN_CHARGES')
f=open( 'psi4out.xyz', 'w' )
f.write( "12  " )
f.write( str(ee) + "\n" )
f.write( MOL.save_string_xyz() )
f.close()
--------------------------------------------------------------------------

    Molecular point group: c1
  Charge       = 0
  Multiplicity = 1
  Basis Set: CC-PVTZ
  Basis Set:
  @DF-RHF Final Energy:  -193.19229018261584
    Total Energy =                       -193.1922901826159773
    Molecular point group: c1
  Basis Set: CC-PVTZ
  Basis Set:
  Basis Set: CC-PVTZ
  Basis Set:
  @DF-RHF Final Energy:  -193.19363440752210
    Total Energy =                       -193.1936344075220404
  Basis Set: CC-PVTZ
  Basis Set:
  Basis Set: CC-PVTZ
  Basis Set:
  @DF-RHF Final Energy:  -193.19401040361052
    Total Energy =                       -193.1940104036104628
  Basis Set: CC-PVTZ
  Basis Set:
  Charge       = 0
  Multiplicity = 1
  Basis Set: CC-PVTZ
  Basis Set:

    Orbital Energies (a.u.)
    -----------------------

    Doubly Occupied:

       1A    -20.542190     2A    -11.274048     3A    -11.217884
       4A    -11.204804     5A     -1.362938     6A     -1.044297
       7A     -0.943675     8A     -0.812626     9A     -0.676059
      10A     -0.647848    11A     -0.608633    12A     -0.552396
      13A     -0.545000    14A     -0.520511    15A     -0.515642
      16A     -0.468630    17A     -0.431110

  @DF-RHF Final Energy:  -193.19401424140969

   => Energetics <=

    Nuclear Repulsion Energy =            135.7068558837018202
    One-Electron Energy =                -531.0651582716486701
    Two-Electron Energy =                 202.1642881465370465
    DFT Exchange-Correlation Energy =       0.0000000000000000
    Empirical Dispersion Energy =           0.0000000000000000
    PCM Polarization Energy =               0.0000000000000000
    EFP Energy =                            0.0000000000000000
    Total Energy =                       -193.1940142414098318
    Molecular point group: c1
  Basis Set: CC-PVTZ
  Basis Set:

  -Total Gradient:
     Atom            X                  Y                   Z
    ------   -----------------  -----------------  -----------------
       1        0.000329799918    -0.000398204077    -0.000804269172
       2       -0.000422613854     0.000279413542     0.000906721239
       3        0.000480292379     0.000216230373     0.000422492918
       4       -0.000318826506    -0.000027684653    -0.000504738700
       5       -0.000121566947    -0.000087548945    -0.000028563126
       6        0.000005675236     0.000011140998    -0.000063169795
       7        0.000006633582     0.000004905461     0.000017649483
       8        0.000037035593    -0.000026947568    -0.000009498330
       9       -0.000031287824    -0.000006165744     0.000020010430
      10        0.000037228468     0.000027465784     0.000029751535
      11       -0.000027763965    -0.000006535480     0.000004027106
      12        0.000025393920     0.000013930308     0.000009586411

  **** Optimization is complete! (in 4 steps) ****
    Final optimized geometry and variables:
    Molecular point group: c1

    Geometry (in Angstrom), charge = 0, multiplicity = 1:

    H           -0.642405805702     1.593590683329    -0.554268871759
    O            0.142878067683     1.313630975874    -0.123906736801
    C            0.004362295861    -0.002666431873     0.363425425141
    C            1.204752976998    -0.811916144461    -0.094943080373
    C           -1.311989988606    -0.622849468634    -0.077942733364
    H            0.012970475662     0.047774245502     1.448703971451
    H            1.210352048945    -0.904687632679    -1.175202927693
    H            2.121729024978    -0.321374331019     0.205935177929
    H            1.189244826857    -1.805824143815     0.338892268547
    H           -1.360820800927    -0.687769008311    -1.160565057749
    H           -2.153288051254    -0.032106716905     0.270023712280
    H           -1.420448720454    -1.622622857848     0.324249046494

  Mulliken Charges: (a.u.)
   Center  Symbol    Alpha    Beta     Spin     Total
       1     H     0.39161  0.39161  0.00000  0.21679
       2     O     4.21073  4.21073  0.00000 -0.42146
       3     C     2.91955  2.91955  0.00000  0.16090
       4     C     3.13700  3.13700  0.00000 -0.27400
       5     C     3.15957  3.15957  0.00000 -0.31914
       6     H     0.46270  0.46270  0.00000  0.07461
       7     H     0.45812  0.45812  0.00000  0.08375
       8     H     0.44652  0.44652  0.00000  0.10696
       9     H     0.46015  0.46015  0.00000  0.07971
      10     H     0.45286  0.45286  0.00000  0.09429
      11     H     0.45005  0.45005  0.00000  0.09991
      12     H     0.45115  0.45115  0.00000  0.09769

   Total alpha = 17.00000, Total beta = 17.00000, Total charge = -0.00000
