  ==> Input File <==

--------------------------------------------------------------------------
set {
	reference rhf
	basis 6-31G*
}

set_num_threads( 1 )
memory 2 gb

molecule MOL {
0 1

H	 -2.646374	 -0.642757	 1.268656
C	 -2.083525	 -0.384536	 0.393091
O	 -0.807605	 -0.127164	 0.768327
F	 -2.118945	 -1.383102	 -0.486752
F	 -2.621877	 0.670592	 -0.209486
C	 0.084052	 0.273579	 -0.209957
C	 -0.566041	 1.430884	 -0.957075
Cl	 0.446236	 -1.059616	 -1.318392
H	 1.016471	 0.618040	 0.202009
F	 0.235252	 1.876197	 -1.901408
F	 -0.784256	 2.415044	 -0.107811
F	 -1.709315	 1.089561	 -1.499658

	symmetry c1
}
set optking {
	frozen_dihedral = ("
		10 7 6 9,
		6 3 2 4
	")
}

ee = energy('scf')
oeprop('DIPOLE', 'QUADRUPOLE', 'MULLIKEN_CHARGES')
f=open( 'psi4out.xyz', 'w' )
f.write( "12  " )
f.write( str(ee) + "\n" )
f.write( MOL.save_string_xyz() )
f.close()
--------------------------------------------------------------------------

    Molecular point group: c1

    Geometry (in Angstrom), charge = 0, multiplicity = 1:

       Center              X                  Y                   Z               Mass
    ------------   -----------------  -----------------  -----------------  -----------------
           H         -1.761918533323    -0.998338151956     1.929133107399     1.007825032070
           C         -1.199069533323    -0.740117151956     1.053568107399    12.000000000000
           O          0.076850466677    -0.482745151956     1.428804107399    15.994914619560
           F         -1.234489533323    -1.738683151956     0.173725107399    18.998403224000
           F         -1.737421533323     0.315010848044     0.450991107399    18.998403224000
           C          0.968507466677    -0.082002151956     0.450520107399    12.000000000000
           C          0.318414466677     1.075302848044    -0.296597892601    12.000000000000
          CL          1.330691466677    -1.415197151956    -0.657914892601    34.968852682000
           H          1.900926466677     0.262458848044     0.862486107399     1.007825032070
           F          1.119707466677     1.520615848044    -1.240930892601    18.998403224000
           F          0.100199466677     2.059462848044     0.552666107399    18.998403224000
           F         -0.824859533323     0.733979848044    -0.839180892601    18.998403224000

  Charge       = 0
  Multiplicity = 1
  Basis Set: 6-31G*
  Basis Set:

    Orbital Energies (a.u.)
    -----------------------

    Doubly Occupied:

       1A   -104.838073     2A    -26.355942     3A    -26.353359
       4A    -26.332116     5A    -26.323871     6A    -26.309534
       7A    -20.647513     8A    -11.520135     9A    -11.479741
      10A    -11.400427    11A    -10.573221    12A     -8.042566
      13A     -8.039016    14A     -8.038892    15A     -1.771610
      16A     -1.714677    17A     -1.661064    18A     -1.652991
      19A     -1.608201    20A     -1.486093    21A     -1.175448
      22A     -1.044396    23A     -1.004590    24A     -0.909940
      25A     -0.882077    26A     -0.858052    27A     -0.836392
      28A     -0.830054    29A     -0.802465    30A     -0.751800
      31A     -0.743621    32A     -0.719647    33A     -0.702342
      34A     -0.697598    35A     -0.680754    36A     -0.663168
      37A     -0.660301    38A     -0.644250    39A     -0.629880
      40A     -0.627645    41A     -0.562170    42A     -0.521559
      43A     -0.520448    44A     -0.470744    45A     -0.461975

  @DF-RHF Final Energy: -1146.17188627947826

   => Energetics <=

    Nuclear Repulsion Energy =            794.3371816895846678
    One-Electron Energy =               -3171.9175995646119190
    Two-Electron Energy =                1231.4085315955469468
    DFT Exchange-Correlation Energy =       0.0000000000000000
    Empirical Dispersion Energy =           0.0000000000000000
    PCM Polarization Energy =               0.0000000000000000
    EFP Energy =                            0.0000000000000000
    Total Energy =                      -1146.1718862794803044

  Mulliken Charges: (a.u.)
   Center  Symbol    Alpha    Beta     Spin     Total
       1     H     0.40216  0.40216  0.00000  0.19569
       2     C     2.55947  2.55947  0.00000  0.88105
       3     O     4.30415  4.30415  0.00000 -0.60829
       4     F     4.68495  4.68495  0.00000 -0.36990
       5     F     4.68090  4.68090  0.00000 -0.36180
       6     C     3.04130  3.04130  0.00000 -0.08260
       7     C     2.44587  2.44587  0.00000  1.10826
       8    CL     8.50039  8.50039  0.00000 -0.00077
       9     H     0.36102  0.36102  0.00000  0.27795
      10     F     4.67559  4.67559  0.00000 -0.35119
      11     F     4.67961  4.67961  0.00000 -0.35922
      12     F     4.66458  4.66458  0.00000 -0.32917

   Total alpha = 45.00000, Total beta = 45.00000, Total charge =  0.00000
