  ==> Input File <==

--------------------------------------------------------------------------
set {
	reference rhf
	basis 6-31G*
}

set_num_threads( 4 )
memory 2 gb

molecule MOL {
0 1

O	 -0.988096	 -1.408613	 0.050699
C	 -0.676749	 -0.249230	 -0.009274
C	 -1.746085	 0.827156	 -0.009539
N	 0.623947	 0.147590	 -0.102813
H	 -1.701500	 1.431508	 -0.908902
H	 -2.703425	 0.330732	 0.036390
H	 -1.647323	 1.487769	 0.845106
C	 1.660869	 -0.865656	 -0.104235
C	 1.078454	 1.498407	 0.144090
H	 2.445622	 -0.578365	 -0.795353
H	 1.241230	 -1.807603	 -0.411770
H	 2.100506	 -0.982426	 0.883948
H	 1.941930	 1.701029	 -0.478320
H	 0.320243	 2.224023	 -0.103966
H	 1.371424	 1.645175	 1.182088

	symmetry c1
}
set optking {
	frozen_dihedral = ("
		8 4 2 3
	")
}

ee = optimize('scf')
oeprop('DIPOLE', 'QUADRUPOLE', 'MULLIKEN_CHARGES')
f=open( 'psi4out.xyz', 'w' )
f.write( "15  " )
f.write( str(ee) + "\n" )
f.write( MOL.save_string_xyz() )
f.close()
--------------------------------------------------------------------------

    Molecular point group: c1
  Charge       = 0
  Multiplicity = 1
  Basis Set: 6-31G*
  Basis Set:
  @DF-RHF Final Energy:  -286.02957949948211
    Total Energy =                       -286.0295794994823382
    Molecular point group: c1
  Basis Set: 6-31G*
  Basis Set:
  Basis Set: 6-31G*
  Basis Set:
  @DF-RHF Final Energy:  -286.02911977650763
    Total Energy =                       -286.0291197765075708
  Basis Set: 6-31G*
  Basis Set:
  Basis Set: 6-31G*
  Basis Set:
  @DF-RHF Final Energy:  -286.02966838032853
    Total Energy =                       -286.0296683803285873
  Basis Set: 6-31G*
  Basis Set:
  Basis Set: 6-31G*
  Basis Set:
  @DF-RHF Final Energy:  -286.02968565084825
    Total Energy =                       -286.0296856508481937
  Basis Set: 6-31G*
  Basis Set:
  @DF-RHF Final Energy:  -286.02969140621065
    Total Energy =                       -286.0296914062104747
  @DF-RHF Final Energy:  -286.02969842995094
    Total Energy =                       -286.0296984299509404
  @DF-RHF Final Energy:  -286.02970336558587
    Total Energy =                       -286.0297033655855898
  Basis Set: 6-31G*
  Basis Set:
  @DF-RHF Final Energy:  -286.02970908027703
    Total Energy =                       -286.0297090802770299
  Basis Set: 6-31G*
  Basis Set:
  Basis Set: 6-31G*
  Basis Set:
  @DF-RHF Final Energy:  -286.02971058787762
    Total Energy =                       -286.0297105878773323
  Basis Set: 6-31G*
  Basis Set:
  Basis Set: 6-31G*
  Basis Set:
  @DF-RHF Final Energy:  -286.02971163784730
    Total Energy =                       -286.0297116378472992
  Basis Set: 6-31G*
  Basis Set:
  Charge       = 0
  Multiplicity = 1
  Basis Set: 6-31G*
  Basis Set:

    Orbital Energies (a.u.)
    -----------------------

    Doubly Occupied:

       1A    -20.513192     2A    -15.584289     3A    -11.341772
       4A    -11.266606     5A    -11.247729     6A    -11.228246
       7A     -1.383520     8A     -1.243772     9A     -1.014090
      10A     -0.973079    11A     -0.919738    12A     -0.738359
      13A     -0.681047    14A     -0.659197    15A     -0.651457
      16A     -0.590123    17A     -0.575994    18A     -0.567029
      19A     -0.560814    20A     -0.547209    21A     -0.529825
      22A     -0.503287    23A     -0.409576    24A     -0.365723

  @DF-RHF Final Energy:  -286.02971190934852

   => Energetics <=

    Nuclear Repulsion Energy =            252.2734073419229333
    One-Electron Energy =                -888.4148965699237124
    Two-Electron Energy =                 350.1117773186520026
    DFT Exchange-Correlation Energy =       0.0000000000000000
    Empirical Dispersion Energy =           0.0000000000000000
    PCM Polarization Energy =               0.0000000000000000
    EFP Energy =                            0.0000000000000000
    Total Energy =                       -286.0297119093487481
    Molecular point group: c1
  Basis Set: 6-31G*
  Basis Set:

  -Total Gradient:
     Atom            X                  Y                   Z
    ------   -----------------  -----------------  -----------------
       1        0.000022748189     0.000018732532     0.000009702122
       2       -0.000001236005    -0.000007245640     0.000952450858
       3       -0.000021623605    -0.000010873544    -0.000975270820
       4        0.000031661862     0.000019467950     0.000954549640
       5       -0.000002268719     0.000001990954     0.000009924504
       6       -0.000001188649     0.000000104003     0.000004067444
       7       -0.000000054473    -0.000004428671     0.000011065327
       8       -0.000033011309    -0.000010138535    -0.000976126545
       9        0.000003724929     0.000003384564     0.000001586253
      10        0.000003995668     0.000005700333     0.000007119418
      11        0.000001010412    -0.000004292917    -0.000010717899
      12       -0.000006294025    -0.000010797916     0.000004895263
      13        0.000000839664    -0.000000990348    -0.000000453216
      14        0.000001164494    -0.000000900316     0.000005075910
      15        0.000000531565     0.000000287552     0.000002131742

  **** Optimization is complete! (in 11 steps) ****
    Final optimized geometry and variables:
    Molecular point group: c1

    Geometry (in Angstrom), charge = 0, multiplicity = 1:

    O           -0.997005336587    -1.403849473326    -0.013450083210
    C           -0.680105978475    -0.244087832057    -0.013613747988
    C           -1.747817005512     0.834401977584    -0.004745378772
    N            0.622989783966     0.149126795591    -0.056213120925
    H           -1.660048968279     1.488083527191    -0.865438619342
    H           -2.705719947869     0.337741564486    -0.032102535360
    H           -1.692640300338     1.445056207705     0.890103617555
    C            1.661640389214    -0.861319453928    -0.065570178550
    C            1.083935323046     1.505197691846     0.139255827094
    H            2.426895395164    -0.587553371334    -0.784301208630
    H            1.235995590834    -1.810835311761    -0.339644887271
    H            2.129097274341    -0.954074359248     0.912037653425
    H            1.875418674029     1.724999870702    -0.568913986453
    H            0.293892917564     2.221234581638    -0.017627380798
    H            1.482032676674     1.648119976034     1.141631303145

  Mulliken Charges: (a.u.)
   Center  Symbol    Alpha    Beta     Spin     Total
       1     O     4.30539  4.30539  0.00000 -0.61078
       2     C     2.62307  2.62307  0.00000  0.75387
       3     C     3.29895  3.29895  0.00000 -0.59791
       4     N     3.82443  3.82443  0.00000 -0.64887
       5     H     0.40706  0.40706  0.00000  0.18589
       6     H     0.39020  0.39020  0.00000  0.21959
       7     H     0.40770  0.40770  0.00000  0.18461
       8     C     3.14473  3.14473  0.00000 -0.28946
       9     C     3.14123  3.14123  0.00000 -0.28247
      10     H     0.41939  0.41939  0.00000  0.16122
      11     H     0.38414  0.38414  0.00000  0.23173
      12     H     0.41949  0.41949  0.00000  0.16102
      13     H     0.41199  0.41199  0.00000  0.17603
      14     H     0.40669  0.40669  0.00000  0.18663
      15     H     0.41555  0.41555  0.00000  0.16889

   Total alpha = 24.00000, Total beta = 24.00000, Total charge = -0.00000
