  ==> Input File <==

--------------------------------------------------------------------------
set {
	reference rhf
	basis 6-31G*
}

set_num_threads( 1 )
memory 2 gb

molecule MOL {
0 1

O	 3.225979	 0.970355	 -0.599647
C	 2.701189	 0.057885	 -0.047330
C	 1.245376	 -0.013843	 0.345420
O	 3.347903	 -1.046386	 0.304773
C	 0.455112	 1.231400	 -0.050772
H	 0.838542	 -0.913825	 -0.103701
H	 1.208210	 -0.175333	 1.419774
C	 -0.998893	 1.219485	 0.433193
H	 0.482531	 1.345121	 -1.130325
H	 0.957290	 2.103070	 0.354729
C	 -1.883438	 0.145884	 -0.207175
H	 -1.431207	 2.195402	 0.224832
H	 -1.019646	 1.105716	 1.516076
C	 -3.347647	 0.245583	 0.225435
H	 -1.822183	 0.231698	 -1.291012
H	 -1.510341	 -0.844814	 0.042401
C	 -3.938001	 1.645675	 0.048363
H	 -3.435373	 -0.051095	 1.269236
H	 -3.940821	 -0.468147	 -0.344158
C	 -5.399335	 1.737646	 0.486249
H	 -3.345846	 2.360296	 0.616088
H	 -3.855176	 1.942223	 -0.995179
H	 -5.789196	 2.741483	 0.348677
H	 -5.510984	 1.480545	 1.535834
H	 -6.024040	 1.058779	 -0.087475
C	 4.728119	 -1.109107	 -0.004993
H	 4.882018	 -1.033965	 -1.071845
H	 5.068212	 -2.067527	 0.355250
H	 5.265056	 -0.311663	 0.488280

	symmetry c1
}
set optking {
	frozen_dihedral = ("
		21 17 14 11,
		15 11 8 5,
		6 3 5 9,
		11 8 5 9,
		2 4 26 27,
		1 2 4 26,
		6 3 2 1
	")
}

ee = energy('scf')
oeprop('DIPOLE', 'QUADRUPOLE', 'MULLIKEN_CHARGES')
f=open( 'psi4out.xyz', 'w' )
f.write( "29  " )
f.write( str(ee) + "\n" )
f.write( MOL.save_string_xyz() )
f.close()
--------------------------------------------------------------------------

    Molecular point group: c1

    Geometry (in Angstrom), charge = 0, multiplicity = 1:

       Center              X                  Y                   Z               Mass
    ------------   -----------------  -----------------  -----------------  -----------------
           O          3.170537708687     0.518242464716    -0.683098906419    15.994914619560
           C          2.645747708687    -0.394227535284    -0.130781906419    12.000000000000
           C          1.189934708687    -0.465955535284     0.261968093581    12.000000000000
           O          3.292461708687    -1.498498535284     0.221321093581    15.994914619560
           C          0.399670708687     0.779287464716    -0.134223906419    12.000000000000
           H          0.783100708687    -1.365937535284    -0.187152906419     1.007825032070
           H          1.152768708687    -0.627445535284     1.336322093581     1.007825032070
           C         -1.054334291313     0.767372464716     0.349741093581    12.000000000000
           H          0.427089708687     0.893008464716    -1.213776906419     1.007825032070
           H          0.901848708687     1.650957464716     0.271277093581     1.007825032070
           C         -1.938879291313    -0.306228535284    -0.290626906419    12.000000000000
           H         -1.486648291313     1.743289464716     0.141380093581     1.007825032070
           H         -1.075087291313     0.653603464716     1.432624093581     1.007825032070
           C         -3.403088291313    -0.206529535284     0.141983093581    12.000000000000
           H         -1.877624291313    -0.220414535284    -1.374463906419     1.007825032070
           H         -1.565782291313    -1.296926535284    -0.041050906419     1.007825032070
           C         -3.993442291313     1.193562464716    -0.035088906419    12.000000000000
           H         -3.490814291313    -0.503207535284     1.185784093581     1.007825032070
           H         -3.996262291313    -0.920259535284    -0.427609906419     1.007825032070
           C         -5.454776291313     1.285533464716     0.402797093581    12.000000000000
           H         -3.401287291313     1.908183464716     0.532636093581     1.007825032070
           H         -3.910617291313     1.490110464716    -1.078630906419     1.007825032070
           H         -5.844637291313     2.289370464716     0.265225093581     1.007825032070
           H         -5.566425291313     1.028432464716     1.452382093581     1.007825032070
           H         -6.079481291313     0.606666464716    -0.170926906419     1.007825032070
           C          4.672677708687    -1.561219535284    -0.088444906419    12.000000000000
           H          4.826576708687    -1.486077535284    -1.155296906419     1.007825032070
           H          5.012770708687    -2.519639535284     0.271798093581     1.007825032070
           H          5.209614708687    -0.763775535284     0.404828093581     1.007825032070

  Charge       = 0
  Multiplicity = 1
  Basis Set: 6-31G*
  Basis Set:

    Orbital Energies (a.u.)
    -----------------------

    Doubly Occupied:

       1A    -20.603206     2A    -20.545004     3A    -11.371804
       4A    -11.280547     5A    -11.234440     6A    -11.218732
       7A    -11.216463     8A    -11.215832     9A    -11.214775
      10A    -11.214179    11A    -11.208530    12A     -1.468905
      13A     -1.362342    14A     -1.099708    15A     -1.066212
      16A     -1.016651    17A     -0.977032    18A     -0.928708
      19A     -0.861833    20A     -0.818013    21A     -0.775013
      22A     -0.761070    23A     -0.700807    24A     -0.681969
      25A     -0.671874    26A     -0.637204    27A     -0.630587
      28A     -0.616642    29A     -0.593398    30A     -0.581499
      31A     -0.565543    32A     -0.555109    33A     -0.541567
      34A     -0.525389    35A     -0.522637    36A     -0.497903
      37A     -0.492222    38A     -0.488520    39A     -0.472000
      40A     -0.458377    41A     -0.455578    42A     -0.449731
      43A     -0.440394    44A     -0.436794

  @DF-RHF Final Energy:  -501.03963521948322

   => Energetics <=

    Nuclear Repulsion Energy =            615.8038328222567088
    One-Electron Energy =               -1902.7375520937075635
    Two-Electron Energy =                 785.8940840519694575
    DFT Exchange-Correlation Energy =       0.0000000000000000
    Empirical Dispersion Energy =           0.0000000000000000
    PCM Polarization Energy =               0.0000000000000000
    EFP Energy =                            0.0000000000000000
    Total Energy =                       -501.0396352194813971

  Mulliken Charges: (a.u.)
   Center  Symbol    Alpha    Beta     Spin     Total
       1     O     4.28606  4.28606  0.00000 -0.57212
       2     C     2.60474  2.60474  0.00000  0.79052
       3     C     3.20996  3.20996  0.00000 -0.41991
       4     O     4.30749  4.30749  0.00000 -0.61499
       5     C     3.15221  3.15221  0.00000 -0.30442
       6     H     0.39896  0.39896  0.00000  0.20208
       7     H     0.40135  0.40135  0.00000  0.19731
       8     C     3.16227  3.16227  0.00000 -0.32453
       9     H     0.41321  0.41321  0.00000  0.17358
      10     H     0.40906  0.40906  0.00000  0.18189
      11     C     3.15586  3.15586  0.00000 -0.31172
      12     H     0.41389  0.41389  0.00000  0.17223
      13     H     0.42448  0.42448  0.00000  0.15104
      14     C     3.15054  3.15054  0.00000 -0.30108
      15     H     0.42283  0.42283  0.00000  0.15434
      16     H     0.42133  0.42133  0.00000  0.15733
      17     C     3.15739  3.15739  0.00000 -0.31477
      18     H     0.42417  0.42417  0.00000  0.15166
      19     H     0.42121  0.42121  0.00000  0.15758
      20     C     3.23808  3.23808  0.00000 -0.47616
      21     H     0.41931  0.41931  0.00000  0.16139
      22     H     0.42302  0.42302  0.00000  0.15396
      23     H     0.41934  0.41934  0.00000  0.16132
      24     H     0.42198  0.42198  0.00000  0.15604
      25     H     0.42210  0.42210  0.00000  0.15581
      26     C     3.09239  3.09239  0.00000 -0.18478
      27     H     0.40910  0.40910  0.00000  0.18180
      28     H     0.40854  0.40854  0.00000  0.18292
      29     H     0.40915  0.40915  0.00000  0.18169

   Total alpha = 44.00000, Total beta = 44.00000, Total charge =  0.00000
