  ==> Input File <==

--------------------------------------------------------------------------
set {
	reference rhf
	basis cc-pvtz
}

set_num_threads( 4 )
memory 2 gb

molecule MOL {
0 1

H	 1.091312	 -0.902681	 -1.088032
O	 0.816097	 -0.173555	 -1.614420
C	 0.418299	 0.878439	 -0.790592
C	 -0.793473	 0.591216	 0.050087
H	 0.208410	 1.717138	 -1.443917
H	 1.232463	 1.189779	 -0.138747
C	 -1.534243	 -0.493009	 -0.013340
H	 -1.046057	 1.367476	 0.753558
H	 -1.101195	 -1.466332	 -0.144046
H	 -2.604242	 -0.437780	 0.050785

	symmetry c1
}
set optking {
	frozen_dihedral = ("
		3 4 7 9
	")
}

ee = optimize('scf')
oeprop('DIPOLE', 'QUADRUPOLE', 'MULLIKEN_CHARGES')
f=open( 'psi4out.xyz', 'w' )
f.write( "10  " )
f.write( str(ee) + "\n" )
f.write( MOL.save_string_xyz() )
f.close()
--------------------------------------------------------------------------

    Molecular point group: c1
  Charge       = 0
  Multiplicity = 1
  Basis Set: CC-PVTZ
  Basis Set:
  @DF-RHF Final Energy:  -191.96076809824802
    Total Energy =                       -191.9607680982480815
    Molecular point group: c1
  Basis Set: CC-PVTZ
  Basis Set:
  Basis Set: CC-PVTZ
  Basis Set:
  @DF-RHF Final Energy:  -191.97701985572337
    Total Energy =                       -191.9770198557234551
  Basis Set: CC-PVTZ
  Basis Set:
  Basis Set: CC-PVTZ
  Basis Set:
  @DF-RHF Final Energy:  -191.98464600491155
    Total Energy =                       -191.9846460049116104
  Basis Set: CC-PVTZ
  Basis Set:
  Basis Set: CC-PVTZ
  Basis Set:
  @DF-RHF Final Energy:  -191.98502501424576
    Total Energy =                       -191.9850250142458208
  Basis Set: CC-PVTZ
  Basis Set:
  Basis Set: CC-PVTZ
  Basis Set:
  @DF-RHF Final Energy:  -191.98503865595347
    Total Energy =                       -191.9850386559535025
  Basis Set: CC-PVTZ
  Basis Set:
  Charge       = 0
  Multiplicity = 1
  Basis Set: CC-PVTZ
  Basis Set:

    Orbital Energies (a.u.)
    -----------------------

    Doubly Occupied:

       1A    -20.553746     2A    -11.279582     3A    -11.232050
       4A    -11.218754     5A     -1.373659     6A     -1.062298
       7A     -0.932728     8A     -0.771669     9A     -0.692788
      10A     -0.659905    11A     -0.617723    12A     -0.574210
      13A     -0.544596    14A     -0.492266    15A     -0.450912
      16A     -0.364564

  @DF-RHF Final Energy:  -191.98504297073259

   => Energetics <=

    Nuclear Repulsion Energy =            118.9485570418255520
    One-Electron Energy =                -496.2243005272235905
    Two-Electron Energy =                 185.2907005146655308
    DFT Exchange-Correlation Energy =       0.0000000000000000
    Empirical Dispersion Energy =           0.0000000000000000
    PCM Polarization Energy =               0.0000000000000000
    EFP Energy =                            0.0000000000000000
    Total Energy =                       -191.9850429707325077
    Molecular point group: c1
  Basis Set: CC-PVTZ
  Basis Set:

  -Total Gradient:
     Atom            X                  Y                   Z
    ------   -----------------  -----------------  -----------------
       1       -0.000011574291     0.000030527052     0.000006357895
       2       -0.000021920263    -0.000009197230    -0.000008811215
       3       -0.009612928975     0.010192173063    -0.009351601158
       4        0.017293021508    -0.020334099362     0.025497782498
       5        0.000006635785     0.000009822284    -0.000007681655
       6       -0.000043239745    -0.000017868353     0.000036008920
       7       -0.009833185652     0.016406982082    -0.036994309214
       8       -0.000161826011     0.000126150816    -0.000270921282
       9        0.002412947057    -0.006451926564     0.021118484625
      10       -0.000027929412     0.000047436212    -0.000025309414

  **** Optimization is complete! (in 6 steps) ****
    Final optimized geometry and variables:
    Molecular point group: c1

    Geometry (in Angstrom), charge = 0, multiplicity = 1:

    H            1.463065856442    -1.031294491938    -0.373982815332
    O            1.100920651045    -0.361235059170    -0.924961799074
    C            0.627406186455     0.692220945345    -0.142053607365
    C           -0.565785481920     0.360708828126     0.711196799468
    H            0.315574723771     1.470779731085    -0.826449868645
    H            1.426550659042     1.111057246415     0.466732211767
    C           -1.428353555084    -0.618769572596     0.513874195240
    H           -0.899096753710     1.208050627474     1.291815373162
    H           -1.140584480583    -1.600003807465     0.182356451117
    H           -2.364465747628    -0.594997907819     1.044041134906

  Mulliken Charges: (a.u.)
   Center  Symbol    Alpha    Beta     Spin     Total
       1     H     0.39275  0.39275  0.00000  0.21450
       2     O     4.19732  4.19732  0.00000 -0.39464
       3     C     2.95604  2.95604  0.00000  0.08792
       4     C     3.09090  3.09090  0.00000 -0.18181
       5     H     0.45006  0.45006  0.00000  0.09989
       6     H     0.46527  0.46527  0.00000  0.06946
       7     C     3.15712  3.15712  0.00000 -0.31425
       8     H     0.42832  0.42832  0.00000  0.14336
       9     H     0.43055  0.43055  0.00000  0.13890
      10     H     0.43166  0.43166  0.00000  0.13667

   Total alpha = 16.00000, Total beta = 16.00000, Total charge = -0.00000
