                              Psi4 1.0.54 Driver

  ==> Input File <==

--------------------------------------------------------------------------
set {
	reference rhf
	basis cc-pvtz
}

set_num_threads( 4 )
memory 2 gb

molecule MOL {
0 1

H	 1.618457	 -1.443998	 1.410394
O	 1.206069	 -0.957349	 0.721073
C	 0.696428	 0.251863	 1.221164
C	 0.027642	 1.012027	 0.090274
H	 1.498996	 0.859742	 1.631207
H	 -0.009796	 0.062219	 2.024746
C	 -1.138737	 0.285728	 -0.581921
H	 0.782737	 1.233165	 -0.657013
H	 -0.313069	 1.966171	 0.484913
C	 -1.933983	 -0.631436	 0.343653
H	 -0.763151	 -0.285569	 -1.422081
H	 -1.808359	 1.035291	 -0.992333
H	 -2.789188	 -1.049673	 -0.174718
H	 -1.335629	 -1.461368	 0.700418
H	 -2.305435	 -0.092167	 1.209725

	symmetry c1
}
set optking {
	frozen_dihedral = ("
		8 4 7 11
	")
}

ee,wfn = optimize('scf', return_wfn=True)
oeprop( wfn, 'DIPOLE', 'QUADRUPOLE', 'MULLIKEN_CHARGES')
f=open( 'psi4out.xyz', 'w' )
f.write( "15  " )
f.write( str(ee) + "\n" )
f.write( MOL.save_string_xyz() )
f.close()
--------------------------------------------------------------------------

    Molecular point group: c1
  Charge       = 0
  Multiplicity = 1
  Basis Set: CC-PVTZ
  Basis Set:
  @DF-RHF Final Energy:  -232.23356548800956
    Total Energy =                       -232.2335654880095603
    Molecular point group: c1
  Basis Set: CC-PVTZ
  Basis Set:
  Basis Set: CC-PVTZ
  Basis Set:
  @DF-RHF Final Energy:  -232.23416843238130
    Total Energy =                       -232.2341684323813524
  Basis Set: CC-PVTZ
  Basis Set:
  Basis Set: CC-PVTZ
  Basis Set:
  @DF-RHF Final Energy:  -232.23437858282182
    Total Energy =                       -232.2343785828217051
  Basis Set: CC-PVTZ
  Basis Set:
  Basis Set: CC-PVTZ
  Basis Set:
  @DF-RHF Final Energy:  -232.23441326670928
    Total Energy =                       -232.2344132667092822
  Basis Set: CC-PVTZ
  Basis Set:
  Basis Set: CC-PVTZ
  Basis Set:
  @DF-RHF Final Energy:  -232.23441883205379
    Total Energy =                       -232.2344188320537910
  Basis Set: CC-PVTZ
  Basis Set:
  Basis Set: CC-PVTZ
  Basis Set:
  @DF-RHF Final Energy:  -232.23442060949677
    Total Energy =                       -232.2344206094966808
  Basis Set: CC-PVTZ
  Basis Set:
  Charge       = 0
  Multiplicity = 1
  Basis Set: CC-PVTZ
  Basis Set:

    Orbital Energies (a.u.)
    -----------------------

    Doubly Occupied:

       1A    -20.546812     2A    -11.264798     3A    -11.211195
       4A    -11.208575     5A    -11.201276     6A     -1.364340
       7A     -1.063425     8A     -0.971121     9A     -0.871479
      10A     -0.771356    11A     -0.708320    12A     -0.650667
      13A     -0.609590    14A     -0.573272    15A     -0.562723
      16A     -0.531747    17A     -0.516007    18A     -0.475821
      19A     -0.461672    20A     -0.452237    21A     -0.434146

  @DF-RHF Final Energy:  -232.23442111569932

   => Energetics <=

    Nuclear Repulsion Energy =            193.2384306375938081
    One-Electron Energy =                -698.0445497931236787
    Two-Electron Energy =                 272.5716980398303235
    DFT Exchange-Correlation Energy =       0.0000000000000000
    Empirical Dispersion Energy =           0.0000000000000000
    PCM Polarization Energy =               0.0000000000000000
    EFP Energy =                            0.0000000000000000
    Total Energy =                       -232.2344211156995470
    Molecular point group: c1
  Basis Set: CC-PVTZ
  Basis Set:

  -Total Gradient:
     Atom            X                  Y                   Z
    ------   -----------------  -----------------  -----------------
       1        0.000005445777     0.000004046073    -0.000000313024
       2       -0.000010847313    -0.000008304139    -0.000006562421
       3        0.000008154488     0.000007315823     0.000012150107
       4       -0.003208142579     0.007006974125    -0.002194996513
       5       -0.000013636344     0.000007426042    -0.000009941512
       6       -0.000004800478    -0.000003114446    -0.000003573805
       7        0.001529524430    -0.006506460327     0.004495750060
       8        0.002480657833    -0.004884340916     0.001139449016
       9        0.000001248375     0.000000299517     0.000004471863
      10       -0.000011374757     0.000021522303    -0.000007902557
      11       -0.000791235593     0.004374297879    -0.003449865292
      12        0.000009162027    -0.000000965684     0.000009392156
      13        0.000002738102    -0.000002265250     0.000001554210
      14        0.000001851556    -0.000010472520     0.000006849068
      15        0.000001254478    -0.000005958480     0.000003538644

  **** Optimization is complete! (in 7 steps) ****
    Final optimized geometry and variables:
    Molecular point group: c1

    Geometry (in Angstrom), charge = 0, multiplicity = 1:

    H            1.908189298251    -1.368557002093     0.979792822831
    O            1.466568397405    -0.884105021171     0.307182944250
    C            0.911845827674     0.291023694946     0.840962935233
    C            0.207993830897     1.048340466499    -0.271421085608
    H            1.693260191260     0.921709164793     1.257612177807
    H            0.222026637172     0.054388337586     1.645816042618
    C           -0.949982076952     0.300522642648    -0.954709132647
    H            0.969563925706     1.261566171839    -1.013643853001
    H           -0.140330878298     1.991286707431     0.137773424312
    C           -1.819066534641    -0.567377995912    -0.051593815143
    H           -0.561956505244    -0.281507204709    -1.781965147370
    H           -1.584434095064     1.049260704783    -1.421891626610
    H           -2.652007872228    -0.975689655107    -0.612284013612
    H           -1.261231973879    -1.397661320123     0.361359721342
    H           -2.231734989709     0.006413720031     0.772653780823

  Mulliken Charges: (a.u.)
   Center  Symbol    Alpha    Beta     Spin     Total
       1     H     0.39510  0.39510  0.00000  0.20980
       2     O     4.20189  4.20189  0.00000 -0.40378
       3     C     2.98240  2.98240  0.00000  0.03520
       4     C     3.09689  3.09689  0.00000 -0.19377
       5     H     0.45860  0.45860  0.00000  0.08280
       6     H     0.46789  0.46789  0.00000  0.06422
       7     C     3.08033  3.08033  0.00000 -0.16067
       8     H     0.45048  0.45048  0.00000  0.09903
       9     H     0.45157  0.45157  0.00000  0.09685
      10     C     3.15948  3.15948  0.00000 -0.31896
      11     H     0.44949  0.44949  0.00000  0.10103
      12     H     0.45374  0.45374  0.00000  0.09251
      13     H     0.44624  0.44624  0.00000  0.10753
      14     H     0.44922  0.44922  0.00000  0.10157
      15     H     0.45668  0.45668  0.00000  0.08664

   Total alpha = 21.00000, Total beta = 21.00000, Total charge =  0.00000

*** Psi4 exiting successfully. Buy a developer a beer!
