                              Psi4 1.0.54 Driver

  ==> Input File <==

--------------------------------------------------------------------------
set {
	reference rhf
	basis cc-pvtz
}

set_num_threads( 4 )
memory 2 gb

molecule MOL {
0 1

O	 -2.817697	 1.304178	 0.001046
C	 -2.664672	 0.129869	 0.003507
C	 -3.797908	 -0.860100	 -0.001145
O	 -1.481217	 -0.452708	 0.001092
H	 -4.408836	 -0.679689	 -0.875387
H	 -3.443486	 -1.878443	 -0.002770
H	 -4.412123	 -0.683688	 0.871605
C	 -0.332055	 0.384012	 -0.000250
C	 0.892252	 -0.506059	 -0.000295
H	 -0.360822	 1.020205	 -0.874146
H	 -0.359817	 1.021310	 0.872861
C	 2.188199	 0.299473	 -0.001416
H	 0.857046	 -1.152781	 -0.871031
H	 0.857910	 -1.151798	 0.871202
C	 3.437151	 -0.577593	 -0.000991
H	 2.209565	 0.950707	 -0.871712
H	 2.210062	 0.952234	 0.867721
C	 3.574832	 -1.422017	 -1.263132
H	 3.416942	 -1.228819	 0.868234
H	 4.316036	 0.051174	 0.109910
H	 2.726194	 -2.086931	 -1.383749
H	 4.470218	 -2.031743	 -1.231105
H	 3.631927	 -0.797014	 -2.147985

	symmetry c1
}
set optking {
	frozen_dihedral = ("
		19 15 12 16
	")
}

ee,wfn = optimize('scf', return_wfn=True)
oeprop( wfn, 'DIPOLE', 'QUADRUPOLE', 'MULLIKEN_CHARGES')
f=open( 'psi4out.xyz', 'w' )
f.write( "23  " )
f.write( str(ee) + "\n" )
f.write( MOL.save_string_xyz() )
f.close()
--------------------------------------------------------------------------

    Molecular point group: c1
  Charge       = 0
  Multiplicity = 1
  Basis Set: CC-PVTZ
  Basis Set:
  @DF-RHF Final Energy:  -423.13255490886195
    Total Energy =                       -423.1325549088617208
    Molecular point group: c1
  Basis Set: CC-PVTZ
  Basis Set:
  Basis Set: CC-PVTZ
  Basis Set:
  @DF-RHF Final Energy:  -423.13242567177946
    Total Energy =                       -423.1324256717796288
  Basis Set: CC-PVTZ
  Basis Set:
  Basis Set: CC-PVTZ
  Basis Set:
  @DF-RHF Final Energy:  -423.13228028369821
    Total Energy =                       -423.1322802836981509
  Basis Set: CC-PVTZ
  Basis Set:
  Basis Set: CC-PVTZ
  Basis Set:
  @DF-RHF Final Energy:  -423.13314112931397
    Total Energy =                       -423.1331411293137990
  Basis Set: CC-PVTZ
  Basis Set:
  Basis Set: CC-PVTZ
  Basis Set:
  @DF-RHF Final Energy:  -423.13315733233748
    Total Energy =                       -423.1331573323370776
  Basis Set: CC-PVTZ
  Basis Set:
  Charge       = 0
  Multiplicity = 1
  Basis Set: CC-PVTZ
  Basis Set:

    Orbital Energies (a.u.)
    -----------------------

    Doubly Occupied:

       1A    -20.595905     2A    -20.529510     3A    -11.366407
       4A    -11.279384     5A    -11.230702     6A    -11.222057
       7A    -11.221448     8A    -11.219852     9A    -11.210916
      10A     -1.471102    11A     -1.363958    12A     -1.095117
      13A     -1.042106    14A     -1.002746    15A     -0.931970
      16A     -0.854389    17A     -0.794100    18A     -0.772956
      19A     -0.694036    20A     -0.688223    21A     -0.673092
      22A     -0.636926    23A     -0.617754    24A     -0.600152
      25A     -0.577789    26A     -0.572127    27A     -0.548190
      28A     -0.538557    29A     -0.526490    30A     -0.508897
      31A     -0.498034    32A     -0.472502    33A     -0.467599
      34A     -0.466861    35A     -0.455169    36A     -0.438831

  @DF-RHF Final Energy:  -423.13316240375286

   => Energetics <=

    Nuclear Repulsion Energy =            454.7822593916442884
    One-Electron Energy =               -1477.4591453905431990
    Two-Electron Energy =                 599.5437235951458206
    DFT Exchange-Correlation Energy =       0.0000000000000000
    Empirical Dispersion Energy =           0.0000000000000000
    PCM Polarization Energy =               0.0000000000000000
    EFP Energy =                            0.0000000000000000
    Total Energy =                       -423.1331624037530901
    Molecular point group: c1
  Basis Set: CC-PVTZ
  Basis Set:

  -Total Gradient:
     Atom            X                  Y                   Z
    ------   -----------------  -----------------  -----------------
       1       -0.000031357024     0.000110529217     0.000001364532
       2        0.000059883447    -0.000041842506     0.000010946750
       3        0.000011867247    -0.000037650234    -0.000000683985
       4        0.000060308479    -0.000028052470     0.000002069287
       5       -0.000038978002    -0.000002226260    -0.000046981522
       6       -0.000013087003    -0.000002257228    -0.000000847620
       7       -0.000031922383    -0.000002108193     0.000040506443
       8        0.000005570119     0.000005453492    -0.000008692592
       9        0.000000112255    -0.000003706901    -0.000022944078
      10        0.000004111205     0.000001973227     0.000004465365
      11       -0.000008319450     0.000001637197     0.000001975983
      12        0.000031051713     0.000036733412     0.000017825881
      13       -0.000007208170     0.000001494567     0.000011251603
      14       -0.000001017047     0.000000680697     0.000006169512
      15        0.000039016506     0.000017676366     0.000063537469
      16       -0.000037062213    -0.000030865222    -0.000049047781
      17        0.000015603532    -0.000013026056     0.000004103956
      18       -0.000008301395    -0.000029343057    -0.000006878990
      19       -0.000023522010    -0.000055939762    -0.000011311868
      20       -0.000023119146    -0.000001491698    -0.000022019130
      21        0.000042398925     0.000028962670     0.000013624956
      22       -0.000055177142     0.000029611216     0.000018978589
      23        0.000009147548     0.000013757529    -0.000027412760

  **** Optimization is complete! (in 6 steps) ****
    Final optimized geometry and variables:
    Molecular point group: c1

    Geometry (in Angstrom), charge = 0, multiplicity = 1:

    O           -2.692031919623     1.503640668437     0.168660119028
    C           -2.548230910467     0.328860286095     0.125682877827
    C           -3.689556262788    -0.651354916527     0.084784973722
    O           -1.369358326724    -0.262584794810     0.108480382538
    H           -4.297913302525    -0.435038657882    -0.783244055163
    H           -3.343367300122    -1.671878646408     0.047307527781
    H           -4.303538338116    -0.501175813328     0.962761436983
    C           -0.213972598151     0.564438157415     0.143971797076
    C            1.003553456167    -0.334829468011     0.114625949926
    H           -0.233398312649     1.233645488082    -0.705348795882
    H           -0.240629793400     1.168583312124     1.040392266057
    C            2.301498954763     0.470082486017     0.137617560900
    H            0.952906977168    -0.955458959106    -0.772050725582
    H            0.968199984812    -1.002925094868     0.969627541982
    C            3.571587423147    -0.379858331511     0.200629089018
    H            2.344593318241     1.111713018009    -0.739243456820
    H            2.288349927219     1.132692823761     0.998487426994
    C            3.830344138711    -1.231157356134    -1.039825284008
    H            3.529619984707    -1.021508843422     1.076563967443
    H            4.417826195439     0.282798593758     0.350929474903
    H            3.060239564843    -1.978452984282    -1.187671533422
    H            4.776623073167    -1.752647822069    -0.955464021094
    H            3.871472932451    -0.615930582649    -1.932975049054

  Mulliken Charges: (a.u.)
   Center  Symbol    Alpha    Beta     Spin     Total
       1     O     4.20239  4.20239  0.00000 -0.40479
       2     C     2.81526  2.81526  0.00000  0.36948
       3     C     3.13991  3.13991  0.00000 -0.27983
       4     O     4.14490  4.14490  0.00000 -0.28980
       5     H     0.44211  0.44211  0.00000  0.11577
       6     H     0.44190  0.44190  0.00000  0.11620
       7     H     0.44213  0.44213  0.00000  0.11574
       8     C     2.97833  2.97833  0.00000  0.04335
       9     C     3.08503  3.08503  0.00000 -0.17005
      10     H     0.45401  0.45401  0.00000  0.09199
      11     H     0.45306  0.45306  0.00000  0.09387
      12     C     3.10472  3.10472  0.00000 -0.20944
      13     H     0.44947  0.44947  0.00000  0.10107
      14     H     0.45075  0.45075  0.00000  0.09851
      15     C     3.09074  3.09074  0.00000 -0.18148
      16     H     0.45183  0.45183  0.00000  0.09634
      17     H     0.44740  0.44740  0.00000  0.10520
      18     C     3.15244  3.15244  0.00000 -0.30488
      19     H     0.45356  0.45356  0.00000  0.09289
      20     H     0.44710  0.44710  0.00000  0.10581
      21     H     0.45314  0.45314  0.00000  0.09373
      22     H     0.44558  0.44558  0.00000  0.10885
      23     H     0.45426  0.45426  0.00000  0.09148

   Total alpha = 36.00000, Total beta = 36.00000, Total charge = -0.00000

*** Psi4 exiting successfully. Buy a developer a beer!
