                              Psi4 1.0.54 Driver

  ==> Input File <==

--------------------------------------------------------------------------
set {
	reference rhf
	basis cc-pvtz
}

set_num_threads( 4 )
memory 2 gb

molecule MOL {
0 1

H	 1.837606	 2.427208	 -0.283845
N	 1.011594	 1.873658	 -0.366760
C	 1.263552	 0.494993	 0.021953
H	 0.715598	 1.927007	 -1.319061
C	 -0.016533	 -0.325589	 -0.026925
H	 1.645457	 0.501551	 1.037384
H	 2.022856	 0.012165	 -0.594747
C	 -1.280353	 0.525521	 0.047747
H	 -0.016686	 -0.912532	 -0.939714
H	 -0.014099	 -1.037598	 0.796369
C	 -2.560681	 -0.301323	 -0.007747
H	 -1.279957	 1.241025	 -0.770189
H	 -1.270445	 1.110526	 0.963468
H	 -2.617064	 -0.872870	 -0.928010
H	 -3.439525	 0.331102	 0.043462
H	 -2.609427	 -1.002736	 0.818585

	symmetry c1
}
set optking {
	frozen_dihedral = ("
		6 3 5 9
	")
}

ee,wfn = optimize('scf', return_wfn=True)
oeprop( wfn, 'DIPOLE', 'QUADRUPOLE', 'MULLIKEN_CHARGES')
f=open( 'psi4out.xyz', 'w' )
f.write( "16  " )
f.write( str(ee) + "\n" )
f.write( MOL.save_string_xyz() )
f.close()
--------------------------------------------------------------------------

    Molecular point group: c1
  Charge       = 0
  Multiplicity = 1
  Basis Set: CC-PVTZ
  Basis Set:
  @DF-RHF Final Energy:  -212.39087527002667
    Total Energy =                       -212.3908752700265268
    Molecular point group: c1
  Basis Set: CC-PVTZ
  Basis Set:
  Basis Set: CC-PVTZ
  Basis Set:
  @DF-RHF Final Energy:  -212.39212040037191
    Total Energy =                       -212.3921204003719367
  Basis Set: CC-PVTZ
  Basis Set:
  Basis Set: CC-PVTZ
  Basis Set:
  @DF-RHF Final Energy:  -212.39368876977159
    Total Energy =                       -212.3936887697714724
  Basis Set: CC-PVTZ
  Basis Set:
  Basis Set: CC-PVTZ
  Basis Set:
  @DF-RHF Final Energy:  -212.39381391606926
    Total Energy =                       -212.3938139160690639
  Basis Set: CC-PVTZ
  Basis Set:
  Basis Set: CC-PVTZ
  Basis Set:
  @DF-RHF Final Energy:  -212.39382406009565
    Total Energy =                       -212.3938240600956533
  Basis Set: CC-PVTZ
  Basis Set:
  Charge       = 0
  Multiplicity = 1
  Basis Set: CC-PVTZ
  Basis Set:

    Orbital Energies (a.u.)
    -----------------------

    Doubly Occupied:

       1A    -15.527656     2A    -11.239284     3A    -11.208610
       4A    -11.204866     5A    -11.201263     6A     -1.178685
       7A     -1.053296     8A     -0.958649     9A     -0.850314
      10A     -0.778484    11A     -0.668743    12A     -0.625872
      13A     -0.612339    14A     -0.576575    15A     -0.560537
      16A     -0.523646    17A     -0.498340    18A     -0.469177
      19A     -0.462991    20A     -0.452560    21A     -0.381429

  @DF-RHF Final Energy:  -212.39382501303621

   => Energetics <=

    Nuclear Repulsion Energy =            189.1900741232193752
    One-Electron Energy =                -661.1011649623421818
    Two-Electron Energy =                 259.5172658260864296
    DFT Exchange-Correlation Energy =       0.0000000000000000
    Empirical Dispersion Energy =           0.0000000000000000
    PCM Polarization Energy =               0.0000000000000000
    EFP Energy =                            0.0000000000000000
    Total Energy =                       -212.3938250130364054
    Molecular point group: c1
  Basis Set: CC-PVTZ
  Basis Set:

  -Total Gradient:
     Atom            X                  Y                   Z
    ------   -----------------  -----------------  -----------------
       1        0.000009487884    -0.000016431288     0.000002281705
       2       -0.000039447293     0.000034898222     0.000029092424
       3       -0.003434341475     0.005310627507     0.002542518157
       4       -0.000000789168    -0.000010524169    -0.000011717128
       5       -0.002538249325     0.005155505499    -0.003942039072
       6        0.003308505239    -0.005350499604    -0.001484307555
       7       -0.000011490185     0.000004910176    -0.000006437605
       8        0.000014632269     0.000018701774    -0.000110025537
       9        0.002692479296    -0.005128036661     0.002868512745
      10        0.000004373721     0.000002860251     0.000020937646
      11       -0.000016099996    -0.000013168390     0.000046621251
      12        0.000010617038    -0.000009429173     0.000008738366
      13       -0.000003515950     0.000013611739     0.000027689687
      14        0.000009668619     0.000008483604    -0.000008420349
      15        0.000006577720    -0.000002145166     0.000006376410
      16       -0.000012408396    -0.000019364320     0.000010178856

  **** Optimization is complete! (in 6 steps) ****
    Final optimized geometry and variables:
    Molecular point group: c1

    Geometry (in Angstrom), charge = 0, multiplicity = 1:

    H            2.321934399704     1.887195300145    -0.083550508776
    N            1.458532901240     1.419666676054    -0.261120077344
    C            1.553880047338     0.016707998249     0.107367447286
    H            1.267031841272     1.521812751287    -1.236099519451
    C            0.231807961399    -0.756605632193    -0.034733143392
    H            1.902470365783    -0.053513992507     1.131239722733
    H            2.308388339196    -0.511798893181    -0.476584852319
    C           -1.047978693414     0.052950652129     0.144406818874
    H            0.220640490518    -1.294353767389    -0.979506620155
    H            0.244132446571    -1.545613357440     0.713614564741
    C           -2.296026071725    -0.823362205165     0.103403690687
    H           -1.117627604310     0.815366102177    -0.622003816143
    H           -1.005659607789     0.585842694104     1.088504400632
    H           -2.375745671014    -1.350076261226    -0.842331730469
    H           -3.194662593258    -0.229593461384     0.226274168670
    H           -2.281658760981    -1.567620427171     0.893056510865

  Mulliken Charges: (a.u.)
   Center  Symbol    Alpha    Beta     Spin     Total
       1     H     0.42908  0.42908  0.00000  0.14183
       2     N     3.68562  3.68562  0.00000 -0.37124
       3     C     3.03599  3.03599  0.00000 -0.07197
       4     H     0.43186  0.43186  0.00000  0.13629
       5     C     3.09987  3.09987  0.00000 -0.19975
       6     H     0.45551  0.45551  0.00000  0.08898
       7     H     0.46251  0.46251  0.00000  0.07497
       8     C     3.07135  3.07135  0.00000 -0.14270
       9     H     0.45293  0.45293  0.00000  0.09414
      10     H     0.45473  0.45473  0.00000  0.09054
      11     C     3.15137  3.15137  0.00000 -0.30275
      12     H     0.45558  0.45558  0.00000  0.08885
      13     H     0.45143  0.45143  0.00000  0.09714
      14     H     0.45710  0.45710  0.00000  0.08579
      15     H     0.44869  0.44869  0.00000  0.10263
      16     H     0.45638  0.45638  0.00000  0.08724

   Total alpha = 21.00000, Total beta = 21.00000, Total charge = -0.00000

*** Psi4 exiting successfully. Buy a developer a beer!
