  ==> Input File <==

--------------------------------------------------------------------------
set {
	reference rhf
	basis 6-31G*
}

set_num_threads( 4 )
memory 2 gb

molecule MOL {
0 1

O	 0.625848	 1.349995	 -0.000749
C	 0.486307	 0.169203	 0.000779
C	 1.608116	 -0.841643	 0.000302
O	 -0.698257	 -0.426125	 0.001050
C	 2.990107	 -0.200498	 -0.000684
H	 1.468623	 -1.481519	 -0.865924
H	 1.469683	 -1.481289	 0.866878
H	 3.129736	 0.423364	 -0.875135
H	 3.757882	 -0.966877	 -0.001197
H	 3.130964	 0.423383	 0.873533
C	 -0.727671	 -1.832670	 -0.218419
C	 -2.176578	 -2.269304	 -0.170166
H	 -0.137410	 -2.320975	 0.544951
H	 -0.276441	 -2.049486	 -1.177050
H	 -2.615505	 -2.040302	 0.794230
H	 -2.245398	 -3.339950	 -0.333351
H	 -2.755385	 -1.767423	 -0.937209

	symmetry c1
}
set optking {
	frozen_dihedral = ("
		11 4 2 3
	")
}

ee = optimize('scf')
oeprop('DIPOLE', 'QUADRUPOLE', 'MULLIKEN_CHARGES')
f=open( 'psi4out.xyz', 'w' )
f.write( "17  " )
f.write( str(ee) + "\n" )
f.write( MOL.save_string_xyz() )
f.close()
--------------------------------------------------------------------------

    Molecular point group: c1
  Charge       = 0
  Multiplicity = 1
  Basis Set: 6-31G*
  Basis Set:
  @DF-RHF Final Energy:  -344.88472798280168
    Total Energy =                       -344.8847279828017349
    Molecular point group: c1
  Basis Set: 6-31G*
  Basis Set:
  Basis Set: 6-31G*
  Basis Set:
  @DF-RHF Final Energy:  -344.88270735934924
    Total Energy =                       -344.8827073593491832
  Basis Set: 6-31G*
  Basis Set:
  Basis Set: 6-31G*
  Basis Set:
  @DF-RHF Final Energy:  -344.89324658595825
    Total Energy =                       -344.8932465859585363
  Basis Set: 6-31G*
  Basis Set:
  Basis Set: 6-31G*
  Basis Set:
  @DF-RHF Final Energy:  -344.89596374600768
    Total Energy =                       -344.8959637460076237
  Basis Set: 6-31G*
  Basis Set:
  @DF-RHF Final Energy:  -344.89448379426625
    Total Energy =                       -344.8944837942663071
  @DF-RHF Final Energy:  -344.89674332485924
    Total Energy =                       -344.8967433248593579
  Basis Set: 6-31G*
  Basis Set:
  @DF-RHF Final Energy:  -344.89707147027519
    Total Energy =                       -344.8970714702752502
  Basis Set: 6-31G*
  Basis Set:
  Basis Set: 6-31G*
  Basis Set:
  @DF-RHF Final Energy:  -344.89708574160971
    Total Energy =                       -344.8970857416096010
  Basis Set: 6-31G*
  Basis Set:
  Basis Set: 6-31G*
  Basis Set:
  @DF-RHF Final Energy:  -344.89708413455025
    Total Energy =                       -344.8970841345506528
  Basis Set: 6-31G*
  Basis Set:
  Charge       = 0
  Multiplicity = 1
  Basis Set: 6-31G*
  Basis Set:

    Orbital Energies (a.u.)
    -----------------------

    Doubly Occupied:

       1A    -20.599167     2A    -20.538066     3A    -11.372724
       4A    -11.300235     5A    -11.247405     6A    -11.227753
       7A    -11.219757     8A     -1.461396     9A     -1.363557
      10A     -1.063699    11A     -1.047507    12A     -0.901177
      13A     -0.881845    14A     -0.771211    15A     -0.705410
      16A     -0.696449    17A     -0.654042    18A     -0.634554
      19A     -0.588496    20A     -0.575669    21A     -0.560833
      22A     -0.538448    23A     -0.524353    24A     -0.521719
      25A     -0.507441    26A     -0.498244    27A     -0.443161
      28A     -0.430036

  @DF-RHF Final Energy:  -344.89708789867944

   => Energetics <=

    Nuclear Repulsion Energy =            315.2844705418434046
    One-Electron Energy =               -1094.6144140513411003
    Two-Electron Energy =                 434.4328556108180237
    DFT Exchange-Correlation Energy =       0.0000000000000000
    Empirical Dispersion Energy =           0.0000000000000000
    PCM Polarization Energy =               0.0000000000000000
    EFP Energy =                            0.0000000000000000
    Total Energy =                       -344.8970878986797288
    Molecular point group: c1
  Basis Set: 6-31G*
  Basis Set:

  -Total Gradient:
     Atom            X                  Y                   Z
    ------   -----------------  -----------------  -----------------
       1        0.000060419347     0.000002300394    -0.000000863907
       2       -0.000033755056     0.000091751525    -0.001240221946
       3        0.000000929966     0.000013134089     0.000575776655
       4        0.000090338608    -0.000236041292     0.001324781429
       5       -0.000006609007    -0.000002663204    -0.000007589821
       6       -0.000005090541     0.000023270622     0.000008317150
       7        0.000004012502     0.000006720399    -0.000002652859
       8       -0.000000097413     0.000000946276    -0.000003794495
       9       -0.000002084511     0.000004046446     0.000000252743
      10        0.000000237745     0.000002410230     0.000006855461
      11       -0.000073916551     0.000139822084    -0.000675320902
      12       -0.000008218655    -0.000029352659     0.000010057430
      13       -0.000014030590     0.000011544623    -0.000005923868
      14       -0.000000667999    -0.000027283749     0.000004407085
      15       -0.000008211299    -0.000000967192     0.000001914239
      16       -0.000009689828     0.000001262749     0.000003023075
      17        0.000006433285    -0.000000901344     0.000000982531

  **** Optimization is complete! (in 10 steps) ****
    Final optimized geometry and variables:
    Molecular point group: c1

    Geometry (in Angstrom), charge = 0, multiplicity = 1:

    O            0.300117938427     1.841915296869     0.075158392389
    C            0.244599720055     0.659168053568     0.045962586345
    C            1.476900022799    -0.225356039568     0.054966516049
    O           -0.951471431477     0.066727094927     0.036825283889
    C            2.769159685430     0.583044171431     0.071607360195
    H            1.450676705370    -0.880206412886    -0.810978194546
    H            1.422596018406    -0.874339496543     0.924796085795
    H            2.839928069006     1.219256673672    -0.801501054579
    H            3.624203995756    -0.084545822450     0.081977272142
    H            2.817568459866     1.218959397588     0.946136534122
    C           -1.140420972415    -1.320850903645    -0.169326518439
    C           -2.631699604838    -1.581488013385    -0.111365613333
    H           -0.625591791146    -1.889537738864     0.595854547128
    H           -0.741295538888    -1.609419447848    -1.134978812097
    H           -3.029219442693    -1.292037789131     0.854066366536
    H           -2.831651672836    -2.636640015475    -0.267679299453
    H           -3.145281194372    -1.012909302315    -0.877164627984

  Mulliken Charges: (a.u.)
   Center  Symbol    Alpha    Beta     Spin     Total
       1     O     4.26842  4.26842  0.00000 -0.53683
       2     C     2.59973  2.59973  0.00000  0.80054
       3     C     3.23079  3.23079  0.00000 -0.46158
       4     O     4.30801  4.30801  0.00000 -0.61602
       5     C     3.23420  3.23420  0.00000 -0.46841
       6     H     0.40483  0.40483  0.00000  0.19034
       7     H     0.40275  0.40275  0.00000  0.19450
       8     H     0.40779  0.40779  0.00000  0.18443
       9     H     0.41941  0.41941  0.00000  0.16118
      10     H     0.40664  0.40664  0.00000  0.18673
      11     C     3.00364  3.00364  0.00000 -0.00729
      12     C     3.24471  3.24471  0.00000 -0.48942
      13     H     0.41901  0.41901  0.00000  0.16198
      14     H     0.41810  0.41810  0.00000  0.16379
      15     H     0.40754  0.40754  0.00000  0.18492
      16     H     0.41789  0.41789  0.00000  0.16421
      17     H     0.40654  0.40654  0.00000  0.18692

   Total alpha = 28.00000, Total beta = 28.00000, Total charge = -0.00000
