                              Psi4 1.0.54 Driver

  ==> Input File <==

--------------------------------------------------------------------------
set {
	reference rhf
	basis cc-pvtz
}

set_num_threads( 4 )
memory 2 gb

molecule MOL {
0 1

H	 -2.266619	 1.169943	 0.000098
O	 -1.438073	 1.611259	 0.000041
C	 -0.408657	 0.734701	 0.000005
C	 -0.732806	 -0.609299	 0.000056
C	 0.917855	 1.150006	 -0.000117
H	 -1.767953	 -0.889302	 0.000135
C	 0.266854	 -1.558851	 0.000005
C	 1.901462	 0.174277	 -0.000166
C	 1.269939	 2.617057	 -0.000187
H	 0.007661	 -2.600388	 0.000051
C	 1.592860	 -1.171374	 -0.000098
H	 2.931566	 0.478996	 -0.000251
H	 0.880432	 3.125121	 0.877580
H	 2.341929	 2.752255	 -0.000286
H	 0.880275	 3.125070	 -0.877917
H	 2.375803	 -1.904429	 -0.000133

	symmetry c1
}
set optking {
	frozen_dihedral = ("
		4 3 2 1
	")
}

ee,wfn = optimize('scf', return_wfn=True)
oeprop( wfn, 'DIPOLE', 'QUADRUPOLE', 'MULLIKEN_CHARGES')
f=open( 'psi4out.xyz', 'w' )
f.write( "16  " )
f.write( str(ee) + "\n" )
f.write( MOL.save_string_xyz() )
f.close()
--------------------------------------------------------------------------

    Molecular point group: c1
  Charge       = 0
  Multiplicity = 1
  Basis Set: CC-PVTZ
  Basis Set:
  @DF-RHF Final Energy:  -344.71795806495305
    Total Energy =                       -344.7179580649531090
    Molecular point group: c1
  Basis Set: CC-PVTZ
  Basis Set:
  Basis Set: CC-PVTZ
  Basis Set:
  @DF-RHF Final Energy:  -344.72015653134525
    Total Energy =                       -344.7201565313454239
  Basis Set: CC-PVTZ
  Basis Set:
  Basis Set: CC-PVTZ
  Basis Set:
  @DF-RHF Final Energy:  -344.72038615506028
    Total Energy =                       -344.7203861550601687
  Basis Set: CC-PVTZ
  Basis Set:
  Basis Set: CC-PVTZ
  Basis Set:
  @DF-RHF Final Energy:  -344.72040706337145
    Total Energy =                       -344.7204070633712263
  Basis Set: CC-PVTZ
  Basis Set:
  Charge       = 0
  Multiplicity = 1
  Basis Set: CC-PVTZ
  Basis Set:

    Orbital Energies (a.u.)
    -----------------------

    Doubly Occupied:

       1A    -20.583512     2A    -11.291733     3A    -11.228964
       4A    -11.228656     5A    -11.225934     6A    -11.223614
       7A    -11.216585     8A    -11.212827     9A     -1.413795
      10A     -1.152841    11A     -1.047531    12A     -1.006234
      13A     -0.931980    14A     -0.849175    15A     -0.802442
      16A     -0.735972    17A     -0.675990    18A     -0.653646
      19A     -0.604127    20A     -0.603892    21A     -0.581364
      22A     -0.560817    23A     -0.552922    24A     -0.541917
      25A     -0.502351    26A     -0.483412    27A     -0.478499
      28A     -0.333847    29A     -0.308244

  @DF-RHF Final Energy:  -344.72041216216854

   => Energetics <=

    Nuclear Repulsion Energy =            351.0433984487175962
    One-Electron Energy =               -1163.4619788136415082
    Two-Electron Energy =                 467.6981682027556531
    DFT Exchange-Correlation Energy =       0.0000000000000000
    Empirical Dispersion Energy =           0.0000000000000000
    PCM Polarization Energy =               0.0000000000000000
    EFP Energy =                            0.0000000000000000
    Total Energy =                       -344.7204121621682020
    Molecular point group: c1
  Basis Set: CC-PVTZ
  Basis Set:

  -Total Gradient:
     Atom            X                  Y                   Z
    ------   -----------------  -----------------  -----------------
       1        0.000009214336     0.000039131927    -0.000000074901
       2        0.000069957929    -0.000139010264    -0.000000404687
       3       -0.000067475124     0.000144929606     0.000001156583
       4        0.000000127186    -0.000022805882    -0.000000142170
       5       -0.000052704078     0.000053230231    -0.000000326748
       6        0.000025837521    -0.000005816992    -0.000000044992
       7       -0.000075625475    -0.000020027381    -0.000000168549
       8        0.000012569991    -0.000121949042    -0.000000245357
       9        0.000066284852     0.000021690945     0.000000145642
      10        0.000032331273    -0.000024565629    -0.000000025209
      11        0.000073761123     0.000124688630     0.000000221735
      12       -0.000000428948     0.000020870877     0.000000006909
      13       -0.000017108184    -0.000005726377    -0.000000712830
      14       -0.000022936674    -0.000022092954    -0.000000075829
      15       -0.000017044114    -0.000005742623     0.000000704170
      16       -0.000036761613    -0.000036805068    -0.000000013766

  **** Optimization is complete! (in 5 steps) ****
    Final optimized geometry and variables:
    Molecular point group: c1

    Geometry (in Angstrom), charge = 0, multiplicity = 1:

    H           -2.602134508229     0.857946273630     0.000157356771
    O           -1.743486236590     1.239890865189     0.000090609105
    C           -0.790329946035     0.280351489619     0.000053935150
    C           -1.108634659411    -1.062107590601     0.000114206335
    C            0.536378874849     0.703698019676    -0.000059189981
    H           -2.140061367871    -1.366174561446     0.000197579488
    C           -0.103039459541    -2.012979237905     0.000065798589
    C            1.518750122357    -0.266555960375    -0.000105308699
    C            0.863650811521     2.173693233046    -0.000127232053
    H           -0.359422636801    -3.055155868104     0.000113223712
    C            1.215587356696    -1.618919628269    -0.000042856568
    H            2.547876982765     0.041234054633    -0.000192062835
    H            0.448761898349     2.666431586295     0.871022728185
    H            1.934599054069     2.325040454274    -0.000215628229
    H            0.448626335976     2.666380633961    -0.871241409580
    H            2.002463904883    -2.347805354866    -0.000081430485

  Mulliken Charges: (a.u.)
   Center  Symbol    Alpha    Beta     Spin     Total
       1     H     0.39056  0.39056  0.00000  0.21889
       2     O     4.17028  4.17028  0.00000 -0.34056
       3     C     2.86225  2.86225  0.00000  0.27550
       4     C     3.13352  3.13352  0.00000 -0.26704
       5     C     2.99675  2.99675  0.00000  0.00650
       6     H     0.43743  0.43743  0.00000  0.12515
       7     C     3.07184  3.07184  0.00000 -0.14367
       8     C     3.08182  3.08182  0.00000 -0.16364
       9     C     3.14437  3.14437  0.00000 -0.28874
      10     H     0.42263  0.42263  0.00000  0.15475
      11     C     3.09137  3.09137  0.00000 -0.18273
      12     H     0.42522  0.42522  0.00000  0.14956
      13     H     0.44644  0.44644  0.00000  0.10712
      14     H     0.45415  0.45415  0.00000  0.09170
      15     H     0.44644  0.44644  0.00000  0.10712
      16     H     0.42496  0.42496  0.00000  0.15008

   Total alpha = 29.00000, Total beta = 29.00000, Total charge = -0.00000

*** Psi4 exiting successfully. Buy a developer a beer!
