                              Psi4 1.0.54 Driver

  ==> Input File <==

--------------------------------------------------------------------------
set {
	reference rhf
	basis cc-pvtz
}

set_num_threads( 4 )
memory 2 gb

molecule MOL {
0 1

H	 -1.732323	 -1.348258	 1.472461
N	 -0.949440	 -0.732131	 1.417201
C	 -0.561396	 -0.500007	 0.035200
H	 -0.204532	 -1.155377	 1.930340
C	 0.575129	 0.507849	 -0.048832
H	 -1.425357	 -0.107708	 -0.491004
H	 -0.267820	 -1.413931	 -0.483424
C	 1.951750	 -0.141983	 0.035101
H	 0.478254	 1.061643	 -0.975981
H	 0.467676	 1.231891	 0.755499
H	 2.101550	 -0.848142	 -0.774949
H	 2.738260	 0.600794	 -0.026526
H	 2.078939	 -0.679792	 0.968824

	symmetry c1
}
set optking {
	frozen_dihedral = ("
		6 3 5 9
	")
}

ee,wfn = optimize('scf', return_wfn=True)
oeprop( wfn, 'DIPOLE', 'QUADRUPOLE', 'MULLIKEN_CHARGES')
f=open( 'psi4out.xyz', 'w' )
f.write( "13  " )
f.write( str(ee) + "\n" )
f.write( MOL.save_string_xyz() )
f.close()
--------------------------------------------------------------------------

    Molecular point group: c1
  Charge       = 0
  Multiplicity = 1
  Basis Set: CC-PVTZ
  Basis Set:
  @DF-RHF Final Energy:  -173.34913209496256
    Total Energy =                       -173.3491320949624992
    Molecular point group: c1
  Basis Set: CC-PVTZ
  Basis Set:
  Basis Set: CC-PVTZ
  Basis Set:
  @DF-RHF Final Energy:  -173.34943646359636
    Total Energy =                       -173.3494364635963620
  Basis Set: CC-PVTZ
  Basis Set:
  Basis Set: CC-PVTZ
  Basis Set:
  @DF-RHF Final Energy:  -173.34950917283174
    Total Energy =                       -173.3495091728316027
  Basis Set: CC-PVTZ
  Basis Set:
  Charge       = 0
  Multiplicity = 1
  Basis Set: CC-PVTZ
  Basis Set:

    Orbital Energies (a.u.)
    -----------------------

    Doubly Occupied:

       1A    -15.527197     2A    -11.238442     3A    -11.210216
       4A    -11.208436     5A     -1.178410     6A     -1.033814
       7A     -0.906109     8A     -0.794239     9A     -0.668276
      10A     -0.635870    11A     -0.580234    12A     -0.564620
      13A     -0.558569    14A     -0.484594    15A     -0.478336
      16A     -0.467819    17A     -0.383630

  @DF-RHF Final Energy:  -173.34950994867529

   => Energetics <=

    Nuclear Repulsion Energy =            133.1710354916871211
    One-Electron Energy =                -497.2034618135592154
    Two-Electron Energy =                 190.6829163731966901
    DFT Exchange-Correlation Energy =       0.0000000000000000
    Empirical Dispersion Energy =           0.0000000000000000
    PCM Polarization Energy =               0.0000000000000000
    EFP Energy =                            0.0000000000000000
    Total Energy =                       -173.3495099486754043
    Molecular point group: c1
  Basis Set: CC-PVTZ
  Basis Set:

  -Total Gradient:
     Atom            X                  Y                   Z
    ------   -----------------  -----------------  -----------------
       1       -0.000034134479    -0.000024750539     0.000017688959
       2       -0.000017369163    -0.000008571158     0.000045043520
       3       -0.002086343980     0.002882021255     0.004636696049
       4        0.000006253251    -0.000007029850    -0.000004566782
       5        0.003127276317    -0.003816946176    -0.003153630676
       6        0.001283511093    -0.001796946896    -0.003430510116
       7        0.000000590268    -0.000003509808     0.000016788511
       8        0.000031075408    -0.000020760668     0.000001480732
       9       -0.002275269117     0.002796388931     0.001872206713
      10        0.000008657836    -0.000024690540    -0.000004596755
      11       -0.000022632197     0.000010818889     0.000004179611
      12       -0.000006453152     0.000005930809    -0.000001912459
      13       -0.000015162085     0.000008045751     0.000001132692

  **** Optimization is complete! (in 4 steps) ****
    Final optimized geometry and variables:
    Molecular point group: c1

    Geometry (in Angstrom), charge = 0, multiplicity = 1:

    H           -1.962238419807    -1.149744667780     1.081774550447
    N           -1.193879044691    -0.514305932922     1.036031431471
    C           -0.819105140407    -0.253458782244    -0.345634769725
    H           -0.440350564470    -0.935110184680     1.538177252053
    C            0.326676009435     0.753915663908    -0.444093644680
    H           -1.684467699441     0.132897234083    -0.870656897591
    H           -0.534415988059    -1.161547702707    -0.881062266085
    C            1.715234763979     0.133141697342    -0.329975350872
    H            0.238026626198     1.305528708368    -1.374335730420
    H            0.189316873140     1.487172228377     0.343805475601
    H            1.896594001455    -0.572088977054    -1.134044173925
    H            2.487034161184     0.892702088917    -0.374933106390
    H            1.838937449082    -0.398011684881     0.608412208080

  Mulliken Charges: (a.u.)
   Center  Symbol    Alpha    Beta     Spin     Total
       1     H     0.42929  0.42929  0.00000  0.14143
       2     N     3.68823  3.68823  0.00000 -0.37645
       3     C     3.02825  3.02825  0.00000 -0.05651
       4     H     0.43092  0.43092  0.00000  0.13816
       5     C     3.08994  3.08994  0.00000 -0.17989
       6     H     0.45290  0.45290  0.00000  0.09420
       7     H     0.47009  0.47009  0.00000  0.05981
       8     C     3.14634  3.14634  0.00000 -0.29268
       9     H     0.45215  0.45215  0.00000  0.09569
      10     H     0.44976  0.44976  0.00000  0.10049
      11     H     0.45546  0.45546  0.00000  0.08909
      12     H     0.44763  0.44763  0.00000  0.10475
      13     H     0.45905  0.45905  0.00000  0.08191

   Total alpha = 17.00000, Total beta = 17.00000, Total charge = -0.00000

*** Psi4 exiting successfully. Buy a developer a beer!
