                              Psi4 1.0.54 Driver

  ==> Input File <==

--------------------------------------------------------------------------
set {
	reference rhf
	basis cc-pvtz
}

set_num_threads( 4 )
memory 2 gb

molecule MOL {
0 1

H	 -3.268214	 -0.875720	 0.463107
C	 -2.806015	 0.000007	 0.024886
N	 -1.391133	 0.000016	 0.301321
H	 -3.029448	 0.000055	 -1.045738
H	 -3.268126	 0.875758	 0.463150
C	 -0.938707	 1.257436	 0.856103
C	 -0.604122	 -0.364549	 -0.856797
H	 -1.098985	 2.082825	 0.156179
H	 -1.510718	 1.471876	 1.751035
C	 0.535258	 1.188614	 1.209238
H	 -0.931863	 -1.334218	 -1.212350
H	 -0.741588	 0.350273	 -1.673486
C	 0.869843	 -0.433371	 -0.503662
H	 0.862999	 2.158283	 1.564791
H	 0.672724	 0.473792	 2.025926
N	 1.322269	 0.824049	 0.051120
H	 1.441854	 -0.647811	 -1.398594
H	 1.030121	 -1.258760	 0.196262
C	 2.737151	 0.824058	 0.327555
H	 3.044591	 1.800179	 0.681436
H	 3.290511	 0.607874	 -0.577773
H	 3.022296	 0.085716	 1.082341

	symmetry c1
}
set optking {
	frozen_dihedral = ("
		6 3 2 4
	")
}

ee,wfn = optimize('scf', return_wfn=True)
oeprop( wfn, 'DIPOLE', 'QUADRUPOLE', 'MULLIKEN_CHARGES')
f=open( 'psi4out.xyz', 'w' )
f.write( "22  " )
f.write( str(ee) + "\n" )
f.write( MOL.save_string_xyz() )
f.close()
--------------------------------------------------------------------------

    Molecular point group: c1
  Charge       = 0
  Multiplicity = 1
  Basis Set: CC-PVTZ
  Basis Set:
  @DF-RHF Final Energy:  -344.34472301689442
    Total Energy =                       -344.3447230168944770
    Molecular point group: c1
  Basis Set: CC-PVTZ
  Basis Set:
  Basis Set: CC-PVTZ
  Basis Set:
  @DF-RHF Final Energy:  -344.34529336151462
    Total Energy =                       -344.3452933615144502
  Basis Set: CC-PVTZ
  Basis Set:
  Basis Set: CC-PVTZ
  Basis Set:
  @DF-RHF Final Energy:  -344.34541976226086
    Total Energy =                       -344.3454197622611446
  Basis Set: CC-PVTZ
  Basis Set:
  Basis Set: CC-PVTZ
  Basis Set:
  @DF-RHF Final Energy:  -344.34542832401200
    Total Energy =                       -344.3454283240122322
  Basis Set: CC-PVTZ
  Basis Set:
  Charge       = 0
  Multiplicity = 1
  Basis Set: CC-PVTZ
  Basis Set:

    Orbital Energies (a.u.)
    -----------------------

    Doubly Occupied:

       1A    -15.537211     2A    -15.533545     3A    -11.237409
       4A    -11.237351     5A    -11.236419     6A    -11.236349
       7A    -11.234121     8A    -11.233926     9A     -1.255257
      10A     -1.203478    11A     -1.025821    12A     -0.991957
      13A     -0.912724    14A     -0.868060    15A     -0.836485
      16A     -0.753873    17A     -0.665969    18A     -0.636619
      19A     -0.632106    20A     -0.625664    21A     -0.620479
      22A     -0.580177    23A     -0.551658    24A     -0.549977
      25A     -0.543078    26A     -0.518978    27A     -0.498017
      28A     -0.488514    29A     -0.467000    30A     -0.456694
      31A     -0.351008    32A     -0.340484

  @DF-RHF Final Energy:  -344.34542894282248

   => Energetics <=

    Nuclear Repulsion Energy =            421.4193851755435958
    One-Electron Energy =               -1301.8088100393756577
    Two-Electron Energy =                 536.0439959210095822
    DFT Exchange-Correlation Energy =       0.0000000000000000
    Empirical Dispersion Energy =           0.0000000000000000
    PCM Polarization Energy =               0.0000000000000000
    EFP Energy =                            0.0000000000000000
    Total Energy =                       -344.3454289428225366
    Molecular point group: c1
  Basis Set: CC-PVTZ
  Basis Set:

  -Total Gradient:
     Atom            X                  Y                   Z
    ------   -----------------  -----------------  -----------------
       1        0.000006213186     0.000006200335    -0.000003557012
       2       -0.000422600752     0.004016670795     0.001106306721
       3        0.000691574448     0.000430253832    -0.003429128989
       4        0.000158677069    -0.003448254459    -0.000095563172
       5        0.000016677569    -0.000011219153     0.000008087381
       6       -0.000443965355    -0.000990912251     0.002424571702
       7       -0.000027048089    -0.000019334713    -0.000014503616
       8        0.000005640614    -0.000004353207     0.000004258209
       9        0.000007542451     0.000011266602     0.000002952407
      10        0.000004541386     0.000017133802     0.000002199491
      11        0.000006179041    -0.000004023951    -0.000010952625
      12       -0.000000313572     0.000000224007     0.000003293948
      13       -0.000003252069    -0.000004443168    -0.000004099211
      14        0.000008104239    -0.000001482937     0.000001853405
      15       -0.000009224890     0.000001789379     0.000001540309
      16       -0.000016254016    -0.000004059201     0.000005711267
      17       -0.000000266689     0.000001190658     0.000003030521
      18       -0.000002804519    -0.000007992775    -0.000002263133
      19        0.000009709324     0.000015084038    -0.000007651478
      20        0.000007568389    -0.000002313349     0.000000981088
      21        0.000005490568    -0.000000609708     0.000003315314
      22       -0.000002188332    -0.000000814578    -0.000000382528

  **** Optimization is complete! (in 5 steps) ****
    Final optimized geometry and variables:
    Molecular point group: c1

    Geometry (in Angstrom), charge = 0, multiplicity = 1:

    H           -3.219384112251    -1.330006032607     0.206893703684
    C           -2.788087633270    -0.414511042841    -0.185804302594
    N           -1.362874255229    -0.364457950452     0.075010971131
    H           -3.010497992819    -0.392531026166    -1.250741514789
    H           -3.298911618190     0.417352235336     0.281171654553
    C           -0.903420016078     0.874043483530     0.660946705514
    C           -0.554739372226    -0.765715630704    -1.051997542790
    H           -1.030134303238     1.720261004158    -0.021480353301
    H           -1.486646400607     1.080103913098     1.549967948219
    C            0.561155832817     0.769584133250     1.044739545368
    H           -0.890809752332    -1.736408806275    -1.398074865273
    H           -0.656380808668    -0.066032686205    -1.887169704061
    C            0.908057709444    -0.857739113322    -0.659798541152
    H            0.902560506026     1.729362195856     1.414314251855
    H            0.664277339875     0.046153923151     1.859179986893
    N            1.366293926932     0.394063615462    -0.097324167397
    H            1.499898316898    -1.085212951867    -1.538604980447
    H            1.036373246144    -1.682694854250     0.047430972889
    C            2.774944222895     0.374212718443     0.208292671011
    H            3.089068913280     1.346247394094     0.567643171404
    H            3.343936359352     0.148924175090    -0.685108264562
    H            3.034012608341    -0.367239658072     0.969588942889

  Mulliken Charges: (a.u.)
   Center  Symbol    Alpha    Beta     Spin     Total
       1     H     0.45047  0.45047  0.00000  0.09906
       2     C     3.09356  3.09356  0.00000 -0.18712
       3     N     3.61477  3.61477  0.00000 -0.22954
       4     H     0.46414  0.46414  0.00000  0.07171
       5     H     0.45741  0.45741  0.00000  0.08517
       6     C     3.03472  3.03472  0.00000 -0.06943
       7     C     3.03484  3.03484  0.00000 -0.06969
       8     H     0.46913  0.46913  0.00000  0.06173
       9     H     0.45386  0.45386  0.00000  0.09228
      10     C     3.03662  3.03662  0.00000 -0.07324
      11     H     0.45366  0.45366  0.00000  0.09268
      12     H     0.46857  0.46857  0.00000  0.06286
      13     C     3.03720  3.03720  0.00000 -0.07440
      14     H     0.45409  0.45409  0.00000  0.09182
      15     H     0.46877  0.46877  0.00000  0.06245
      16     N     3.61303  3.61303  0.00000 -0.22606
      17     H     0.45409  0.45409  0.00000  0.09183
      18     H     0.46866  0.46866  0.00000  0.06268
      19     C     3.09823  3.09823  0.00000 -0.19647
      20     H     0.45197  0.45197  0.00000  0.09607
      21     H     0.45196  0.45196  0.00000  0.09607
      22     H     0.47023  0.47023  0.00000  0.05954

   Total alpha = 32.00000, Total beta = 32.00000, Total charge =  0.00000

*** Psi4 exiting successfully. Buy a developer a beer!
