  ==> Input File <==

--------------------------------------------------------------------------
set {
	reference rhf
	basis 6-31G*
}

set_num_threads( 1 )
memory 2 gb

molecule MOL {
0 1

O	 -2.821601	 1.309235	 -0.001213
C	 -2.668563	 0.129746	 -0.000350
C	 -3.801572	 -0.864014	 -0.000442
O	 -1.481751	 -0.454642	 0.000584
H	 -4.417280	 -0.689587	 -0.874708
H	 -3.443784	 -1.883046	 -0.000565
H	 -4.417179	 -0.689832	 0.873954
C	 -0.334255	 0.388708	 0.000906
C	 0.891947	 -0.504646	 0.000751
H	 -0.365390	 1.025305	 -0.873475
H	 -0.365484	 1.024911	 0.875569
C	 2.191998	 0.301789	 0.000897
H	 0.855148	 -1.151283	 -0.871571
H	 0.855132	 -1.151660	 0.872805
C	 3.441114	 -0.581407	 0.000108
H	 2.215074	 0.954890	 -0.869742
H	 2.215465	 0.953923	 0.872248
C	 4.715115	 0.189207	 0.343535
H	 3.551992	 -1.045946	 -0.977125
H	 3.307224	 -1.393634	 0.711045
H	 4.894739	 0.988132	 -0.370235
H	 5.582662	 -0.463112	 0.334784
H	 4.648277	 0.637534	 1.330726

	symmetry c1
}
set optking {
	frozen_dihedral = ("
		13 9 8 10,
		2 4 8 10,
		16 12 9 13,
		1 2 4 8
	")
}

ee = energy('scf')
oeprop('DIPOLE', 'QUADRUPOLE', 'MULLIKEN_CHARGES')
f=open( 'psi4out.xyz', 'w' )
f.write( "23  " )
f.write( str(ee) + "\n" )
f.write( MOL.save_string_xyz() )
f.close()
--------------------------------------------------------------------------

    Molecular point group: c1

    Geometry (in Angstrom), charge = 0, multiplicity = 1:

       Center              X                  Y                   Z               Mass
    ------------   -----------------  -----------------  -----------------  -----------------
           O         -2.818776574777     1.313264455547    -0.041002567214    15.994914619560
           C         -2.665738574777     0.133775455547    -0.040139567214    12.000000000000
           C         -3.798747574777    -0.859984544453    -0.040231567214    12.000000000000
           O         -1.478926574777    -0.450612544453    -0.039205567214    15.994914619560
           H         -4.414455574777    -0.685557544453    -0.914497567214     1.007825032070
           H         -3.440959574777    -1.879016544453    -0.040354567214     1.007825032070
           H         -4.414354574777    -0.685802544453     0.834164432786     1.007825032070
           C         -0.331430574777     0.392737455547    -0.038883567214    12.000000000000
           C          0.894771425223    -0.500616544453    -0.039038567214    12.000000000000
           H         -0.362565574777     1.029334455547    -0.913264567214     1.007825032070
           H         -0.362659574777     1.028940455547     0.835779432786     1.007825032070
           C          2.194822425223     0.305818455547    -0.038892567214    12.000000000000
           H          0.857972425223    -1.147253544453    -0.911360567214     1.007825032070
           H          0.857956425223    -1.147630544453     0.833015432786     1.007825032070
           C          3.443938425223    -0.577377544453    -0.039681567214    12.000000000000
           H          2.217898425223     0.958919455547    -0.909531567214     1.007825032070
           H          2.218289425223     0.957952455547     0.832458432786     1.007825032070
           C          4.717939425223     0.193236455547     0.303745432786    12.000000000000
           H          3.554816425223    -1.041916544453    -1.016914567214     1.007825032070
           H          3.310048425223    -1.389604544453     0.671255432786     1.007825032070
           H          4.897563425223     0.992161455547    -0.410024567214     1.007825032070
           H          5.585486425223    -0.459082544453     0.294994432786     1.007825032070
           H          4.651101425223     0.641563455547     1.290936432786     1.007825032070

  Charge       = 0
  Multiplicity = 1
  Basis Set: 6-31G*
  Basis Set:

    Orbital Energies (a.u.)
    -----------------------

    Doubly Occupied:

       1A    -20.603003     2A    -20.540567     3A    -11.374086
       4A    -11.281433     5A    -11.232418     6A    -11.224419
       7A    -11.223696     8A    -11.221490     9A    -11.213036
      10A     -1.467977    11A     -1.360751    12A     -1.094268
      13A     -1.042249    14A     -1.003436    15A     -0.930903
      16A     -0.841821    17A     -0.802680    18A     -0.774382
      19A     -0.692181    20A     -0.685092    21A     -0.668034
      22A     -0.646114    23A     -0.606322    24A     -0.588737
      25A     -0.582337    26A     -0.567503    27A     -0.557712
      28A     -0.536989    29A     -0.523560    30A     -0.504832
      31A     -0.492178    32A     -0.477248    33A     -0.470378
      34A     -0.465613    35A     -0.451246    36A     -0.435330

  @DF-RHF Final Energy:  -422.97876797331634

   => Energetics <=

    Nuclear Repulsion Energy =            449.7093445978424029
    One-Electron Energy =               -1467.0082940867016532
    Two-Electron Energy =                 594.3201815155422310
    DFT Exchange-Correlation Energy =       0.0000000000000000
    Empirical Dispersion Energy =           0.0000000000000000
    PCM Polarization Energy =               0.0000000000000000
    EFP Energy =                            0.0000000000000000
    Total Energy =                       -422.9787679733170762

  Mulliken Charges: (a.u.)
   Center  Symbol    Alpha    Beta     Spin     Total
       1     O     4.28390  4.28390  0.00000 -0.56779
       2     C     2.61532  2.61532  0.00000  0.76935
       3     C     3.28775  3.28775  0.00000 -0.57550
       4     O     4.31273  4.31273  0.00000 -0.62545
       5     H     0.39750  0.39750  0.00000  0.20501
       6     H     0.39985  0.39985  0.00000  0.20029
       7     H     0.39751  0.39751  0.00000  0.20499
       8     C     2.99568  2.99568  0.00000  0.00863
       9     C     3.16516  3.16516  0.00000 -0.33033
      10     H     0.41067  0.41067  0.00000  0.17865
      11     H     0.41064  0.41064  0.00000  0.17871
      12     C     3.16039  3.16039  0.00000 -0.32079
      13     H     0.41424  0.41424  0.00000  0.17152
      14     H     0.41412  0.41412  0.00000  0.17176
      15     C     3.15169  3.15169  0.00000 -0.30338
      16     H     0.42000  0.42000  0.00000  0.16000
      17     H     0.42090  0.42090  0.00000  0.15821
      18     C     3.24005  3.24005  0.00000 -0.48010
      19     H     0.42064  0.42064  0.00000  0.15872
      20     H     0.42149  0.42149  0.00000  0.15703
      21     H     0.42080  0.42080  0.00000  0.15840
      22     H     0.41817  0.41817  0.00000  0.16367
      23     H     0.42081  0.42081  0.00000  0.15839

   Total alpha = 36.00000, Total beta = 36.00000, Total charge =  0.00000
