                              Psi4 1.0.54 Driver

  ==> Input File <==

--------------------------------------------------------------------------
set {
	reference rhf
	basis cc-pvtz
}

set_num_threads( 4 )
memory 2 gb

molecule MOL {
0 1

H	 -3.436473	 1.252944	 -1.023892
O	 -3.458596	 0.315260	 -0.960865
C	 -3.176635	 -0.080824	 0.355601
C	 -1.763371	 0.265266	 0.799691
H	 -3.321825	 -1.153438	 0.379502
H	 -3.895468	 0.357385	 1.043382
C	 -0.673390	 -0.426948	 -0.013392
H	 -1.631049	 1.344913	 0.747560
H	 -1.664587	 -0.001624	 1.849167
C	 -1.219527	 -1.467242	 -0.987812
H	 0.032782	 -0.896620	 0.662361
H	 -0.113204	 0.324233	 -0.565139
C	 -0.123964	 -2.152708	 -1.802016
H	 -1.786206	 -2.207613	 -0.431382
H	 -1.923799	 -0.991250	 -1.666995
C	 -0.627263	 -3.146537	 -2.850273
H	 0.559585	 -2.661509	 -1.126197
H	 0.462530	 -1.389267	 -2.305804
C	 -1.308967	 -4.387183	 -2.278240
H	 0.216496	 -3.462476	 -3.456101
H	 -1.311063	 -2.639268	 -3.525933
H	 -0.650389	 -4.912163	 -1.593589
H	 -1.578467	 -5.077122	 -3.069818
H	 -2.216168	 -4.140168	 -1.740118

	symmetry c1
}
set optking {
	frozen_dihedral = ("
		11 7 4 3
	")
}

ee,wfn = optimize('scf', return_wfn=True)
oeprop( wfn, 'DIPOLE', 'QUADRUPOLE', 'MULLIKEN_CHARGES')
f=open( 'psi4out.xyz', 'w' )
f.write( "24  " )
f.write( str(ee) + "\n" )
f.write( MOL.save_string_xyz() )
f.close()
--------------------------------------------------------------------------

    Molecular point group: c1
  Charge       = 0
  Multiplicity = 1
  Basis Set: CC-PVTZ
  Basis Set:
  @DF-RHF Final Energy:  -349.36507266153211
    Total Energy =                       -349.3650726615321673
    Molecular point group: c1
  Basis Set: CC-PVTZ
  Basis Set:
  Basis Set: CC-PVTZ
  Basis Set:
  @DF-RHF Final Energy:  -349.36868808348515
    Total Energy =                       -349.3686880834851536
  Basis Set: CC-PVTZ
  Basis Set:
  Basis Set: CC-PVTZ
  Basis Set:
  @DF-RHF Final Energy:  -349.37071766465539
    Total Energy =                       -349.3707176646548760
  Basis Set: CC-PVTZ
  Basis Set:
  Basis Set: CC-PVTZ
  Basis Set:
  @DF-RHF Final Energy:  -349.37099041403422
    Total Energy =                       -349.3709904140340541
  Basis Set: CC-PVTZ
  Basis Set:
  Basis Set: CC-PVTZ
  Basis Set:
  @DF-RHF Final Energy:  -349.37102491849140
    Total Energy =                       -349.3710249184912300
  Basis Set: CC-PVTZ
  Basis Set:
  Basis Set: CC-PVTZ
  Basis Set:
  @DF-RHF Final Energy:  -349.37103119100698
    Total Energy =                       -349.3710311910065229
  Basis Set: CC-PVTZ
  Basis Set:
  Basis Set: CC-PVTZ
  Basis Set:
  @DF-RHF Final Energy:  -349.37103837243279
    Total Energy =                       -349.3710383724326221
  Basis Set: CC-PVTZ
  Basis Set:
  Charge       = 0
  Multiplicity = 1
  Basis Set: CC-PVTZ
  Basis Set:

    Orbital Energies (a.u.)
    -----------------------

    Doubly Occupied:

       1A    -20.546319     2A    -11.265667     3A    -11.216640
       4A    -11.211657     5A    -11.208413     6A    -11.206185
       7A    -11.202749     8A    -11.202055     9A     -1.364110
      10A     -1.085095    11A     -1.044672    12A     -0.983225
      13A     -0.914403    14A     -0.861026    15A     -0.792928
      16A     -0.769401    17A     -0.683089    18A     -0.651919
      19A     -0.621662    20A     -0.619549    21A     -0.595911
      22A     -0.586358    23A     -0.554600    24A     -0.539391
      25A     -0.515860    26A     -0.513742    27A     -0.493678
      28A     -0.480863    29A     -0.467797    30A     -0.458520
      31A     -0.446753    32A     -0.433664    33A     -0.424369

  @DF-RHF Final Energy:  -349.37103814028831

   => Energetics <=

    Nuclear Repulsion Energy =            395.0405661876498016
    One-Electron Energy =               -1256.8986603903765626
    Two-Electron Energy =                 512.4870560624386826
    DFT Exchange-Correlation Energy =       0.0000000000000000
    Empirical Dispersion Energy =           0.0000000000000000
    PCM Polarization Energy =               0.0000000000000000
    EFP Energy =                            0.0000000000000000
    Total Energy =                       -349.3710381402880785
    Molecular point group: c1
  Basis Set: CC-PVTZ
  Basis Set:

  -Total Gradient:
     Atom            X                  Y                   Z
    ------   -----------------  -----------------  -----------------
       1        0.000050989821     0.000011279007     0.000110257572
       2       -0.000010356294    -0.000274685615     0.000030376406
       3        0.000059675027    -0.002083955015     0.002178947478
       4       -0.000582121170     0.002732064999    -0.003114342071
       5       -0.000017865765     0.000059011771    -0.000138270854
       6        0.000010907616    -0.000020427957     0.000040066495
       7        0.002945155066     0.003002517342     0.000605315086
       8       -0.000054353151     0.000003056446     0.000021613354
       9       -0.000037520563    -0.000006389670    -0.000037915659
      10       -0.000079233512    -0.000036499851    -0.000104116588
      11       -0.002391791107    -0.003391464374     0.000241495819
      12       -0.000009511904    -0.000009928570     0.000039560784
      13       -0.000016917728    -0.000003326507     0.000065047824
      14        0.000033123909     0.000093334201     0.000001843881
      15        0.000122103381    -0.000060467508     0.000061354676
      16       -0.000056298374     0.000027143440     0.000029585810
      17       -0.000003261181    -0.000010653786    -0.000012466612
      18        0.000019534134    -0.000015646809     0.000015300858
      19        0.000007558005    -0.000021759819    -0.000024748907
      20       -0.000016220507     0.000020453871     0.000008864945
      21       -0.000006506645    -0.000018012641     0.000025145643
      22       -0.000015751588     0.000021135159    -0.000014936164
      23        0.000019504902     0.000015411279     0.000022707295
      24        0.000029157629    -0.000032189390    -0.000050687070

  **** Optimization is complete! (in 8 steps) ****
    Final optimized geometry and variables:
    Molecular point group: c1

    Geometry (in Angstrom), charge = 0, multiplicity = 1:

    H           -1.934698398950     2.849175836320     0.147036095480
    O           -2.039253195450     1.916593650981     0.201396937683
    C           -1.569112720468     1.458672960300     1.443162115460
    C           -0.082457998207     1.700609910487     1.664733108454
    H           -1.802151958161     0.404785868194     1.478826814438
    H           -2.122387235703     1.934332516739     2.249190057393
    C            0.924697376494     0.924468925663     0.777347704408
    H            0.103778934885     2.767593597289     1.575872467482
    H            0.110679574980     1.460458754785     2.706441377355
    C            0.359088029827    -0.195466824408    -0.100529177204
    H            1.663338714985     0.467590532279     1.427940716526
    H            1.458348618400     1.622724788381     0.142682533600
    C            1.451330548018    -0.874923439676    -0.925180952335
    H           -0.129810918096    -0.932328258800     0.527992276746
    H           -0.399850360307     0.199300219294    -0.764448877771
    C            0.949905648958    -1.955645505032    -1.884852855929
    H            2.195009422413    -1.307042501277    -0.258759585790
    H            1.970664219164    -0.116708987668    -1.505185722726
    C            0.368854395683    -3.193564030621    -1.205926209002
    H            1.777266878096    -2.263342552373    -2.517230870676
    H            0.204540366887    -1.526352638489    -2.548769870290
    H            1.088003460394    -3.637991385524    -0.525028841701
    H            0.102935952225    -3.945450611081    -1.940223829158
    H           -0.525076628356    -2.963300987328    -0.639240617316

  Mulliken Charges: (a.u.)
   Center  Symbol    Alpha    Beta     Spin     Total
       1     H     0.39626  0.39626  0.00000  0.20748
       2     O     4.20545  4.20545  0.00000 -0.41091
       3     C     2.98070  2.98070  0.00000  0.03861
       4     C     3.10644  3.10644  0.00000 -0.21289
       5     H     0.45615  0.45615  0.00000  0.08769
       6     H     0.45452  0.45452  0.00000  0.09097
       7     C     3.09276  3.09276  0.00000 -0.18553
       8     H     0.45392  0.45392  0.00000  0.09215
       9     H     0.45205  0.45205  0.00000  0.09591
      10     C     3.09980  3.09980  0.00000 -0.19960
      11     H     0.45116  0.45116  0.00000  0.09769
      12     H     0.45164  0.45164  0.00000  0.09673
      13     C     3.09513  3.09513  0.00000 -0.19026
      14     H     0.45505  0.45505  0.00000  0.08989
      15     H     0.43994  0.43994  0.00000  0.12012
      16     C     3.08921  3.08921  0.00000 -0.17842
      17     H     0.45603  0.45603  0.00000  0.08795
      18     H     0.45095  0.45095  0.00000  0.09810
      19     C     3.15315  3.15315  0.00000 -0.30629
      20     H     0.44978  0.44978  0.00000  0.10043
      21     H     0.45398  0.45398  0.00000  0.09203
      22     H     0.45597  0.45597  0.00000  0.08807
      23     H     0.44668  0.44668  0.00000  0.10665
      24     H     0.45328  0.45328  0.00000  0.09343

   Total alpha = 33.00000, Total beta = 33.00000, Total charge =  0.00000

*** Psi4 exiting successfully. Buy a developer a beer!
