  ==> Input File <==

--------------------------------------------------------------------------
set {
	reference rhf
	basis 6-31G*
}

set_num_threads( 1 )
memory 2 gb

molecule MOL {
0 1

H	 2.591676	 2.013956	 0.335017
O	 3.341076	 1.666752	 -0.126416
C	 3.569581	 0.339145	 0.272707
C	 2.539767	 -0.640285	 -0.279495
H	 4.553106	 0.084646	 -0.100901
H	 3.608576	 0.269204	 1.359154
C	 1.115811	 -0.397273	 0.226630
H	 2.556196	 -0.582511	 -1.364741
H	 2.852081	 -1.648031	 -0.010655
C	 0.311700	 0.527577	 -0.691452
H	 1.159614	 0.030504	 1.224355
H	 0.595866	 -1.351141	 0.316816
C	 -1.149168	 0.736117	 -0.275861
H	 0.809984	 1.493442	 -0.751981
H	 0.327683	 0.115171	 -1.698113
C	 -1.342761	 1.490438	 1.042471
H	 -1.654408	 1.285922	 -1.067229
H	 -1.646970	 -0.230482	 -0.214888
C	 -2.813795	 1.766095	 1.361077
H	 -0.802667	 2.435133	 0.998209
H	 -0.905278	 0.927553	 1.863490
C	 -3.010217	 2.513312	 2.679693
H	 -3.255666	 2.342220	 0.550942
H	 -3.357006	 0.823981	 1.396111
H	 -2.505485	 3.475200	 2.664196
H	 -4.062308	 2.695308	 2.876207
H	 -2.611354	 1.945571	 3.515721

	symmetry c1
}
set optking {
	frozen_dihedral = ("
		14 10 7 4,
		14 10 13 16,
		8 4 3 2,
		10 13 16 20,
		20 16 19 22,
		4 3 2 1
	")
}

ee = energy('scf')
oeprop('DIPOLE', 'QUADRUPOLE', 'MULLIKEN_CHARGES')
f=open( 'psi4out.xyz', 'w' )
f.write( "27  " )
f.write( str(ee) + "\n" )
f.write( MOL.save_string_xyz() )
f.close()
--------------------------------------------------------------------------

    Molecular point group: c1

    Geometry (in Angstrom), charge = 0, multiplicity = 1:

       Center              X                  Y                   Z               Mass
    ------------   -----------------  -----------------  -----------------  -----------------
           H          2.266390971934     1.100042000653    -0.141346971056     1.007825032070
           O          3.015790971934     0.752838000653    -0.602779971056    15.994914619560
           C          3.244295971934    -0.574768999347    -0.203656971056    12.000000000000
           C          2.214481971934    -1.554198999347    -0.755858971056    12.000000000000
           H          4.227820971934    -0.829267999347    -0.577264971056     1.007825032070
           H          3.283290971934    -0.644709999347     0.882790028944     1.007825032070
           C          0.790525971934    -1.311186999347    -0.249733971056    12.000000000000
           H          2.230910971934    -1.496424999347    -1.841104971056     1.007825032070
           H          2.526795971934    -2.561944999347    -0.487018971056     1.007825032070
           C         -0.013585028066    -0.386336999347    -1.167815971056    12.000000000000
           H          0.834328971934    -0.883409999347     0.747991028944     1.007825032070
           H          0.270580971934    -2.265054999347    -0.159547971056     1.007825032070
           C         -1.474453028066    -0.177796999347    -0.752224971056    12.000000000000
           H          0.484698971934     0.579528000653    -1.228344971056     1.007825032070
           H          0.002397971934    -0.798742999347    -2.174476971056     1.007825032070
           C         -1.668046028066     0.576524000653     0.566107028944    12.000000000000
           H         -1.979693028066     0.372008000653    -1.543592971056     1.007825032070
           H         -1.972255028066    -1.144395999347    -0.691251971056     1.007825032070
           C         -3.139080028066     0.852181000653     0.884713028944    12.000000000000
           H         -1.127952028066     1.521219000653     0.521845028944     1.007825032070
           H         -1.230563028066     0.013639000653     1.387126028944     1.007825032070
           C         -3.335502028066     1.599398000653     2.203329028944    12.000000000000
           H         -3.580951028066     1.428306000653     0.074578028944     1.007825032070
           H         -3.682291028066    -0.089932999347     0.919747028944     1.007825032070
           H         -2.830770028066     2.561286000653     2.187832028944     1.007825032070
           H         -4.387593028066     1.781394000653     2.399843028944     1.007825032070
           H         -2.936639028066     1.031657000653     3.039357028944     1.007825032070

  Charge       = 0
  Multiplicity = 1
  Basis Set: 6-31G*
  Basis Set:

    Orbital Energies (a.u.)
    -----------------------

    Doubly Occupied:

       1A    -20.553080     2A    -11.267166     3A    -11.218852
       4A    -11.216989     5A    -11.216089     6A    -11.215841
       7A    -11.214959     8A    -11.214397     9A    -11.210236
      10A     -1.360210    11A     -1.095573    12A     -1.062058
      13A     -1.011825    14A     -0.948801    15A     -0.888498
      16A     -0.821434    17A     -0.802028    18A     -0.777327
      19A     -0.698723    20A     -0.648831    21A     -0.639839
      22A     -0.615784    23A     -0.594592    24A     -0.583540
      25A     -0.573914    26A     -0.557166    27A     -0.544918
      28A     -0.531439    29A     -0.514347    30A     -0.496236
      31A     -0.490253    32A     -0.473232    33A     -0.467506
      34A     -0.457976    35A     -0.449388    36A     -0.440205
      37A     -0.422045

  @DF-RHF Final Energy:  -388.27739148103575

   => Energetics <=

    Nuclear Repulsion Energy =            469.0145645440694011
    One-Electron Energy =               -1455.9932635803770609
    Two-Electron Energy =                 598.7013075552742976
    DFT Exchange-Correlation Energy =       0.0000000000000000
    Empirical Dispersion Energy =           0.0000000000000000
    PCM Polarization Energy =               0.0000000000000000
    EFP Energy =                            0.0000000000000000
    Total Energy =                       -388.2773914810334190

  Mulliken Charges: (a.u.)
   Center  Symbol    Alpha    Beta     Spin     Total
       1     H     0.27878  0.27878  0.00000  0.44244
       2     O     4.37006  4.37006  0.00000 -0.74012
       3     C     2.99879  2.99879  0.00000  0.00241
       4     C     3.16372  3.16372  0.00000 -0.32744
       5     H     0.41508  0.41508  0.00000  0.16984
       6     H     0.43146  0.43146  0.00000  0.13708
       7     C     3.16676  3.16676  0.00000 -0.33351
       8     H     0.41401  0.41401  0.00000  0.17198
       9     H     0.42142  0.42142  0.00000  0.15715
      10     C     3.15495  3.15495  0.00000 -0.30989
      11     H     0.42487  0.42487  0.00000  0.15026
      12     H     0.41795  0.41795  0.00000  0.16410
      13     C     3.15310  3.15310  0.00000 -0.30620
      14     H     0.42392  0.42392  0.00000  0.15215
      15     H     0.41865  0.41865  0.00000  0.16270
      16     C     3.15359  3.15359  0.00000 -0.30717
      17     H     0.42082  0.42082  0.00000  0.15836
      18     H     0.42381  0.42381  0.00000  0.15238
      19     C     3.15094  3.15094  0.00000 -0.30187
      20     H     0.42731  0.42731  0.00000  0.14538
      21     H     0.42278  0.42278  0.00000  0.15443
      22     C     3.23937  3.23937  0.00000 -0.47874
      23     H     0.42239  0.42239  0.00000  0.15521
      24     H     0.42256  0.42256  0.00000  0.15488
      25     H     0.42187  0.42187  0.00000  0.15627
      26     H     0.41886  0.41886  0.00000  0.16229
      27     H     0.42218  0.42218  0.00000  0.15565

   Total alpha = 37.00000, Total beta = 37.00000, Total charge = -0.00000
