  ==> Input File <==

--------------------------------------------------------------------------
set {
	reference rhf
	basis 6-31G*
}

set_num_threads( 1 )
memory 2 gb

molecule MOL {
0 1

O	 3.225979	 0.970355	 -0.599647
C	 2.701189	 0.057885	 -0.047330
C	 1.245376	 -0.013843	 0.345420
O	 3.347903	 -1.046386	 0.304773
C	 0.301476	 -0.051142	 -0.854488
H	 1.129818	 -0.885432	 0.981165
H	 1.038998	 0.845102	 0.978916
C	 -1.182542	 -0.018154	 -0.473570
H	 0.509530	 -0.936991	 -1.447028
H	 0.522719	 0.795871	 -1.494834
C	 -1.683307	 -1.254307	 0.278938
H	 -1.762396	 0.090913	 -1.387133
H	 -1.384828	 0.872334	 0.119829
C	 -3.190770	 -1.222466	 0.538826
H	 -1.436128	 -2.146530	 -0.294350
H	 -1.164986	 -1.349228	 1.230414
C	 -3.701567	 -2.450344	 1.294824
H	 -3.717812	 -1.140944	 -0.410286
H	 -3.440066	 -0.325001	 1.102837
C	 -5.208453	 -2.412566	 1.546950
H	 -3.452397	 -3.348128	 0.733094
H	 -3.179025	 -2.531062	 2.245726
H	 -5.540055	 -3.295699	 2.084280
H	 -5.761185	 -2.366930	 0.612819
H	 -5.485673	 -1.543220	 2.136578
C	 4.728119	 -1.109107	 -0.004993
H	 4.882018	 -1.033965	 -1.071845
H	 5.068212	 -2.067527	 0.355250
H	 5.265056	 -0.311663	 0.488280

	symmetry c1
}
set optking {
	frozen_dihedral = ("
		21 17 14 11,
		17 14 11 15,
		15 11 8 5,
		6 3 5 9,
		11 8 5 9,
		2 4 26 27,
		1 2 4 26
	")
}

ee = energy('scf')
oeprop('DIPOLE', 'QUADRUPOLE', 'MULLIKEN_CHARGES')
f=open( 'psi4out.xyz', 'w' )
f.write( "29  " )
f.write( str(ee) + "\n" )
f.write( MOL.save_string_xyz() )
f.close()
--------------------------------------------------------------------------

    Molecular point group: c1

    Geometry (in Angstrom), charge = 0, multiplicity = 1:

       Center              X                  Y                   Z               Mass
    ------------   -----------------  -----------------  -----------------  -----------------
           O          3.129763635041     1.752901083358    -0.813373032516    15.994914619560
           C          2.604973635041     0.840431083358    -0.261056032516    12.000000000000
           C          1.149160635041     0.768703083358     0.131693967484    12.000000000000
           O          3.251687635041    -0.263839916642     0.091046967484    15.994914619560
           C          0.205260635041     0.731404083358    -1.068214032516    12.000000000000
           H          1.033602635041    -0.102885916642     0.767438967484     1.007825032070
           H          0.942782635041     1.627648083358     0.765189967484     1.007825032070
           C         -1.278757364959     0.764392083358    -0.687296032516    12.000000000000
           H          0.413314635041    -0.154444916642    -1.660754032516     1.007825032070
           H          0.426503635041     1.578417083358    -1.708560032516     1.007825032070
           C         -1.779522364959    -0.471760916642     0.065211967484    12.000000000000
           H         -1.858611364959     0.873459083358    -1.600859032516     1.007825032070
           H         -1.481043364959     1.654880083358    -0.093897032516     1.007825032070
           C         -3.286985364959    -0.439919916642     0.325099967484    12.000000000000
           H         -1.532343364959    -1.363983916642    -0.508076032516     1.007825032070
           H         -1.261201364959    -0.566681916642     1.016687967484     1.007825032070
           C         -3.797782364959    -1.667797916642     1.081097967484    12.000000000000
           H         -3.814027364959    -0.358397916642    -0.624012032516     1.007825032070
           H         -3.536281364959     0.457545083358     0.889110967484     1.007825032070
           C         -5.304668364959    -1.630019916642     1.333223967484    12.000000000000
           H         -3.548612364959    -2.565581916642     0.519367967484     1.007825032070
           H         -3.275240364959    -1.748515916642     2.031999967484     1.007825032070
           H         -5.636270364959    -2.513152916642     1.870553967484     1.007825032070
           H         -5.857400364959    -1.584383916642     0.399092967484     1.007825032070
           H         -5.581888364959    -0.760673916642     1.922851967484     1.007825032070
           C          4.631903635041    -0.326560916642    -0.218719032516    12.000000000000
           H          4.785802635041    -0.251418916642    -1.285571032516     1.007825032070
           H          4.971996635041    -1.284980916642     0.141523967484     1.007825032070
           H          5.168840635041     0.470883083358     0.274553967484     1.007825032070

  Charge       = 0
  Multiplicity = 1
  Basis Set: 6-31G*
  Basis Set:

    Orbital Energies (a.u.)
    -----------------------

    Doubly Occupied:

       1A    -20.604614     2A    -20.542944     3A    -11.371038
       4A    -11.280007     5A    -11.232456     6A    -11.227430
       7A    -11.221108     8A    -11.217569     9A    -11.216829
      10A    -11.215721    11A    -11.209828    12A     -1.468693
      13A     -1.361309    14A     -1.100711    15A     -1.068422
      16A     -1.019970    17A     -0.977101    18A     -0.929765
      19A     -0.864064    20A     -0.800594    21A     -0.791405
      22A     -0.770209    23A     -0.697872    24A     -0.678889
      25A     -0.672859    26A     -0.651932    27A     -0.625245
      28A     -0.606946    29A     -0.594430    30A     -0.580594
      31A     -0.563197    32A     -0.558585    33A     -0.535842
      34A     -0.529095    35A     -0.518770    36A     -0.515418
      37A     -0.497688    38A     -0.479318    39A     -0.472245
      40A     -0.464094    41A     -0.460141    42A     -0.454906
      43A     -0.444403    44A     -0.430133

  @DF-RHF Final Energy:  -501.04190125596335

   => Energetics <=

    Nuclear Repulsion Energy =            611.4280021139003338
    One-Electron Energy =               -1893.8916060561025461
    Two-Electron Energy =                 781.4217026862389730
    DFT Exchange-Correlation Energy =       0.0000000000000000
    Empirical Dispersion Energy =           0.0000000000000000
    PCM Polarization Energy =               0.0000000000000000
    EFP Energy =                            0.0000000000000000
    Total Energy =                       -501.0419012559631255

  Mulliken Charges: (a.u.)
   Center  Symbol    Alpha    Beta     Spin     Total
       1     O     4.28585  4.28585  0.00000 -0.57169
       2     C     2.61057  2.61057  0.00000  0.77886
       3     C     3.20537  3.20537  0.00000 -0.41075
       4     O     4.30277  4.30277  0.00000 -0.60553
       5     C     3.16327  3.16327  0.00000 -0.32653
       6     H     0.39880  0.39880  0.00000  0.20240
       7     H     0.40243  0.40243  0.00000  0.19513
       8     C     3.15601  3.15601  0.00000 -0.31203
       9     H     0.41594  0.41594  0.00000  0.16811
      10     H     0.40372  0.40372  0.00000  0.19255
      11     C     3.15482  3.15482  0.00000 -0.30964
      12     H     0.41800  0.41800  0.00000  0.16400
      13     H     0.42104  0.42104  0.00000  0.15792
      14     C     3.15065  3.15065  0.00000 -0.30129
      15     H     0.42273  0.42273  0.00000  0.15453
      16     H     0.42214  0.42214  0.00000  0.15572
      17     C     3.15151  3.15151  0.00000 -0.30302
      18     H     0.42345  0.42345  0.00000  0.15310
      19     H     0.42359  0.42359  0.00000  0.15281
      20     C     3.23942  3.23942  0.00000 -0.47885
      21     H     0.42281  0.42281  0.00000  0.15438
      22     H     0.42309  0.42309  0.00000  0.15382
      23     H     0.41906  0.41906  0.00000  0.16187
      24     H     0.42157  0.42157  0.00000  0.15686
      25     H     0.42163  0.42163  0.00000  0.15674
      26     C     3.09329  3.09329  0.00000 -0.18658
      27     H     0.40896  0.40896  0.00000  0.18208
      28     H     0.40868  0.40868  0.00000  0.18264
      29     H     0.40881  0.40881  0.00000  0.18238

   Total alpha = 44.00000, Total beta = 44.00000, Total charge =  0.00000
