                              Psi4 1.0.54 Driver

  ==> Input File <==

--------------------------------------------------------------------------
set {
	reference rhf
	basis cc-pvtz
}

set_num_threads( 4 )
memory 2 gb

molecule MOL {
0 1

H	 -3.963845	 1.127031	 -0.562008
O	 -3.253755	 0.557397	 -0.793274
C	 -2.302264	 0.528872	 0.237390
C	 -1.175688	 -0.398187	 -0.171891
H	 -1.911711	 1.527326	 0.422679
H	 -2.753774	 0.177012	 1.162681
C	 0.196029	 0.106276	 0.266738
H	 -1.201873	 -0.515469	 -1.250677
H	 -1.365975	 -1.378728	 0.252664
C	 1.330220	 -0.826136	 -0.155230
H	 0.359542	 1.097229	 -0.145561
H	 0.212134	 0.218135	 1.348778
C	 2.719700	 -0.407669	 0.328325
H	 1.339388	 -0.911200	 -1.239363
H	 1.119001	 -1.821953	 0.224128
C	 3.241564	 0.893452	 -0.276737
H	 3.418299	 -1.204729	 0.093035
H	 2.711776	 -0.323368	 1.411960
H	 3.254204	 0.841071	 -1.360784
H	 2.634460	 1.745075	 0.005842
H	 4.254264	 1.092401	 0.054971

	symmetry c1
}
set optking {
	frozen_dihedral = ("
		2 3 4 8
	")
}

ee,wfn = optimize('scf', return_wfn=True)
oeprop( wfn, 'DIPOLE', 'QUADRUPOLE', 'MULLIKEN_CHARGES')
f=open( 'psi4out.xyz', 'w' )
f.write( "21  " )
f.write( str(ee) + "\n" )
f.write( MOL.save_string_xyz() )
f.close()
--------------------------------------------------------------------------

    Molecular point group: c1
  Charge       = 0
  Multiplicity = 1
  Basis Set: CC-PVTZ
  Basis Set:
  @DF-RHF Final Energy:  -310.32874594328246
    Total Energy =                       -310.3287459432827404
    Molecular point group: c1
  Basis Set: CC-PVTZ
  Basis Set:
  Basis Set: CC-PVTZ
  Basis Set:
  @DF-RHF Final Energy:  -310.32905179970129
    Total Energy =                       -310.3290517997010056
  Basis Set: CC-PVTZ
  Basis Set:
  Basis Set: CC-PVTZ
  Basis Set:
  @DF-RHF Final Energy:  -310.32915168634634
    Total Energy =                       -310.3291516863463926
  Basis Set: CC-PVTZ
  Basis Set:
  Basis Set: CC-PVTZ
  Basis Set:
  @DF-RHF Final Energy:  -310.32915451130549
    Total Energy =                       -310.3291545113058874
  Basis Set: CC-PVTZ
  Basis Set:
  Charge       = 0
  Multiplicity = 1
  Basis Set: CC-PVTZ
  Basis Set:

    Orbital Energies (a.u.)
    -----------------------

    Doubly Occupied:

       1A    -20.545292     2A    -11.265185     3A    -11.212775
       4A    -11.212605     5A    -11.210677     6A    -11.208703
       7A    -11.205409     8A     -1.362618     9A     -1.086454
      10A     -1.032763    11A     -0.954523    12A     -0.876689
      13A     -0.808177    14A     -0.778928    15A     -0.701244
      16A     -0.652780    17A     -0.622017    18A     -0.608815
      19A     -0.590545    20A     -0.566338    21A     -0.541150
      22A     -0.520777    23A     -0.508675    24A     -0.492623
      25A     -0.478018    26A     -0.459605    27A     -0.456203
      28A     -0.444640    29A     -0.432477

  @DF-RHF Final Energy:  -310.32915422334321

   => Energetics <=

    Nuclear Repulsion Energy =            313.0516368155029454
    One-Electron Energy =               -1041.0881701101636736
    Two-Electron Energy =                 417.7073790713171775
    DFT Exchange-Correlation Energy =       0.0000000000000000
    Empirical Dispersion Energy =           0.0000000000000000
    PCM Polarization Energy =               0.0000000000000000
    EFP Energy =                            0.0000000000000000
    Total Energy =                       -310.3291542233436076
    Molecular point group: c1
  Basis Set: CC-PVTZ
  Basis Set:

  -Total Gradient:
     Atom            X                  Y                   Z
    ------   -----------------  -----------------  -----------------
       1       -0.000016604120    -0.000042020365    -0.000084525283
       2        0.001448000305     0.002683732185    -0.001147712701
       3       -0.002314012499    -0.004201940971     0.001791989921
       4        0.003589262705     0.004955444528    -0.000769146534
       5       -0.000028087281     0.000009599553    -0.000022780581
       6       -0.000072394598     0.000017804164    -0.000070986323
       7       -0.000062571143    -0.000007922743    -0.000083388777
       8       -0.002501626864    -0.003399985756     0.000353697543
       9       -0.000040533330     0.000011158675     0.000016975681
      10       -0.000022460866     0.000007742031     0.000069182819
      11        0.000040570219     0.000051890697     0.000028818851
      12       -0.000037142568    -0.000037580628    -0.000059632825
      13        0.000059997905    -0.000065541611    -0.000063502413
      14        0.000011933536    -0.000017708697     0.000014272894
      15       -0.000022601359     0.000004298961     0.000015661632
      16       -0.000030911042     0.000011849780     0.000000256697
      17        0.000041425459    -0.000001081790    -0.000011658715
      18        0.000002392546    -0.000025707269     0.000007629879
      19        0.000014556886    -0.000007647172     0.000011330433
      20       -0.000055053923     0.000039735728    -0.000009887783
      21       -0.000004139970     0.000013880700     0.000013405583

  **** Optimization is complete! (in 5 steps) ****
    Final optimized geometry and variables:
    Molecular point group: c1

    Geometry (in Angstrom), charge = 0, multiplicity = 1:

    H           -4.073659019797     0.960086598332    -0.397644564284
    O           -3.325401426816     0.468683306180    -0.682330455593
    C           -2.355574874584     0.435534174561     0.333301074303
    C           -1.205907835866    -0.465284414070    -0.110044725496
    H           -1.984834091847     1.441699949796     0.515742330280
    H           -2.786289858134     0.075438187817     1.263499830195
    C            0.164677277098     0.025138455789     0.343476055416
    H           -1.253370353150    -0.553738603278    -1.189255835635
    H           -1.373401595680    -1.469534633889     0.268418878886
    C            1.294651164542    -0.922445724069    -0.052877574941
    H            0.340233839970     1.011063214162    -0.074495527292
    H            0.165777410065     0.146738904796     1.425174163406
    C            2.683471473774    -0.506261346579     0.434900615683
    H            1.311382197692    -1.025127385200    -1.135438518292
    H            1.073243790283    -1.910554219299     0.340806154883
    C            3.217385665044     0.783578217797    -0.183596112172
    H            3.379052819163    -1.310409011500     0.215188990427
    H            2.668366855039    -0.407533193605     1.517291557623
    H            3.240090784087     0.715437509390    -1.266525088840
    H            2.611627346857     1.641984685845     0.080626666146
    H            4.227809409930     0.982454260945     0.155069356482

  Mulliken Charges: (a.u.)
   Center  Symbol    Alpha    Beta     Spin     Total
       1     H     0.39590  0.39590  0.00000  0.20820
       2     O     4.19637  4.19637  0.00000 -0.39274
       3     C     2.96362  2.96362  0.00000  0.07275
       4     C     3.08862  3.08862  0.00000 -0.17724
       5     H     0.47708  0.47708  0.00000  0.04585
       6     H     0.47220  0.47220  0.00000  0.05560
       7     C     3.10101  3.10101  0.00000 -0.20202
       8     H     0.44484  0.44484  0.00000  0.11032
       9     H     0.45519  0.45519  0.00000  0.08962
      10     C     3.09560  3.09560  0.00000 -0.19119
      11     H     0.45075  0.45075  0.00000  0.09850
      12     H     0.45564  0.45564  0.00000  0.08873
      13     C     3.08990  3.08990  0.00000 -0.17979
      14     H     0.45258  0.45258  0.00000  0.09485
      15     H     0.44936  0.44936  0.00000  0.10128
      16     C     3.15214  3.15214  0.00000 -0.30428
      17     H     0.44856  0.44856  0.00000  0.10289
      18     H     0.45537  0.45537  0.00000  0.08926
      19     H     0.45438  0.45438  0.00000  0.09123
      20     H     0.45416  0.45416  0.00000  0.09168
      21     H     0.44675  0.44675  0.00000  0.10651

   Total alpha = 29.00000, Total beta = 29.00000, Total charge = -0.00000

*** Psi4 exiting successfully. Buy a developer a beer!
