  ==> Input File <==

--------------------------------------------------------------------------
set {
	reference rhf
	basis cc-pvtz
}

set_num_threads( 4 )
memory 2 gb

molecule MOL {
0 1

H	 2.867672	 -0.456275	 0.875795
C	 2.403497	 -0.020426	 0.000000
N	 0.989899	 -0.304564	 0.000000
H	 2.867672	 -0.456275	 -0.875795
H	 2.620366	 1.051270	 0.000000
C	 0.277836	 0.429829	 1.025281
C	 0.710383	 -1.722110	 0.100014
H	 0.638705	 0.171398	 2.025647
H	 0.441214	 1.491652	 0.881873
C	 -1.207234	 0.133661	 0.941064
H	 1.191135	 -2.239235	 -0.722293
H	 1.103786	 -2.142398	 1.030786
C	 -0.785801	 -1.962986	 0.039571
H	 -1.734886	 0.604527	 1.758680
H	 -1.603130	 0.522942	 0.005208
O	 -1.454007	 -1.238367	 1.029305
H	 -1.008825	 -3.007656	 0.205553
H	 -1.159889	 -1.682200	 -0.942935

	symmetry c1
}
set optking {
	frozen_dihedral = ("
		6 3 2 5
	")
}

ee = optimize('scf')
oeprop('DIPOLE', 'QUADRUPOLE', 'MULLIKEN_CHARGES')
f=open( 'psi4out.xyz', 'w' )
f.write( "18  " )
f.write( str(ee) + "\n" )
f.write( MOL.save_string_xyz() )
f.close()
--------------------------------------------------------------------------

    Molecular point group: c1
  Charge       = 0
  Multiplicity = 1
  Basis Set: CC-PVTZ
  Basis Set:
  @DF-RHF Final Energy:  -325.14490247362215
    Total Energy =                       -325.1449024736218689
    Molecular point group: c1
  Basis Set: CC-PVTZ
  Basis Set:
  Basis Set: CC-PVTZ
  Basis Set:
  @DF-RHF Final Energy:  -325.14554408067715
    Total Energy =                       -325.1455440806767001
  Basis Set: CC-PVTZ
  Basis Set:
  Basis Set: CC-PVTZ
  Basis Set:
  @DF-RHF Final Energy:  -325.14562305268345
    Total Energy =                       -325.1456230526832769
  Basis Set: CC-PVTZ
  Basis Set:
  Charge       = 0
  Multiplicity = 1
  Basis Set: CC-PVTZ
  Basis Set:

    Orbital Energies (a.u.)
    -----------------------

    Doubly Occupied:

       1A    -20.547661     2A    -15.544020     3A    -11.264416
       4A    -11.264390     5A    -11.242681     6A    -11.242551
       7A    -11.239262     8A     -1.386553     9A     -1.234109
      10A     -1.039389    11A     -0.982195    12A     -0.884356
      13A     -0.869548    14A     -0.774355    15A     -0.685198
      16A     -0.646886    17A     -0.645566    18A     -0.635675
      19A     -0.630685    20A     -0.574189    21A     -0.557590
      22A     -0.540423    23A     -0.527720    24A     -0.501706
      25A     -0.486066    26A     -0.454153    27A     -0.410853
      28A     -0.354426

  @DF-RHF Final Energy:  -325.14562430441458

   => Energetics <=

    Nuclear Repulsion Energy =            341.9372185015241712
    One-Electron Energy =               -1119.8324503697272121
    Two-Electron Energy =                 452.7496075637884587
    DFT Exchange-Correlation Energy =       0.0000000000000000
    Empirical Dispersion Energy =           0.0000000000000000
    PCM Polarization Energy =               0.0000000000000000
    EFP Energy =                            0.0000000000000000
    Total Energy =                       -325.1456243044145822
    Molecular point group: c1
  Basis Set: CC-PVTZ
  Basis Set:

  -Total Gradient:
     Atom            X                  Y                   Z
    ------   -----------------  -----------------  -----------------
       1       -0.000032779692    -0.000007921507     0.000006153563
       2        0.000003151906     0.000307286940    -0.002405407983
       3        0.000230769182    -0.001325750734     0.001498128238
       4       -0.000023490752    -0.000004752812    -0.000003659554
       5       -0.000040693248    -0.000004332404     0.001654557971
       6       -0.000230883776     0.000982223611    -0.000814509582
       7        0.000102394062    -0.000142958597     0.000048148605
       8       -0.000026935472    -0.000004673582    -0.000028973381
       9       -0.000013034253     0.000006694685     0.000009344322
      10       -0.000003071176     0.000023991203     0.000077489549
      11        0.000017925049     0.000000817503    -0.000013364750
      12        0.000003842064     0.000020400900    -0.000004293804
      13        0.000019339282     0.000168867098    -0.000035731478
      14       -0.000031131843     0.000001746816     0.000005754699
      15        0.000025545357    -0.000012031441     0.000008853407
      16       -0.000028025408    -0.000011710152     0.000025442078
      17        0.000048438779     0.000023678898     0.000003330121
      18       -0.000021360060    -0.000021576429    -0.000031262022

  **** Optimization is complete! (in 4 steps) ****
    Final optimized geometry and variables:
    Molecular point group: c1

    Geometry (in Angstrom), charge = 0, multiplicity = 1:

    H            2.787477790104     0.240498455597     0.421629851119
    C            2.271873426764     0.643675718445    -0.454737672474
    N            0.857816728596     0.363575310434    -0.445097532931
    H            2.730631440380     0.218842130300    -1.338883961359
    H            2.435231301880     1.713710366794    -0.464474607362
    C            0.143767981288     1.103420973917     0.574079793419
    C            0.573191418029    -1.052367077367    -0.354391088334
    H            0.497810100058     0.849234824934     1.578209428877
    H            0.308964788873     2.164280084337     0.426611326327
    C           -1.341614632878     0.809358745100     0.483245094561
    H            1.055523695628    -1.566911784578    -1.177799492947
    H            0.962415040685    -1.478883013353     0.575393091955
    C           -0.923727949679    -1.287164831338    -0.420453629164
    H           -1.872424387512     1.281129270963     1.298398651375
    H           -1.731889847711     1.199966080045    -0.454489048103
    O           -1.591746399176    -0.562173111386     0.569094474870
    H           -1.151076452102    -2.331432586334    -0.257598384272
    H           -1.293773490555    -1.002852598491    -1.403557561656

  Mulliken Charges: (a.u.)
   Center  Symbol    Alpha    Beta     Spin     Total
       1     H     0.46966  0.46966  0.00000  0.06068
       2     C     3.09470  3.09470  0.00000 -0.18940
       3     N     3.61684  3.61684  0.00000 -0.23369
       4     H     0.45070  0.45070  0.00000  0.09860
       5     H     0.45235  0.45235  0.00000  0.09530
       6     C     3.04019  3.04019  0.00000 -0.08037
       7     C     3.04111  3.04111  0.00000 -0.08221
       8     H     0.46952  0.46952  0.00000  0.06096
       9     H     0.45392  0.45392  0.00000  0.09215
      10     C     2.98368  2.98368  0.00000  0.03264
      11     H     0.45419  0.45419  0.00000  0.09161
      12     H     0.46851  0.46851  0.00000  0.06299
      13     C     2.98337  2.98337  0.00000  0.03327
      14     H     0.44973  0.44973  0.00000  0.10054
      15     H     0.46766  0.46766  0.00000  0.06468
      16     O     4.18648  4.18648  0.00000 -0.37295
      17     H     0.44981  0.44981  0.00000  0.10039
      18     H     0.46758  0.46758  0.00000  0.06483

   Total alpha = 28.00000, Total beta = 28.00000, Total charge = -0.00000
