  ==> Input File <==

--------------------------------------------------------------------------
set {
	reference rhf
	basis 6-31G*
}

set_num_threads( 4 )
memory 2 gb

molecule MOL {
0 1

H	 -3.261111	 -0.295142	 1.469456
C	 -3.306842	 -0.277400	 0.373456
C	 -2.660244	 0.921717	 -0.272021
O	 -3.838538	 -1.161155	 -0.216482
C	 -2.364133	 2.043219	 0.733368
H	 -1.760516	 0.593497	 -0.779436
H	 -3.353338	 1.291242	 -1.026824
C	 -1.293015	 1.673235	 1.762503
H	 -2.046502	 2.923667	 0.182727
H	 -3.284097	 2.321940	 1.244971
C	 -1.000064	 2.804013	 2.750600
H	 -0.377837	 1.400217	 1.241200
H	 -1.601157	 0.786639	 2.313444
C	 0.082983	 2.436379	 3.768344
H	 -0.702969	 3.689471	 2.194335
H	 -1.915333	 3.066902	 3.279331
C	 0.352598	 3.508243	 4.830647
H	 1.009618	 2.211164	 3.242682
H	 -0.210399	 1.517698	 4.271996
C	 0.953415	 4.805418	 4.286610
H	 1.032212	 3.093871	 5.571166
H	 -0.571665	 3.731749	 5.359517
H	 1.871355	 4.610389	 3.738323
H	 0.271576	 5.320136	 3.617928
H	 1.191806	 5.488493	 5.096284

	symmetry c1
}
set optking {
	frozen_dihedral = ("
		6 3 2 4
	")
}

ee = optimize('scf')
oeprop('DIPOLE', 'QUADRUPOLE', 'MULLIKEN_CHARGES')
f=open( 'psi4out.xyz', 'w' )
f.write( "25  " )
f.write( str(ee) + "\n" )
f.write( MOL.save_string_xyz() )
f.close()
--------------------------------------------------------------------------

    Molecular point group: c1
  Charge       = 0
  Multiplicity = 1
  Basis Set: 6-31G*
  Basis Set:
  @DF-RHF Final Energy:  -387.11902313919046
    Total Energy =                       -387.1190231391900625
    Molecular point group: c1
  Basis Set: 6-31G*
  Basis Set:
  Basis Set: 6-31G*
  Basis Set:
  @DF-RHF Final Energy:  -387.11957938355334
    Total Energy =                       -387.1195793835537415
  Basis Set: 6-31G*
  Basis Set:
  Basis Set: 6-31G*
  Basis Set:
  @DF-RHF Final Energy:  -387.11884686187494
    Total Energy =                       -387.1188468618745446
  Basis Set: 6-31G*
  Basis Set:
  Basis Set: 6-31G*
  Basis Set:
  @DF-RHF Final Energy:  -387.11999122281537
    Total Energy =                       -387.1199912228154290
  Basis Set: 6-31G*
  Basis Set:
  @DF-RHF Final Energy:  -387.11981923731770
    Total Energy =                       -387.1198192373180973
  @DF-RHF Final Energy:  -387.12014000907357
    Total Energy =                       -387.1201400090732250
  Basis Set: 6-31G*
  Basis Set:
  @DF-RHF Final Energy:  -387.12014197364238
    Total Energy =                       -387.1201419736430580
  Basis Set: 6-31G*
  Basis Set:
  Basis Set: 6-31G*
  Basis Set:
  @DF-RHF Final Energy:  -387.12014037283183
    Total Energy =                       -387.1201403728318837
  Basis Set: 6-31G*
  Basis Set:
  Basis Set: 6-31G*
  Basis Set:
  @DF-RHF Final Energy:  -387.12014220685671
    Total Energy =                       -387.1201422068560305
  Basis Set: 6-31G*
  Basis Set:
  Charge       = 0
  Multiplicity = 1
  Basis Set: 6-31G*
  Basis Set:

    Orbital Energies (a.u.)
    -----------------------

    Doubly Occupied:

       1A    -20.560491     2A    -11.326810     3A    -11.234981
       4A    -11.233431     5A    -11.227788     6A    -11.222248
       7A    -11.220235     8A    -11.219618     9A    -11.212367
      10A     -1.401494    11A     -1.105528    12A     -1.070716
      13A     -1.014169    14A     -0.943009    15A     -0.875819
      16A     -0.824225    17A     -0.789601    18A     -0.784213
      19A     -0.664269    20A     -0.660406    21A     -0.633904
      22A     -0.623093    23A     -0.611998    24A     -0.597214
      25A     -0.566708    26A     -0.556226    27A     -0.543310
      28A     -0.522668    29A     -0.505237    30A     -0.504016
      31A     -0.487060    32A     -0.480157    33A     -0.467140
      34A     -0.461497    35A     -0.444576    36A     -0.408193

  @DF-RHF Final Energy:  -387.12014239435894

   => Energetics <=

    Nuclear Repulsion Energy =            435.5371605923478455
    One-Electron Energy =               -1387.3057799216508101
    Two-Electron Energy =                 564.6484769349444832
    DFT Exchange-Correlation Energy =       0.0000000000000000
    Empirical Dispersion Energy =           0.0000000000000000
    PCM Polarization Energy =               0.0000000000000000
    EFP Energy =                            0.0000000000000000
    Total Energy =                       -387.1201423943584814
    Molecular point group: c1
  Basis Set: 6-31G*
  Basis Set:

  -Total Gradient:
     Atom            X                  Y                   Z
    ------   -----------------  -----------------  -----------------
       1       -0.000003595250    -0.000006899286    -0.000000004887
       2        0.000423766238    -0.000248315119     0.000083029125
       3       -0.000279533097     0.000021522675    -0.000356721230
       4       -0.000274467646     0.000184801689    -0.000010137900
       5       -0.000010696489     0.000003753826     0.000021874348
       6        0.000142621268     0.000043074760     0.000271968502
       7        0.000004671773    -0.000000054147     0.000003233853
       8        0.000000750488    -0.000008605274     0.000005666190
       9        0.000003328262    -0.000005804543     0.000000439135
      10       -0.000003058424     0.000010851736     0.000004145169
      11        0.000000256663     0.000007123710    -0.000005783286
      12        0.000002151668     0.000001971869    -0.000001154573
      13        0.000000064754    -0.000003859623    -0.000001881472
      14        0.000000732233    -0.000007157699    -0.000011537082
      15        0.000001669844     0.000000808757    -0.000000418995
      16        0.000002086247     0.000002949746     0.000001942520
      17       -0.000013487955     0.000003879383    -0.000000350430
      18        0.000002722583     0.000000403146    -0.000000642487
      19       -0.000002188806    -0.000001961852    -0.000005828084
      20        0.000001214884     0.000000374414    -0.000000027316
      21       -0.000001054728    -0.000000981379    -0.000005120357
      22        0.000000347729     0.000001917063     0.000005319446
      23        0.000000626153     0.000000487795     0.000000888745
      24        0.000001868460    -0.000000447419     0.000001344549
      25       -0.000000796844     0.000000165781    -0.000000243482

  **** Optimization is complete! (in 10 steps) ****
    Final optimized geometry and variables:
    Molecular point group: c1

    Geometry (in Angstrom), charge = 0, multiplicity = 1:

    H           -2.058520422831    -2.158340681476    -0.563113405594
    C           -1.969668482470    -2.128385477651    -1.654737114185
    C           -1.186113076322    -0.973181485584    -2.240237651461
    O           -2.482203397113    -2.972973568185    -2.315019067959
    C           -0.880452558848     0.150202074254    -1.245131255486
    H           -0.262910378696    -1.380127003467    -2.647731524057
    H           -1.755991250885    -0.604709453013    -3.087254611594
    C            0.209189164573    -0.202130235281    -0.228103959801
    H           -0.571648778152     1.030957324128    -1.800814974906
    H           -1.793726949382     0.430328562946    -0.722435477963
    C            0.485858324048     0.927011520101     0.766589171627
    H            1.125651139634    -0.444925385402    -0.763041065388
    H           -0.066352240640    -1.100568200980     0.321153074998
    C            1.591996392479     0.580541367471     1.766759993403
    H            0.750300288119     1.825162918684     0.214462375106
    H           -0.428987793810     1.159395525467     1.309586440119
    C            1.840495084194     1.646382574362     2.840201662187
    H            2.519053382798     0.392560309545     1.227433815068
    H            1.334469870999    -0.353744269864     2.261517520459
    C            2.389596396364     2.970567988866     2.306127502352
    H            2.543361025702     1.245074578921     3.565972916501
    H            0.916297394376     1.831136011305     3.383995661511
    H            3.308130093410     2.814820538605     1.746608589916
    H            1.683244552658     3.469328243043     1.650800851389
    H            2.612333175811     3.651611780501     3.121634755893

  Mulliken Charges: (a.u.)
   Center  Symbol    Alpha    Beta     Spin     Total
       1     H     0.42877  0.42877  0.00000  0.14245
       2     C     2.83512  2.83512  0.00000  0.32977
       3     C     3.20794  3.20794  0.00000 -0.41589
       4     O     4.24132  4.24132  0.00000 -0.48264
       5     C     3.16764  3.16764  0.00000 -0.33528
       6     H     0.40042  0.40042  0.00000  0.19917
       7     H     0.39632  0.39632  0.00000  0.20736
       8     C     3.15582  3.15582  0.00000 -0.31163
       9     H     0.41295  0.41295  0.00000  0.17409
      10     H     0.41850  0.41850  0.00000  0.16299
      11     C     3.15386  3.15386  0.00000 -0.30772
      12     H     0.42009  0.42009  0.00000  0.15982
      13     H     0.42266  0.42266  0.00000  0.15469
      14     C     3.15305  3.15305  0.00000 -0.30609
      15     H     0.42001  0.42001  0.00000  0.15997
      16     H     0.42288  0.42288  0.00000  0.15424
      17     C     3.15278  3.15278  0.00000 -0.30556
      18     H     0.42335  0.42335  0.00000  0.15330
      19     H     0.42172  0.42172  0.00000  0.15655
      20     C     3.24150  3.24150  0.00000 -0.48301
      21     H     0.41991  0.41991  0.00000  0.16018
      22     H     0.42288  0.42288  0.00000  0.15424
      23     H     0.42192  0.42192  0.00000  0.15616
      24     H     0.42031  0.42031  0.00000  0.15938
      25     H     0.41828  0.41828  0.00000  0.16345

   Total alpha = 36.00000, Total beta = 36.00000, Total charge =  0.00000
