                              Psi4 1.0.54 Driver

  ==> Input File <==

--------------------------------------------------------------------------
set {
	reference rhf
	basis cc-pvtz
}

set_num_threads( 4 )
memory 2 gb

molecule MOL {
0 1

H	 2.566890	 1.967959	 -1.954915
O	 1.636150	 1.881877	 -2.053598
C	 1.095725	 1.198123	 -1.026034
C	 1.861312	 0.705382	 0.019797
C	 -0.268889	 0.993848	 -1.037091
H	 2.924217	 0.865425	 0.026814
C	 1.261669	 0.010573	 1.050633
H	 -0.862909	 1.373148	 -1.843387
C	 -0.861704	 0.296439	 0.000000
H	 1.864056	 -0.365997	 1.854467
C	 -0.102836	 -0.198075	 1.047090
C	 -2.330689	 0.069587	 0.000000
H	 -0.571932	 -0.737991	 1.847295
O	 -2.848621	 -0.993976	 0.000000
H	 -2.934306	 0.982410	 0.000000

	symmetry c1
}
set optking {
	frozen_dihedral = ("
		11 9 12 14
	")
}

ee,wfn = optimize('scf', return_wfn=True)
oeprop( wfn, 'DIPOLE', 'QUADRUPOLE', 'MULLIKEN_CHARGES')
f=open( 'psi4out.xyz', 'w' )
f.write( "15  " )
f.write( str(ee) + "\n" )
f.write( MOL.save_string_xyz() )
f.close()
--------------------------------------------------------------------------

    Molecular point group: c1
  Charge       = 0
  Multiplicity = 1
  Basis Set: CC-PVTZ
  Basis Set:
  @DF-RHF Final Energy:  -418.43009311424004
    Total Energy =                       -418.4300931142403215
    Molecular point group: c1
  Basis Set: CC-PVTZ
  Basis Set:
  Basis Set: CC-PVTZ
  Basis Set:
  @DF-RHF Final Energy:  -418.42962196456074
    Total Energy =                       -418.4296219645609654
  Basis Set: CC-PVTZ
  Basis Set:
  Basis Set: CC-PVTZ
  Basis Set:
  @DF-RHF Final Energy:  -418.43017236929694
    Total Energy =                       -418.4301723692969972
  Basis Set: CC-PVTZ
  Basis Set:
  Basis Set: CC-PVTZ
  Basis Set:
  @DF-RHF Final Energy:  -418.43072660982256
    Total Energy =                       -418.4307266098226137
  Basis Set: CC-PVTZ
  Basis Set:
  Basis Set: CC-PVTZ
  Basis Set:
  @DF-RHF Final Energy:  -418.43075173590290
    Total Energy =                       -418.4307517359028452
  Basis Set: CC-PVTZ
  Basis Set:
  Basis Set: CC-PVTZ
  Basis Set:
  @DF-RHF Final Energy:  -418.43075625107531
    Total Energy =                       -418.4307562510751950
  Basis Set: CC-PVTZ
  Basis Set:
  Charge       = 0
  Multiplicity = 1
  Basis Set: CC-PVTZ
  Basis Set:

    Orbital Energies (a.u.)
    -----------------------

    Doubly Occupied:

       1A    -20.597627     2A    -20.561294     3A    -11.331415
       4A    -11.313132     5A    -11.254962     6A    -11.249209
       7A    -11.241494     8A    -11.239784     9A    -11.236406
      10A     -1.429324    11A     -1.415971    12A     -1.172983
      13A     -1.052604    14A     -1.027424    15A     -0.902909
      16A     -0.847058    17A     -0.820043    18A     -0.742798
      19A     -0.703744    20A     -0.676492    21A     -0.672514
      22A     -0.639589    23A     -0.616323    24A     -0.608916
      25A     -0.587025    26A     -0.544635    27A     -0.540373
      28A     -0.517073    29A     -0.496260    30A     -0.427157
      31A     -0.358444    32A     -0.328999

  @DF-RHF Final Energy:  -418.43075691036921

   => Energetics <=

    Nuclear Repulsion Energy =            402.8147732691220995
    One-Electron Energy =               -1368.1830921746586682
    Two-Electron Energy =                 546.9375619951676981
    DFT Exchange-Correlation Energy =       0.0000000000000000
    Empirical Dispersion Energy =           0.0000000000000000
    PCM Polarization Energy =               0.0000000000000000
    EFP Energy =                            0.0000000000000000
    Total Energy =                       -418.4307569103689275
    Molecular point group: c1
  Basis Set: CC-PVTZ
  Basis Set:

  -Total Gradient:
     Atom            X                  Y                   Z
    ------   -----------------  -----------------  -----------------
       1       -0.000003733330     0.000010584899    -0.000014803411
       2        0.000039473478     0.000016118634     0.000013940358
       3       -0.000151234371     0.000020687146    -0.000076288311
       4       -0.000014783952    -0.000024553916     0.000114812944
       5        0.000124675245     0.000216990889     0.000018051710
       6       -0.000007704589    -0.000006961626     0.000012442378
       7        0.000079471638    -0.000048297713    -0.000001910953
       8       -0.000009396525    -0.000050056269     0.000049189997
       9        0.000571017401    -0.007111116510    -0.006291944135
      10       -0.000006918814     0.000003805431     0.000001611773
      11       -0.000562149520     0.004626954289     0.002225716500
      12       -0.000358653675     0.002875233415     0.010053700225
      13        0.000003607940    -0.000007683850     0.000030454606
      14        0.000074716856    -0.000335272334    -0.006101843737
      15        0.000221612219    -0.000186432486    -0.000033129939

  **** Optimization is complete! (in 7 steps) ****
    Final optimized geometry and variables:
    Molecular point group: c1

    Geometry (in Angstrom), charge = 0, multiplicity = 1:

    H            2.632643581997     1.480882175467    -1.730390095020
    O            1.700838505795     1.393278304980    -1.819773458013
    C            1.172861972791     0.725316033233    -0.776293152807
    C            1.940482364495     0.262964825775     0.277372694036
    C           -0.195062741659     0.519182824324    -0.776339942583
    H            3.001460640546     0.434106689817     0.285510761380
    C            1.337685853639    -0.411923228724     1.321912550724
    H           -0.778749868032     0.905381894050    -1.590058082983
    C           -0.780223947717    -0.189247944174     0.254320075751
    H            1.938553250107    -0.757218738125     2.141139237894
    C           -0.021965886453    -0.643484514810     1.320815786279
    C           -2.265274673562    -0.363061634475     0.261210171324
    H           -0.488927414422    -1.177962171249     2.124032973953
    O           -2.810672783248    -1.409188014626     0.319577396874
    H           -2.842405735028     0.561011690219     0.158428587110

  Mulliken Charges: (a.u.)
   Center  Symbol    Alpha    Beta     Spin     Total
       1     H     0.38617  0.38617  0.00000  0.22766
       2     O     4.17177  4.17177  0.00000 -0.34354
       3     C     2.83724  2.83724  0.00000  0.32553
       4     C     3.13775  3.13775  0.00000 -0.27550
       5     C     3.13541  3.13541  0.00000 -0.27083
       6     H     0.43228  0.43228  0.00000  0.13544
       7     C     3.05414  3.05414  0.00000 -0.10828
       8     H     0.41938  0.41938  0.00000  0.16124
       9     C     2.92767  2.92767  0.00000  0.14466
      10     H     0.41941  0.41941  0.00000  0.16117
      11     C     3.11846  3.11846  0.00000 -0.23692
      12     C     2.92529  2.92529  0.00000  0.14941
      13     H     0.41695  0.41695  0.00000  0.16611
      14     O     4.15997  4.15997  0.00000 -0.31994
      15     H     0.45810  0.45810  0.00000  0.08381

   Total alpha = 32.00000, Total beta = 32.00000, Total charge = -0.00000

*** Psi4 exiting successfully. Buy a developer a beer!
