  ==> Input File <==

--------------------------------------------------------------------------
set {
	reference rhf
	basis 6-31G*
}

set_num_threads( 4 )
memory 2 gb

molecule MOL {
0 1

H	 -2.285877	 -1.696261	 -1.702376
N	 -1.385913	 -1.700831	 -1.263038
C	 -1.388971	 -0.866049	 -0.074663
H	 -0.728460	 -1.337053	 -1.925255
C	 -0.011006	 -0.855397	 0.553219
H	 -1.688622	 0.165676	 -0.263754
H	 -2.091224	 -1.283241	 0.640580
O	 0.874168	 -0.245412	 -0.342030
H	 -0.030050	 -0.305605	 1.493966
H	 0.304660	 -1.875660	 0.759746
C	 2.202317	 -0.244239	 0.074611
H	 2.711377	 -1.041390	 -0.449894
H	 2.692099	 0.699270	 -0.159667
H	 2.283185	 -0.418429	 1.145558

	symmetry c1
}
set optking {
	frozen_dihedral = ("
		5 8 11 13
	")
}

ee = optimize('scf')
oeprop('DIPOLE', 'QUADRUPOLE', 'MULLIKEN_CHARGES')
f=open( 'psi4out.xyz', 'w' )
f.write( "14  " )
f.write( str(ee) + "\n" )
f.write( MOL.save_string_xyz() )
f.close()
--------------------------------------------------------------------------

    Molecular point group: c1
  Charge       = 0
  Multiplicity = 1
  Basis Set: 6-31G*
  Basis Set:
  @DF-RHF Final Energy:  -248.12149544079273
    Total Energy =                       -248.1214954407926712
    Molecular point group: c1
  Basis Set: 6-31G*
  Basis Set:
  Basis Set: 6-31G*
  Basis Set:
  @DF-RHF Final Energy:  -248.12221021008068
    Total Energy =                       -248.1222102100806524
  Basis Set: 6-31G*
  Basis Set:
  Basis Set: 6-31G*
  Basis Set:
  @DF-RHF Final Energy:  -248.12236486415310
    Total Energy =                       -248.1223648641528712
  Basis Set: 6-31G*
  Basis Set:
  Charge       = 0
  Multiplicity = 1
  Basis Set: 6-31G*
  Basis Set:

    Orbital Energies (a.u.)
    -----------------------

    Doubly Occupied:

       1A    -20.554485     2A    -15.528049     3A    -11.265960
       4A    -11.265867     5A    -11.240332     6A     -1.377497
       7A     -1.173143     8A     -0.998830     9A     -0.907432
      10A     -0.814823    11A     -0.682871    12A     -0.672084
      13A     -0.642791    14A     -0.609644    15A     -0.605085
      16A     -0.539610    17A     -0.534779    18A     -0.495604
      19A     -0.471664    20A     -0.413595    21A     -0.379736

  @DF-RHF Final Energy:  -248.12236526218368

   => Energetics <=

    Nuclear Repulsion Energy =            194.4560818737447789
    One-Electron Energy =                -722.8091327153624661
    Two-Electron Energy =                 280.2306855794340663
    DFT Exchange-Correlation Energy =       0.0000000000000000
    Empirical Dispersion Energy =           0.0000000000000000
    PCM Polarization Energy =               0.0000000000000000
    EFP Energy =                            0.0000000000000000
    Total Energy =                       -248.1223652621836209
    Molecular point group: c1
  Basis Set: 6-31G*
  Basis Set:

  -Total Gradient:
     Atom            X                  Y                   Z
    ------   -----------------  -----------------  -----------------
       1        0.000010424302     0.000001190389    -0.000017866982
       2       -0.000007012016     0.000006808961    -0.000011716573
       3        0.000000769656    -0.000084727523     0.000034481449
       4       -0.000001890587     0.000012927522    -0.000025482324
       5       -0.000360531724     0.002061172928     0.001077174674
       6        0.000043482195    -0.000022551942     0.000015133558
       7       -0.000024417501    -0.000006908043     0.000010312254
       8        0.000368227972    -0.002524682420    -0.000909635419
       9       -0.000006293970    -0.000026485330     0.000036159377
      10       -0.000001004054     0.000034153593    -0.000054786577
      11        0.000746553389    -0.000418749744    -0.002499018174
      12       -0.000002516066    -0.000000499002    -0.000010380786
      13       -0.000749822320     0.000968581135     0.002345130087
      14       -0.000015969276    -0.000000230526     0.000010495435

  **** Optimization is complete! (in 4 steps) ****
    Final optimized geometry and variables:
    Molecular point group: c1

    Geometry (in Angstrom), charge = 0, multiplicity = 1:

    H           -2.359952804351    -0.894142868514    -1.486008710157
    N           -1.461874135951    -0.908047188833    -1.043094779862
    C           -1.463403423798    -0.080707419405     0.150542806722
    H           -0.799317620888    -0.544371740301    -1.700262787495
    C           -0.088958497026    -0.085437307318     0.785790895913
    H           -1.752507971725     0.954834330184    -0.033874828068
    H           -2.172958823188    -0.495799465255     0.859869044179
    O            0.803610316370     0.521507032303    -0.105697304022
    H           -0.107751916551     0.462117430180     1.727103467675
    H            0.212643473404    -1.109966223936     0.990306216823
    C            2.142473993876     0.530301251989     0.291241256806
    H            2.697430739579    -0.265221926631    -0.196997108516
    H            2.573361423465     1.488262030731     0.027339122790
    H            2.240602548944     0.408369723984     1.366617996266

  Mulliken Charges: (a.u.)
   Center  Symbol    Alpha    Beta     Spin     Total
       1     H     0.33293  0.33293  0.00000  0.33414
       2     N     3.92527  3.92527  0.00000 -0.85054
       3     C     3.06897  3.06897  0.00000 -0.13794
       4     H     0.32362  0.32362  0.00000  0.35277
       5     C     2.98992  2.98992  0.00000  0.02015
       6     H     0.42675  0.42675  0.00000  0.14650
       7     H     0.42065  0.42065  0.00000  0.15869
       8     O     4.31341  4.31341  0.00000 -0.62682
       9     H     0.43061  0.43061  0.00000  0.13878
      10     H     0.42259  0.42259  0.00000  0.15482
      11     C     3.07615  3.07615  0.00000 -0.15230
      12     H     0.42269  0.42269  0.00000  0.15461
      13     H     0.41675  0.41675  0.00000  0.16651
      14     H     0.42969  0.42969  0.00000  0.14063

   Total alpha = 21.00000, Total beta = 21.00000, Total charge =  0.00000
