  ==> Input File <==

--------------------------------------------------------------------------
set {
	reference rhf
	basis 6-31G*
}

set_num_threads( 1 )
memory 2 gb

molecule MOL {
0 1

O	 2.862325	 1.357334	 0.000267
C	 2.843464	 0.164689	 -0.000222
C	 1.546494	 -0.624492	 -0.000609
C	 4.124123	 -0.644674	 -0.000428
C	 0.291004	 0.242674	 0.000989
H	 1.557904	 -1.283758	 -0.867573
H	 1.558622	 -1.285963	 0.864672
C	 0.473578	 1.540089	 -0.788406
H	 0.016853	 0.469802	 1.026359
H	 -0.535559	 -0.327278	 -0.411439
C	 -0.778731	 2.418403	 -0.792572
H	 1.306193	 2.105032	 -0.371705
H	 0.749964	 1.305048	 -1.815262
C	 -0.603970	 3.718142	 -1.580069
H	 -1.055532	 2.654571	 0.233403
H	 -1.611511	 1.854971	 -1.209727
C	 -1.859040	 4.590198	 -1.579424
H	 0.227453	 4.282781	 -1.163246
H	 -0.328735	 3.483327	 -2.606211
H	 -2.141033	 4.870501	 -0.568454
H	 -1.703942	 5.503999	 -2.144767
H	 -2.700882	 4.065832	 -2.022693
H	 4.165367	 -1.288615	 -0.874074
H	 4.976217	 0.020734	 -0.001915
H	 4.166763	 -1.286207	 0.874930

	symmetry c1
}
set optking {
	frozen_dihedral = ("
		9 5 8 12,
		15 11 8 12,
		15 11 14 18,
		1 2 3 6
	")
}

ee = energy('scf')
oeprop('DIPOLE', 'QUADRUPOLE', 'MULLIKEN_CHARGES')
f=open( 'psi4out.xyz', 'w' )
f.write( "25  " )
f.write( str(ee) + "\n" )
f.write( MOL.save_string_xyz() )
f.close()
--------------------------------------------------------------------------

    Molecular point group: c1

    Geometry (in Angstrom), charge = 0, multiplicity = 1:

       Center              X                  Y                   Z               Mass
    ------------   -----------------  -----------------  -----------------  -----------------
           O          1.871524126574    -0.078133997638     0.531244123773    15.994914619560
           C          1.852663126574    -1.270778997638     0.530755123773    12.000000000000
           C          0.555693126574    -2.059959997638     0.530368123773    12.000000000000
           C          3.133322126574    -2.080141997638     0.530549123773    12.000000000000
           C         -0.699796873426    -1.192793997638     0.531966123773    12.000000000000
           H          0.567103126574    -2.719225997638    -0.336595876227     1.007825032070
           H          0.567821126574    -2.721430997638     1.395649123773     1.007825032070
           C         -0.517222873426     0.104621002362    -0.257428876227    12.000000000000
           H         -0.973947873426    -0.965665997638     1.557336123773     1.007825032070
           H         -1.526359873426    -1.762745997638     0.119538123773     1.007825032070
           C         -1.769531873426     0.982935002362    -0.261594876227    12.000000000000
           H          0.315392126574     0.669564002362     0.159272123773     1.007825032070
           H         -0.240836873426    -0.130419997638    -1.284284876227     1.007825032070
           C         -1.594770873426     2.282674002362    -1.049091876227    12.000000000000
           H         -2.046332873426     1.219103002362     0.764380123773     1.007825032070
           H         -2.602311873426     0.419503002362    -0.678749876227     1.007825032070
           C         -2.849840873426     3.154730002362    -1.048446876227    12.000000000000
           H         -0.763347873426     2.847313002362    -0.632268876227     1.007825032070
           H         -1.319535873426     2.047859002362    -2.075233876227     1.007825032070
           H         -3.131833873426     3.435033002362    -0.037476876227     1.007825032070
           H         -2.694742873426     4.068531002362    -1.613789876227     1.007825032070
           H         -3.691682873426     2.630364002362    -1.491715876227     1.007825032070
           H          3.174566126574    -2.724082997638    -0.343096876227     1.007825032070
           H          3.985416126574    -1.414733997638     0.529062123773     1.007825032070
           H          3.175962126574    -2.721674997638     1.405907123773     1.007825032070

  Charge       = 0
  Multiplicity = 1
  Basis Set: 6-31G*
  Basis Set:

    Orbital Energies (a.u.)
    -----------------------

    Doubly Occupied:

       1A    -20.551685     2A    -11.332411     3A    -11.233719
       4A    -11.231349     5A    -11.215386     6A    -11.203351
       7A    -11.199554     8A    -11.197967     9A    -11.185692
      10A     -1.405421    11A     -1.084111    12A     -1.051351
      13A     -1.014700    14A     -0.961086    15A     -0.884003
      16A     -0.810407    17A     -0.779928    18A     -0.736897
      19A     -0.670531    20A     -0.642853    21A     -0.626523
      22A     -0.621417    23A     -0.590913    24A     -0.581124
      25A     -0.565252    26A     -0.549854    27A     -0.530710
      28A     -0.521913    29A     -0.511059    30A     -0.505257
      31A     -0.483897    32A     -0.466999    33A     -0.454062
      34A     -0.447695    35A     -0.431623    36A     -0.379388

  @DF-RHF Final Energy:  -387.11148516009973

   => Energetics <=

    Nuclear Repulsion Energy =            456.9102486199100213
    One-Electron Energy =               -1430.7232568624601754
    Two-Electron Energy =                 586.7015230824508762
    DFT Exchange-Correlation Energy =       0.0000000000000000
    Empirical Dispersion Energy =           0.0000000000000000
    PCM Polarization Energy =               0.0000000000000000
    EFP Energy =                            0.0000000000000000
    Total Energy =                       -387.1114851600992779

  Mulliken Charges: (a.u.)
   Center  Symbol    Alpha    Beta     Spin     Total
       1     O     4.26427  4.26427  0.00000 -0.52855
       2     C     2.73234  2.73234  0.00000  0.53531
       3     C     3.21389  3.21389  0.00000 -0.42778
       4     C     3.28687  3.28687  0.00000 -0.57374
       5     C     3.15096  3.15096  0.00000 -0.30191
       6     H     0.40754  0.40754  0.00000  0.18492
       7     H     0.40634  0.40634  0.00000  0.18733
       8     C     3.17112  3.17112  0.00000 -0.34223
       9     H     0.41888  0.41888  0.00000  0.16225
      10     H     0.41935  0.41935  0.00000  0.16130
      11     C     3.14797  3.14797  0.00000 -0.29594
      12     H     0.37208  0.37208  0.00000  0.25583
      13     H     0.43372  0.43372  0.00000  0.13255
      14     C     3.15022  3.15022  0.00000 -0.30044
      15     H     0.42778  0.42778  0.00000  0.14444
      16     H     0.43195  0.43195  0.00000  0.13609
      17     C     3.23856  3.23856  0.00000 -0.47712
      18     H     0.42162  0.42162  0.00000  0.15675
      19     H     0.42509  0.42509  0.00000  0.14982
      20     H     0.42300  0.42300  0.00000  0.15401
      21     H     0.42126  0.42126  0.00000  0.15748
      22     H     0.42353  0.42353  0.00000  0.15294
      23     H     0.40783  0.40783  0.00000  0.18434
      24     H     0.39612  0.39612  0.00000  0.20776
      25     H     0.40771  0.40771  0.00000  0.18458

   Total alpha = 36.00000, Total beta = 36.00000, Total charge =  0.00000
