  ==> Input File <==

--------------------------------------------------------------------------
set {
	reference rhf
	basis cc-pvtz
}

set_num_threads( 4 )
memory 2 gb

molecule MOL {
0 1

H	 -0.080779	 -0.551192	 0.817326
N	 -0.625934	 -0.663929	 -0.000707
C	 -1.978635	 -0.158664	 0.001017
C	 -0.060074	 -1.282429	 -1.060821
H	 -2.519057	 -0.493535	 -0.876362
H	 -1.938890	 0.917202	 -0.004137
H	 -2.514266	 -0.485137	 0.884506
C	 1.369490	 -1.726539	 -0.841884
O	 -0.630556	 -1.464225	 -2.095508
H	 1.425498	 -2.428224	 -0.017810
H	 1.730531	 -2.198787	 -1.740605
H	 1.998079	 -0.876606	 -0.602910

	symmetry c1
}
set optking {
	frozen_dihedral = ("
		4 2 3 5
	")
}

ee = optimize('scf')
oeprop('DIPOLE', 'QUADRUPOLE', 'MULLIKEN_CHARGES')
f=open( 'psi4out.xyz', 'w' )
f.write( "12  " )
f.write( str(ee) + "\n" )
f.write( MOL.save_string_xyz() )
f.close()
--------------------------------------------------------------------------

    Molecular point group: c1
  Charge       = 0
  Multiplicity = 1
  Basis Set: CC-PVTZ
  Basis Set:
  @DF-RHF Final Energy:  -247.10036601928783
    Total Energy =                       -247.1003660192878897
    Molecular point group: c1
  Basis Set: CC-PVTZ
  Basis Set:
  Basis Set: CC-PVTZ
  Basis Set:
  @DF-RHF Final Energy:  -247.10088717270943
    Total Energy =                       -247.1008871727093492
  Basis Set: CC-PVTZ
  Basis Set:
  Basis Set: CC-PVTZ
  Basis Set:
  @DF-RHF Final Energy:  -247.10088632072495
    Total Energy =                       -247.1008863207248396
  Basis Set: CC-PVTZ
  Basis Set:
  Basis Set: CC-PVTZ
  Basis Set:
  @DF-RHF Final Energy:  -247.10100204665602
    Total Energy =                       -247.1010020466559354
  Basis Set: CC-PVTZ
  Basis Set:
  Basis Set: CC-PVTZ
  Basis Set:
  @DF-RHF Final Energy:  -247.10100513361425
    Total Energy =                       -247.1010051336138531
  Basis Set: CC-PVTZ
  Basis Set:
  Basis Set: CC-PVTZ
  Basis Set:
  @DF-RHF Final Energy:  -247.10100726939859
    Total Energy =                       -247.1010072693985080
  Basis Set: CC-PVTZ
  Basis Set:
  Charge       = 0
  Multiplicity = 1
  Basis Set: CC-PVTZ
  Basis Set:

    Orbital Energies (a.u.)
    -----------------------

    Doubly Occupied:

       1A    -20.506695     2A    -15.574866     3A    -11.336834
       4A    -11.252465     5A    -11.228079     6A     -1.388527
       7A     -1.231012     8A     -1.016696     9A     -0.932868
      10A     -0.788212    11A     -0.690963    12A     -0.651690
      13A     -0.635391    14A     -0.586787    15A     -0.582975
      16A     -0.555642    17A     -0.544988    18A     -0.511223
      19A     -0.417312    20A     -0.389369

  @DF-RHF Final Energy:  -247.10100824992264

   => Energetics <=

    Nuclear Repulsion Energy =            181.6476985589310971
    One-Electron Energy =                -695.8522264562473083
    Two-Electron Energy =                 267.1035196473938527
    DFT Exchange-Correlation Energy =       0.0000000000000000
    Empirical Dispersion Energy =           0.0000000000000000
    PCM Polarization Energy =               0.0000000000000000
    EFP Energy =                            0.0000000000000000
    Total Energy =                       -247.1010082499223586
    Molecular point group: c1
  Basis Set: CC-PVTZ
  Basis Set:

  -Total Gradient:
     Atom            X                  Y                   Z
    ------   -----------------  -----------------  -----------------
       1        0.000002954439    -0.000002298871    -0.000006952598
       2        0.000053465357     0.000177953025    -0.000077603333
       3       -0.000064258102    -0.000131489906     0.000106431664
       4       -0.000019684257    -0.000096456276     0.000015738205
       5        0.000022389088     0.000087395891    -0.000069552552
       6        0.000013266193    -0.000032774411    -0.000000336682
       7       -0.000001698173    -0.000004888363    -0.000006452058
       8        0.000006545316     0.000019073707    -0.000003507638
       9       -0.000012432538    -0.000002639465     0.000033997701
      10       -0.000007981696    -0.000008027880    -0.000002718132
      11        0.000000007326     0.000002345751     0.000000647002
      12        0.000007427047    -0.000008193201     0.000010308421

  **** Optimization is complete! (in 7 steps) ****
    Final optimized geometry and variables:
    Molecular point group: c1

    Geometry (in Angstrom), charge = 0, multiplicity = 1:

    H            0.325520581058     0.519821327129     1.602739158271
    N           -0.230972941523     0.382515243154     0.796096177218
    C           -1.577522263745     0.903841052645     0.794087449386
    C            0.333439386595    -0.229653231287    -0.268653127249
    H           -2.073173066354     0.564634160780    -0.099679972805
    H           -1.583155947726     1.987865784761     0.804032555090
    H           -2.124178296751     0.545817575846     1.657628265733
    C            1.762984956315    -0.676863895236    -0.054430155674
    O           -0.242536888756    -0.412431401875    -1.299952488323
    H            1.821881059331    -1.372543804247     0.774464253601
    H            2.117826111638    -1.156154695057    -0.951975726660
    H            2.395256779844     0.173208074477     0.174575755801

  Mulliken Charges: (a.u.)
   Center  Symbol    Alpha    Beta     Spin     Total
       1     H     0.41042  0.41042  0.00000  0.17916
       2     N     3.62170  3.62170  0.00000 -0.24341
       3     C     3.08553  3.08553  0.00000 -0.17106
       4     C     2.83664  2.83664  0.00000  0.32672
       5     H     0.43150  0.43150  0.00000  0.13699
       6     H     0.45627  0.45627  0.00000  0.08746
       7     H     0.45522  0.45522  0.00000  0.08957
       8     C     3.15357  3.15357  0.00000 -0.30713
       9     O     4.21551  4.21551  0.00000 -0.43103
      10     H     0.44977  0.44977  0.00000  0.10046
      11     H     0.43354  0.43354  0.00000  0.13293
      12     H     0.45033  0.45033  0.00000  0.09934

   Total alpha = 20.00000, Total beta = 20.00000, Total charge = -0.00000
