  ==> Input File <==

--------------------------------------------------------------------------
set {
	reference rhf
	basis 6-31G*
}

set_num_threads( 4 )
memory 2 gb

molecule MOL {
0 1

O	 -2.439739	 -0.935931	 -0.423848
C	 -1.921153	 0.064240	 -0.045697
C	 -2.624470	 1.379923	 0.150949
O	 -0.632575	 0.154573	 0.251549
H	 -2.168117	 2.136577	 -0.476876
H	 -3.669540	 1.273223	 -0.098610
H	 -2.519365	 1.700893	 1.180846
C	 0.160891	 -1.019931	 0.106212
C	 1.589627	 -0.672828	 0.480843
H	 0.089836	 -1.367806	 -0.916050
H	 -0.238459	 -1.792301	 0.749618
C	 2.246377	 0.346236	 -0.452210
H	 2.163194	 -1.597435	 0.473358
H	 1.604769	 -0.303424	 1.502885
C	 1.433333	 0.586068	 -1.723604
H	 2.374102	 1.287661	 0.078360
H	 3.241105	 0.002370	 -0.716088
H	 1.919884	 1.310990	 -2.368420
H	 0.441243	 0.963178	 -1.491603
H	 1.313010	 -0.332493	 -2.290919

	symmetry c1
}
set optking {
	frozen_dihedral = ("
		16 12 9 8
	")
}

ee = optimize('scf')
oeprop('DIPOLE', 'QUADRUPOLE', 'MULLIKEN_CHARGES')
f=open( 'psi4out.xyz', 'w' )
f.write( "20  " )
f.write( str(ee) + "\n" )
f.write( MOL.save_string_xyz() )
f.close()
--------------------------------------------------------------------------

    Molecular point group: c1
  Charge       = 0
  Multiplicity = 1
  Basis Set: 6-31G*
  Basis Set:
  @DF-RHF Final Energy:  -383.93193432181323
    Total Energy =                       -383.9319343218132872
    Molecular point group: c1
  Basis Set: 6-31G*
  Basis Set:
  Basis Set: 6-31G*
  Basis Set:
  @DF-RHF Final Energy:  -383.93545424354613
    Total Energy =                       -383.9354542435461326
  Basis Set: 6-31G*
  Basis Set:
  Basis Set: 6-31G*
  Basis Set:
  @DF-RHF Final Energy:  -383.93687422695132
    Total Energy =                       -383.9368742269512040
  Basis Set: 6-31G*
  Basis Set:
  Basis Set: 6-31G*
  Basis Set:
  @DF-RHF Final Energy:  -383.93503121135490
    Total Energy =                       -383.9350312113549535
  Basis Set: 6-31G*
  Basis Set:
  @DF-RHF Final Energy:  -383.93739418204922
    Total Energy =                       -383.9373941820492746
  Basis Set: 6-31G*
  Basis Set:
  @DF-RHF Final Energy:  -383.93746106081932
    Total Energy =                       -383.9374610608192597
  Basis Set: 6-31G*
  Basis Set:
  Basis Set: 6-31G*
  Basis Set:
  @DF-RHF Final Energy:  -383.93746313866978
    Total Energy =                       -383.9374631386696137
  Basis Set: 6-31G*
  Basis Set:
  Basis Set: 6-31G*
  Basis Set:
  @DF-RHF Final Energy:  -383.93747611450226
    Total Energy =                       -383.9374761145023740
  Basis Set: 6-31G*
  Basis Set:
  Charge       = 0
  Multiplicity = 1
  Basis Set: 6-31G*
  Basis Set:

    Orbital Energies (a.u.)
    -----------------------

    Doubly Occupied:

       1A    -20.601379     2A    -20.543936     3A    -11.374248
       4A    -11.281849     5A    -11.233339     6A    -11.226240
       7A    -11.222363     8A    -11.212213     9A     -1.467420
      10A     -1.361722    11A     -1.082410    12A     -1.025838
      13A     -0.979723    14A     -0.893387    15A     -0.801883
      16A     -0.771478    17A     -0.689860    18A     -0.687818
      19A     -0.662782    20A     -0.626648    21A     -0.613539
      22A     -0.579490    23A     -0.570358    24A     -0.559355
      25A     -0.541326    26A     -0.527593    27A     -0.521846
      28A     -0.478646    29A     -0.471640    30A     -0.468672
      31A     -0.448315    32A     -0.437424

  @DF-RHF Final Energy:  -383.93747624180361

   => Energetics <=

    Nuclear Repulsion Energy =            393.7679915203843279
    One-Electron Energy =               -1303.4814520508066380
    Two-Electron Energy =                 525.7759842886185879
    DFT Exchange-Correlation Energy =       0.0000000000000000
    Empirical Dispersion Energy =           0.0000000000000000
    PCM Polarization Energy =               0.0000000000000000
    EFP Energy =                            0.0000000000000000
    Total Energy =                       -383.9374762418036653
    Molecular point group: c1
  Basis Set: 6-31G*
  Basis Set:

  -Total Gradient:
     Atom            X                  Y                   Z
    ------   -----------------  -----------------  -----------------
       1       -0.000025862815    -0.000011563137     0.000000116888
       2        0.000029783343     0.000003124547     0.000005294455
       3        0.000002661395    -0.000002280496    -0.000007573127
       4       -0.000000532437     0.000018517767     0.000009606003
       5        0.000000438125     0.000002503198     0.000001190938
       6        0.000000463419    -0.000001339659    -0.000000927507
       7        0.000000392628    -0.000003694426     0.000000243488
       8        0.001319785634    -0.003056517403    -0.002187471783
       9       -0.000845236566     0.004034466159     0.003581923595
      10        0.000006291691     0.000001789017     0.000001365994
      11       -0.000002398896    -0.000003730758     0.000001875966
      12       -0.005032418312     0.000704234818    -0.003278490822
      13       -0.000012125435    -0.000003169769     0.000001216272
      14       -0.000005936607    -0.000003127014     0.000001057053
      15       -0.000008087067     0.000001593243     0.000020395234
      16        0.004575763668    -0.001684962666     0.001847912338
      17        0.000004018731     0.000000148381     0.000008398512
      18        0.000004443313    -0.000000627532    -0.000003417670
      19       -0.000012198550     0.000002597711    -0.000008228666
      20        0.000000754738     0.000002038021     0.000005512837

  **** Optimization is complete! (in 9 steps) ****
    Final optimized geometry and variables:
    Molecular point group: c1

    Geometry (in Angstrom), charge = 0, multiplicity = 1:

    O           -2.207624577062    -0.962533436533    -0.103107229632
    C           -1.693241787110     0.053633552692     0.236696308297
    C           -2.417385571558     1.353702338374     0.460876614557
    O           -0.393645683130     0.176124852445     0.466534490615
    H           -2.020931889788     2.112910223982    -0.203590808466
    H           -3.472638080314     1.217029265540     0.277472903977
    H           -2.257240814742     1.691847752750     1.478075780013
    C            0.418085305808    -0.984281638124     0.294228523190
    C            1.848747818912    -0.626054971844     0.652528647889
    H            0.321345302544    -1.334552597264    -0.722781980732
    H            0.049571116469    -1.763048371993     0.948072571328
    C            2.592492313111     0.361395445785    -0.283325820320
    H            2.389715012827    -1.569182598108     0.671868377769
    H            1.862420249359    -0.250050122380     1.669870654327
    C            1.985594139066     0.603946832289    -1.665423453532
    H            2.731404358395     1.306542508099     0.232038702293
    H            3.601243039512    -0.018370358792    -0.423981888072
    H            2.611944426586     1.288908816147    -2.228120636421
    H            0.994611218707     1.037092276041    -1.602566295423
    H            1.915853771396    -0.315322225419    -2.239544721731

  Mulliken Charges: (a.u.)
   Center  Symbol    Alpha    Beta     Spin     Total
       1     O     4.28337  4.28337  0.00000 -0.56674
       2     C     2.61953  2.61953  0.00000  0.76094
       3     C     3.28172  3.28172  0.00000 -0.56344
       4     O     4.30906  4.30906  0.00000 -0.61812
       5     H     0.40088  0.40088  0.00000  0.19825
       6     H     0.39688  0.39688  0.00000  0.20624
       7     H     0.40060  0.40060  0.00000  0.19881
       8     C     3.00540  3.00540  0.00000 -0.01079
       9     C     3.16826  3.16826  0.00000 -0.33653
      10     H     0.40837  0.40837  0.00000  0.18325
      11     H     0.40750  0.40750  0.00000  0.18499
      12     C     3.15417  3.15417  0.00000 -0.30834
      13     H     0.41722  0.41722  0.00000  0.16555
      14     H     0.41099  0.41099  0.00000  0.17802
      15     C     3.24717  3.24717  0.00000 -0.49433
      16     H     0.41655  0.41655  0.00000  0.16689
      17     H     0.41977  0.41977  0.00000  0.16046
      18     H     0.41756  0.41756  0.00000  0.16489
      19     H     0.41367  0.41367  0.00000  0.17267
      20     H     0.42134  0.42134  0.00000  0.15732

   Total alpha = 32.00000, Total beta = 32.00000, Total charge = -0.00000
