  ==> Input File <==

--------------------------------------------------------------------------
set {
	reference rhf
	basis 6-31G*
}

set_num_threads( 4 )
memory 2 gb

molecule MOL {
0 1

H	 2.143510	 2.004321	 -1.031777
N	 1.332768	 1.419803	 -1.099223
C	 1.267428	 0.496480	 0.024474
H	 1.409621	 0.916838	 -1.962956
C	 -0.016086	 -0.325158	 -0.029487
H	 1.277740	 1.085728	 0.936458
H	 2.126607	 -0.176883	 0.077142
C	 -1.282277	 0.529072	 0.046735
H	 -0.012495	 -0.908639	 -0.945788
H	 -0.015903	 -1.041248	 0.791956
C	 -2.563920	 -0.301775	 -0.006060
H	 -1.284084	 1.244622	 -0.773004
H	 -1.271387	 1.115393	 0.963286
H	 -2.621848	 -0.873522	 -0.927727
H	 -3.445135	 0.329952	 0.047812
H	 -2.609542	 -1.004582	 0.821105

	symmetry c1
}
set optking {
	frozen_dihedral = ("
		6 3 5 9
	")
}

ee = optimize('scf')
oeprop('DIPOLE', 'QUADRUPOLE', 'MULLIKEN_CHARGES')
f=open( 'psi4out.xyz', 'w' )
f.write( "16  " )
f.write( str(ee) + "\n" )
f.write( MOL.save_string_xyz() )
f.close()
--------------------------------------------------------------------------

    Molecular point group: c1
  Charge       = 0
  Multiplicity = 1
  Basis Set: 6-31G*
  Basis Set:
  @DF-RHF Final Energy:  -212.31654843738380
    Total Energy =                       -212.3165484373839149
    Molecular point group: c1
  Basis Set: 6-31G*
  Basis Set:
  Basis Set: 6-31G*
  Basis Set:
  @DF-RHF Final Energy:  -212.31670866969549
    Total Energy =                       -212.3167086696954584
  Basis Set: 6-31G*
  Basis Set:
  Basis Set: 6-31G*
  Basis Set:
  @DF-RHF Final Energy:  -212.31674585094291
    Total Energy =                       -212.3167458509427661
  Basis Set: 6-31G*
  Basis Set:
  Basis Set: 6-31G*
  Basis Set:
  @DF-RHF Final Energy:  -212.31675068604630
    Total Energy =                       -212.3167506860463618
  Basis Set: 6-31G*
  Basis Set:
  Basis Set: 6-31G*
  Basis Set:
  @DF-RHF Final Energy:  -212.31675224747701
    Total Energy =                       -212.3167522474769839
  Basis Set: 6-31G*
  Basis Set:
  Charge       = 0
  Multiplicity = 1
  Basis Set: 6-31G*
  Basis Set:

    Orbital Energies (a.u.)
    -----------------------

    Doubly Occupied:

       1A    -15.533603     2A    -11.240782     3A    -11.210534
       4A    -11.204427     5A    -11.202614     6A     -1.177718
       7A     -1.052319     8A     -0.957754     9A     -0.845739
      10A     -0.782236    11A     -0.665861    12A     -0.626686
      13A     -0.609704    14A     -0.573834    15A     -0.562330
      16A     -0.517876    17A     -0.499753    18A     -0.466251
      19A     -0.461844    20A     -0.458744    21A     -0.379495

  @DF-RHF Final Energy:  -212.31675236885127

   => Energetics <=

    Nuclear Repulsion Energy =            188.8496025398730467
    One-Electron Energy =                -660.2725047589754013
    Two-Electron Energy =                 259.1061498502511427
    DFT Exchange-Correlation Energy =       0.0000000000000000
    Empirical Dispersion Energy =           0.0000000000000000
    PCM Polarization Energy =               0.0000000000000000
    EFP Energy =                            0.0000000000000000
    Total Energy =                       -212.3167523688512119
    Molecular point group: c1
  Basis Set: 6-31G*
  Basis Set:

  -Total Gradient:
     Atom            X                  Y                   Z
    ------   -----------------  -----------------  -----------------
       1        0.000003122773     0.000001573762    -0.000006117757
       2        0.000003910485    -0.000006946747     0.000008844084
       3       -0.000252664869     0.000410355634    -0.000255086577
       4        0.000000674111     0.000003224971    -0.000002318800
       5       -0.000242609357     0.000387626986    -0.000261823420
       6        0.000251255905    -0.000404068354     0.000259642419
       7        0.000006325270     0.000010312984    -0.000006544153
       8        0.000012079109    -0.000013543791     0.000000290875
       9        0.000239069123    -0.000394916058     0.000271386603
      10       -0.000007110791    -0.000007318327     0.000004840222
      11       -0.000008831382    -0.000001515909     0.000009107668
      12        0.000002954940     0.000018710701    -0.000011970643
      13       -0.000005682771    -0.000001423215    -0.000010030878
      14       -0.000001364611     0.000005702298    -0.000000347177
      15       -0.000000856188    -0.000003556025     0.000004046775
      16       -0.000000271746    -0.000004218909    -0.000003919242

  **** Optimization is complete! (in 6 steps) ****
    Final optimized geometry and variables:
    Molecular point group: c1

    Geometry (in Angstrom), charge = 0, multiplicity = 1:

    H            2.401885427377     1.625243370494    -0.793775866202
    N            1.593230715525     1.040282710177    -0.878533864708
    C            1.495664905274     0.127651240437     0.252295253164
    H            1.694141336100     0.527402172550    -1.734088802093
    C            0.203895974154    -0.685594783951     0.203413057623
    H            1.511613497886     0.721413623135     1.161424500001
    H            2.341840348897    -0.560080898533     0.315595382673
    C           -1.069242382654     0.157473354908     0.285084300558
    H            0.192532615067    -1.279638811157    -0.710450144154
    H            0.219606236419    -1.400637296006     1.024132414204
    C           -2.340678729908    -0.689350357589     0.233358907077
    H           -1.073265661598     0.880440307448    -0.522312290795
    H           -1.055640393414     0.730881949200     1.210005769597
    H           -2.401040640326    -1.250823963739    -0.695146016518
    H           -3.228897422102    -0.068473586285     0.300322991435
    H           -2.374714680745    -1.403472680878     1.051894058885

  Mulliken Charges: (a.u.)
   Center  Symbol    Alpha    Beta     Spin     Total
       1     H     0.33170  0.33170  0.00000  0.33660
       2     N     3.92023  3.92023  0.00000 -0.84046
       3     C     3.06503  3.06503  0.00000 -0.13005
       4     H     0.33534  0.33534  0.00000  0.32933
       5     C     3.15393  3.15393  0.00000 -0.30786
       6     H     0.42080  0.42080  0.00000  0.15839
       7     H     0.43189  0.43189  0.00000  0.13621
       8     C     3.14938  3.14938  0.00000 -0.29876
       9     H     0.42761  0.42761  0.00000  0.14478
      10     H     0.42377  0.42377  0.00000  0.15247
      11     C     3.23987  3.23987  0.00000 -0.47974
      12     H     0.40687  0.40687  0.00000  0.18626
      13     H     0.42603  0.42603  0.00000  0.14794
      14     H     0.42346  0.42346  0.00000  0.15308
      15     H     0.41987  0.41987  0.00000  0.16026
      16     H     0.42422  0.42422  0.00000  0.15156

   Total alpha = 21.00000, Total beta = 21.00000, Total charge =  0.00000
