  ==> Input File <==

--------------------------------------------------------------------------
set {
	reference rhf
	basis 6-31G*
}

set_num_threads( 4 )
memory 2 gb

molecule MOL {
0 1

H	 0.077881	 -1.589444	 0.997037
C	 -0.840541	 -1.120080	 0.660080
N	 -0.528168	 0.128977	 -0.000000
H	 -1.452600	 -0.927460	 1.533760
H	 -1.366401	 -1.837109	 0.023993
C	 0.248044	 -0.037491	 -1.209632
H	 -1.373312	 0.623347	 -0.205813
H	 0.998722	 0.743888	 -1.266824
H	 -0.398417	 0.061950	 -2.074060
H	 0.763621	 -0.999315	 -1.275517

	symmetry c1
}
set optking {
	frozen_dihedral = ("
		2 3 6 8
	")
}

ee = optimize('scf')
oeprop('DIPOLE', 'QUADRUPOLE', 'MULLIKEN_CHARGES')
f=open( 'psi4out.xyz', 'w' )
f.write( "10  " )
f.write( str(ee) + "\n" )
f.write( MOL.save_string_xyz() )
f.close()
--------------------------------------------------------------------------

    Molecular point group: c1
  Charge       = 0
  Multiplicity = 1
  Basis Set: 6-31G*
  Basis Set:
  @DF-RHF Final Energy:  -134.23303370830433
    Total Energy =                       -134.2330337083043048
    Molecular point group: c1
  Basis Set: 6-31G*
  Basis Set:
  Basis Set: 6-31G*
  Basis Set:
  @DF-RHF Final Energy:  -134.23438252936941
    Total Energy =                       -134.2343825293693556
  Basis Set: 6-31G*
  Basis Set:
  Basis Set: 6-31G*
  Basis Set:
  @DF-RHF Final Energy:  -134.23457444954778
    Total Energy =                       -134.2345744495477788
  Basis Set: 6-31G*
  Basis Set:
  Basis Set: 6-31G*
  Basis Set:
  @DF-RHF Final Energy:  -134.23459152480319
    Total Energy =                       -134.2345915248032497
  Basis Set: 6-31G*
  Basis Set:
  Charge       = 0
  Multiplicity = 1
  Basis Set: 6-31G*
  Basis Set:

    Orbital Energies (a.u.)
    -----------------------

    Doubly Occupied:

       1A    -15.534265     2A    -11.236115     3A    -11.235480
       4A     -1.194496     5A     -0.947578     6A     -0.854888
       7A     -0.660248     8A     -0.607813     9A     -0.588279
      10A     -0.545053    11A     -0.512072    12A     -0.506332
      13A     -0.354138

  @DF-RHF Final Energy:  -134.23459325583303

   => Energetics <=

    Nuclear Repulsion Energy =             84.4198721101814300
    One-Electron Energy =                -347.7554156660514764
    Two-Electron Energy =                 129.1009503000370273
    DFT Exchange-Correlation Energy =       0.0000000000000000
    Empirical Dispersion Energy =           0.0000000000000000
    PCM Polarization Energy =               0.0000000000000000
    EFP Energy =                            0.0000000000000000
    Total Energy =                       -134.2345932558330333
    Molecular point group: c1
  Basis Set: 6-31G*
  Basis Set:

  -Total Gradient:
     Atom            X                  Y                   Z
    ------   -----------------  -----------------  -----------------
       1       -0.000002897190     0.000001277568     0.000008058725
       2        0.002383152806     0.000084098480     0.001512121718
       3       -0.002805951659    -0.000759817320    -0.001594092302
       4        0.000003743801     0.000000835681    -0.000013683258
       5       -0.000000910380     0.000029835412     0.000003211234
       6       -0.001987020334     0.002847843674    -0.001680707308
       7        0.000026919862     0.000001557619    -0.000038650190
       8        0.002343725463    -0.002177095943     0.001734780537
       9        0.000017012553    -0.000015597583     0.000061861022
      10        0.000022225078    -0.000012937586     0.000007099822

  **** Optimization is complete! (in 5 steps) ****
    Final optimized geometry and variables:
    Molecular point group: c1

    Geometry (in Angstrom), charge = 0, multiplicity = 1:

    H            0.455043646809    -1.257709571256     1.184242945591
    C           -0.460933201015    -0.775576241325     0.860800830653
    N           -0.142590462936     0.470256128754     0.199299175902
    H           -1.053365131439    -0.570890179496     1.745411602040
    H           -1.012815263619    -1.487736604012     0.241329911504
    C            0.628519422140     0.345188431524    -1.024737079122
    H           -0.967199347379     1.012721805897     0.047935847915
    H            1.379084915154     1.126573884072    -1.087560974076
    H            0.020287599599     0.365591490789    -1.927812736189
    H            1.164744993150    -0.597900275891    -1.020718329394

  Mulliken Charges: (a.u.)
   Center  Symbol    Alpha    Beta     Spin     Total
       1     H     0.41794  0.41794  0.00000  0.16412
       2     C     3.14182  3.14182  0.00000 -0.28363
       3     N     3.84638  3.84638  0.00000 -0.69276
       4     H     0.41810  0.41810  0.00000  0.16379
       5     H     0.43524  0.43524  0.00000  0.12951
       6     C     3.14338  3.14338  0.00000 -0.28676
       7     H     0.33085  0.33085  0.00000  0.33829
       8     H     0.41623  0.41623  0.00000  0.16754
       9     H     0.42921  0.42921  0.00000  0.14159
      10     H     0.42085  0.42085  0.00000  0.15831

   Total alpha = 13.00000, Total beta = 13.00000, Total charge =  0.00000
