  ==> Input File <==

--------------------------------------------------------------------------
set {
	reference rhf
	basis 6-31G*
}

set_num_threads( 1 )
memory 2 gb

molecule MOL {
0 1

H	 4.288816	 -0.262966	 -1.603358
C	 3.559528	 -0.669312	 -0.909981
C	 2.270474	 0.151121	 -0.923924
H	 3.371676	 -1.700356	 -1.196143
H	 4.012355	 -0.677931	 0.077500
C	 1.217350	 -0.386724	 0.039429
H	 1.847870	 0.168301	 -1.923674
H	 2.498459	 1.184029	 -0.666019
N	 0.000003	 0.397874	 -0.023260
H	 0.970475	 -1.409159	 -0.233779
H	 1.634144	 -0.429138	 1.051290
C	 -1.217365	 -0.386708	 0.039277
H	 -0.000031	 1.072115	 0.718656
C	 -2.452633	 0.504241	 -0.042481
H	 -1.215291	 -1.074557	 -0.802042
H	 -1.269739	 -1.003477	 0.942735
C	 -3.758029	 -0.289423	 -0.010781
H	 -2.394220	 1.093569	 -0.952170
H	 -2.440793	 1.210787	 0.785871
H	 -3.816659	 -0.981993	 -0.845726
H	 -4.617837	 0.370165	 -0.069296
H	 -3.847478	 -0.867502	 0.904682

	symmetry c1
}
set optking {
	frozen_dihedral = ("
		15 12 14 18
	")
}

ee = energy('scf')
oeprop('DIPOLE', 'QUADRUPOLE', 'MULLIKEN_CHARGES')
f=open( 'psi4out.xyz', 'w' )
f.write( "22  " )
f.write( str(ee) + "\n" )
f.write( MOL.save_string_xyz() )
f.close()
--------------------------------------------------------------------------

    Molecular point group: c1

    Geometry (in Angstrom), charge = 0, multiplicity = 1:

       Center              X                  Y                   Z               Mass
    ------------   -----------------  -----------------  -----------------  -----------------
           H          4.343740259931    -0.157307846006    -1.347538909684     1.007825032070
           C          3.614452259931    -0.563653846006    -0.654161909684    12.000000000000
           C          2.325398259931     0.256779153994    -0.668104909684    12.000000000000
           H          3.426600259931    -1.594697846006    -0.940323909684     1.007825032070
           H          4.067279259931    -0.572272846006     0.333319090316     1.007825032070
           C          1.272274259931    -0.281065846006     0.295248090316    12.000000000000
           H          1.902794259931     0.273959153994    -1.667854909684     1.007825032070
           H          2.553383259931     1.289687153994    -0.410199909684     1.007825032070
           N          0.054927259931     0.503532153994     0.232559090316    14.003074004780
           H          1.025399259931    -1.303500846006     0.022040090316     1.007825032070
           H          1.689068259931    -0.323479846006     1.307109090316     1.007825032070
           C         -1.162440740069    -0.281049846006     0.295096090316    12.000000000000
           H          0.054893259931     1.177773153994     0.974475090316     1.007825032070
           C         -2.397708740069     0.609899153994     0.213338090316    12.000000000000
           H         -1.160366740069    -0.968898846006    -0.546222909684     1.007825032070
           H         -1.214814740069    -0.897818846006     1.198554090316     1.007825032070
           C         -3.703104740069    -0.183764846006     0.245038090316    12.000000000000
           H         -2.339295740069     1.199227153994    -0.696350909684     1.007825032070
           H         -2.385868740069     1.316445153994     1.041690090316     1.007825032070
           H         -3.761734740069    -0.876334846006    -0.589906909684     1.007825032070
           H         -4.562912740069     0.475823153994     0.186523090316     1.007825032070
           H         -3.792553740069    -0.761843846006     1.160501090316     1.007825032070

  Charge       = 0
  Multiplicity = 1
  Basis Set: 6-31G*
  Basis Set:

    Orbital Energies (a.u.)
    -----------------------

    Doubly Occupied:

       1A    -15.532488     2A    -11.239045     3A    -11.237724
       4A    -11.213644     5A    -11.210016     6A    -11.206611
       7A    -11.205689     8A     -1.205465     9A     -1.057221
      10A     -1.024609    11A     -0.927253    12A     -0.869494
      13A     -0.807246    14A     -0.792479    15A     -0.671352
      16A     -0.629750    17A     -0.613803    18A     -0.601375
      19A     -0.579137    20A     -0.559753    21A     -0.536278
      22A     -0.518808    23A     -0.512381    24A     -0.487299
      25A     -0.482513    26A     -0.471758    27A     -0.465122
      28A     -0.450631    29A     -0.356114

  @DF-RHF Final Energy:  -290.37942711908602

   => Energetics <=

    Nuclear Repulsion Energy =            313.8679949243257852
    One-Electron Energy =               -1013.5648776842342613
    Two-Electron Energy =                 409.3174556408217768
    DFT Exchange-Correlation Energy =       0.0000000000000000
    Empirical Dispersion Energy =           0.0000000000000000
    PCM Polarization Energy =               0.0000000000000000
    EFP Energy =                            0.0000000000000000
    Total Energy =                       -290.3794271190866993

  Mulliken Charges: (a.u.)
   Center  Symbol    Alpha    Beta     Spin     Total
       1     H     0.41830  0.41830  0.00000  0.16340
       2     C     3.24564  3.24564  0.00000 -0.49128
       3     C     3.14191  3.14191  0.00000 -0.28381
       4     H     0.42278  0.42278  0.00000  0.15445
       5     H     0.42326  0.42326  0.00000  0.15348
       6     C     3.05706  3.05706  0.00000 -0.11412
       7     H     0.41758  0.41758  0.00000  0.16484
       8     H     0.42421  0.42421  0.00000  0.15157
       9     N     3.85594  3.85594  0.00000 -0.71188
      10     H     0.42290  0.42290  0.00000  0.15420
      11     H     0.43076  0.43076  0.00000  0.13848
      12     C     3.04958  3.04958  0.00000 -0.09915
      13     H     0.33374  0.33374  0.00000  0.33252
      14     C     3.15607  3.15607  0.00000 -0.31213
      15     H     0.42104  0.42104  0.00000  0.15792
      16     H     0.43629  0.43629  0.00000  0.12742
      17     C     3.24327  3.24327  0.00000 -0.48653
      18     H     0.41293  0.41293  0.00000  0.17413
      19     H     0.42667  0.42667  0.00000  0.14666
      20     H     0.42076  0.42076  0.00000  0.15847
      21     H     0.41764  0.41764  0.00000  0.16472
      22     H     0.42168  0.42168  0.00000  0.15664

   Total alpha = 29.00000, Total beta = 29.00000, Total charge =  0.00000
