  ==> Input File <==

--------------------------------------------------------------------------
set {
	reference rhf
	basis 6-31G*
}

set_num_threads( 4 )
memory 2 gb

molecule MOL {
0 1

H	 -3.135461	 -1.215070	 0.001379
O	 -2.310168	 -0.871793	 -0.309793
C	 -2.026376	 0.340750	 0.341611
C	 -0.673256	 0.843270	 -0.132153
H	 -2.792215	 1.080697	 0.115987
H	 -2.013526	 0.200402	 1.421792
C	 0.486613	 -0.083066	 0.235839
H	 -0.715586	 0.970948	 -1.210718
H	 -0.508072	 1.829858	 0.297090
C	 0.637839	 -1.260682	 -0.728613
H	 0.338811	 -0.454453	 1.244669
H	 1.412826	 0.490335	 0.249325
C	 1.800561	 -2.183171	 -0.364246
H	 -0.286284	 -1.834723	 -0.742442
H	 0.778850	 -0.885801	 -1.740553
H	 1.670922	 -2.601681	 0.629702
H	 1.882179	 -3.009802	 -1.063507
H	 2.745180	 -1.646430	 -0.375016

	symmetry c1
}
set optking {
	frozen_dihedral = ("
		10 7 4 8
	")
}

ee = optimize('scf')
oeprop('DIPOLE', 'QUADRUPOLE', 'MULLIKEN_CHARGES')
f=open( 'psi4out.xyz', 'w' )
f.write( "18  " )
f.write( str(ee) + "\n" )
f.write( MOL.save_string_xyz() )
f.close()
--------------------------------------------------------------------------

    Molecular point group: c1
  Charge       = 0
  Multiplicity = 1
  Basis Set: 6-31G*
  Basis Set:
  @DF-RHF Final Energy:  -271.17584663195220
    Total Energy =                       -271.1758466319521403
    Molecular point group: c1
  Basis Set: 6-31G*
  Basis Set:
  Basis Set: 6-31G*
  Basis Set:
  @DF-RHF Final Energy:  -271.17691167313768
    Total Energy =                       -271.1769116731376243
  Basis Set: 6-31G*
  Basis Set:
  Basis Set: 6-31G*
  Basis Set:
  @DF-RHF Final Energy:  -271.17701019184517
    Total Energy =                       -271.1770101918452269
  Basis Set: 6-31G*
  Basis Set:
  Basis Set: 6-31G*
  Basis Set:
  @DF-RHF Final Energy:  -271.17702880649802
    Total Energy =                       -271.1770288064978445
  Basis Set: 6-31G*
  Basis Set:
  Basis Set: 6-31G*
  Basis Set:
  @DF-RHF Final Energy:  -271.17704147569310
    Total Energy =                       -271.1770414756930450
  Basis Set: 6-31G*
  Basis Set:
  Charge       = 0
  Multiplicity = 1
  Basis Set: 6-31G*
  Basis Set:

    Orbital Energies (a.u.)
    -----------------------

    Doubly Occupied:

       1A    -20.554750     2A    -11.269025     3A    -11.213379
       4A    -11.208832     5A    -11.200563     6A    -11.199739
       7A     -1.361345     8A     -1.070742     9A     -1.005881
      10A     -0.911905    11A     -0.821501    12A     -0.776027
      13A     -0.703716    14A     -0.648339    15A     -0.615098
      16A     -0.574708    17A     -0.570678    18A     -0.555995
      19A     -0.524827    20A     -0.505756    21A     -0.485523
      22A     -0.460857    23A     -0.451628    24A     -0.445949
      25A     -0.427138

  @DF-RHF Final Energy:  -271.17704169796656

   => Energetics <=

    Nuclear Repulsion Energy =            253.8955500183113259
    One-Electron Energy =                -871.0173887659384491
    Two-Electron Energy =                 345.9447970496604512
    DFT Exchange-Correlation Energy =       0.0000000000000000
    Empirical Dispersion Energy =           0.0000000000000000
    PCM Polarization Energy =               0.0000000000000000
    EFP Energy =                            0.0000000000000000
    Total Energy =                       -271.1770416979667289
    Molecular point group: c1
  Basis Set: 6-31G*
  Basis Set:

  -Total Gradient:
     Atom            X                  Y                   Z
    ------   -----------------  -----------------  -----------------
       1       -0.000005823239    -0.000005956315    -0.000006333557
       2       -0.000005715830    -0.000006125141    -0.000006631934
       3        0.000015569333    -0.000010943487     0.000015909302
       4        0.000698024483     0.000870576036    -0.000076304963
       5        0.000007056166    -0.000004056515    -0.000001832683
       6       -0.000005319893     0.000007641473     0.000010338290
       7       -0.000577864791    -0.000580563108     0.000439103138
       8       -0.000445689628    -0.000569550420    -0.000057377168
       9        0.000000559100    -0.000000953589    -0.000005355336
      10        0.000322830367     0.000294340551    -0.000313795469
      11        0.000005828015     0.000000597243     0.000001775185
      12       -0.000008548513     0.000004658803     0.000000584420
      13        0.000003507509    -0.000003737615     0.000004743083
      14        0.000004779822     0.000003273151    -0.000003982154
      15       -0.000007411017    -0.000006852576    -0.000002285251
      16       -0.000002649648    -0.000003022486     0.000000718883
      17       -0.000001822753     0.000008713431     0.000002604508
      18        0.000002690519     0.000001960565    -0.000001878296

  **** Optimization is complete! (in 6 steps) ****
    Final optimized geometry and variables:
    Molecular point group: c1

    Geometry (in Angstrom), charge = 0, multiplicity = 1:

    H           -2.872264634983    -0.537759312065     0.163501074816
    O           -2.026976686805    -0.253331759519    -0.153826962951
    C           -1.645015289817     0.922817027420     0.513745373293
    C           -0.276558026546     1.373052094522     0.026536692695
    H           -2.369594465776     1.713236571827     0.325196972993
    H           -1.614811299250     0.756992457306     1.589959767755
    C            0.888807570050     0.434336541826     0.375250613790
    H           -0.327442064215     1.520691131305    -1.049055428028
    H           -0.090916295435     2.349205011121     0.469161952876
    C            1.079476613787    -0.748667192184    -0.578365085120
    H            0.763012427726     0.066569016156     1.392537978129
    H            1.807045252628     1.018546895437     0.380581036307
    C            2.280425852037    -1.614666941341    -0.198220408486
    H            0.180741662365    -1.352136898869    -0.597527048295
    H            1.217009735231    -0.368051479331    -1.588544795890
    H            2.161079030389    -2.037212974232     0.795941862282
    H            2.405131786893    -2.439738776960    -0.893070451891
    H            3.201781582002    -1.038059239328    -0.201757731375

  Mulliken Charges: (a.u.)
   Center  Symbol    Alpha    Beta     Spin     Total
       1     H     0.28057  0.28057  0.00000  0.43886
       2     O     4.36856  4.36856  0.00000 -0.73711
       3     C     2.99525  2.99525  0.00000  0.00949
       4     C     3.16341  3.16341  0.00000 -0.32681
       5     H     0.43006  0.43006  0.00000  0.13987
       6     H     0.43265  0.43265  0.00000  0.13470
       7     C     3.15244  3.15244  0.00000 -0.30487
       8     H     0.41438  0.41438  0.00000  0.17124
       9     H     0.42179  0.42179  0.00000  0.15642
      10     C     3.15332  3.15332  0.00000 -0.30664
      11     H     0.42535  0.42535  0.00000  0.14930
      12     H     0.42366  0.42366  0.00000  0.15268
      13     C     3.24045  3.24045  0.00000 -0.48091
      14     H     0.40277  0.40277  0.00000  0.19446
      15     H     0.42634  0.42634  0.00000  0.14733
      16     H     0.42378  0.42378  0.00000  0.15245
      17     H     0.42048  0.42048  0.00000  0.15905
      18     H     0.42474  0.42474  0.00000  0.15051

   Total alpha = 25.00000, Total beta = 25.00000, Total charge = -0.00000
