                              Psi4 1.0.54 Driver

  ==> Input File <==

--------------------------------------------------------------------------
set {
	reference rhf
	basis cc-pvtz
}

set_num_threads( 4 )
memory 2 gb

molecule MOL {
0 1

H	 -2.525255	 1.148399	 -1.073590
N	 -1.543399	 1.159747	 -0.897807
C	 -0.832659	 0.335444	 -1.857763
H	 -1.398072	 0.810829	 0.025845
C	 0.652004	 0.352820	 -1.574706
H	 -1.167731	 -0.700942	 -1.871028
H	 -0.993120	 0.741802	 -2.850324
O	 0.881195	 -0.248324	 -0.336237
H	 1.183681	 -0.187388	 -2.356798
H	 1.010327	 1.379685	 -1.565645
C	 2.208068	 -0.234417	 0.074171
H	 2.725499	 -1.027054	 -0.446768
H	 2.688377	 0.712084	 -0.164856
H	 2.295137	 -0.403407	 1.144883

	symmetry c1
}
set optking {
	frozen_dihedral = ("
		5 8 11 13
	")
}

ee,wfn = optimize('scf', return_wfn=True)
oeprop( wfn, 'DIPOLE', 'QUADRUPOLE', 'MULLIKEN_CHARGES')
f=open( 'psi4out.xyz', 'w' )
f.write( "14  " )
f.write( str(ee) + "\n" )
f.write( MOL.save_string_xyz() )
f.close()
--------------------------------------------------------------------------

    Molecular point group: c1
  Charge       = 0
  Multiplicity = 1
  Basis Set: CC-PVTZ
  Basis Set:
  @DF-RHF Final Energy:  -248.22444901341154
    Total Energy =                       -248.2244490134115154
    Molecular point group: c1
  Basis Set: CC-PVTZ
  Basis Set:
  Basis Set: CC-PVTZ
  Basis Set:
  @DF-RHF Final Energy:  -248.22509875531779
    Total Energy =                       -248.2250987553178447
  Basis Set: CC-PVTZ
  Basis Set:
  Basis Set: CC-PVTZ
  Basis Set:
  @DF-RHF Final Energy:  -248.22525784958512
    Total Energy =                       -248.2252578495852049
  Basis Set: CC-PVTZ
  Basis Set:
  Basis Set: CC-PVTZ
  Basis Set:
  @DF-RHF Final Energy:  -248.22525886951436
    Total Energy =                       -248.2252588695142776
  Basis Set: CC-PVTZ
  Basis Set:
  Charge       = 0
  Multiplicity = 1
  Basis Set: CC-PVTZ
  Basis Set:

    Orbital Energies (a.u.)
    -----------------------

    Doubly Occupied:

       1A    -20.549961     2A    -15.523404     3A    -11.264195
       4A    -11.263600     5A    -11.239799     6A     -1.383508
       7A     -1.175897     8A     -1.000611     9A     -0.907789
      10A     -0.815839    11A     -0.684590    12A     -0.675715
      13A     -0.647361    14A     -0.611954    15A     -0.607756
      16A     -0.541996    17A     -0.530949    18A     -0.498440
      19A     -0.474464    20A     -0.418592    21A     -0.383769

  @DF-RHF Final Energy:  -248.22525908968476

   => Energetics <=

    Nuclear Repulsion Energy =            194.6344587542641307
    One-Electron Energy =                -723.3190613419933470
    Two-Electron Energy =                 280.4593434980444044
    DFT Exchange-Correlation Energy =       0.0000000000000000
    Empirical Dispersion Energy =           0.0000000000000000
    PCM Polarization Energy =               0.0000000000000000
    EFP Energy =                            0.0000000000000000
    Total Energy =                       -248.2252590896847551
    Molecular point group: c1
  Basis Set: CC-PVTZ
  Basis Set:

  -Total Gradient:
     Atom            X                  Y                   Z
    ------   -----------------  -----------------  -----------------
       1        0.000000729832    -0.000000572068     0.000001140029
       2       -0.000002547029    -0.000003689602     0.000003026830
       3        0.000004646129     0.000014434185    -0.000004302594
       4       -0.000001081103    -0.000001056588     0.000000331399
       5       -0.000322468692     0.001722472375     0.000837106939
       6        0.000009146298     0.000005966606     0.000005175798
       7       -0.000004446641     0.000001406672    -0.000005441057
       8        0.000672136710    -0.002730194658    -0.001830052044
       9        0.000002338902    -0.000001866936     0.000008029743
      10       -0.000004487957    -0.000005612495     0.000005325887
      11       -0.001063263996     0.001906815793     0.003147428081
      12       -0.000001061633     0.000000617182    -0.000001352232
      13        0.000712307026    -0.000910450200    -0.002162628379
      14       -0.000001947842     0.000001729729    -0.000003788399

  **** Optimization is complete! (in 5 steps) ****
    Final optimized geometry and variables:
    Molecular point group: c1

    Geometry (in Angstrom), charge = 0, multiplicity = 1:

    H           -2.816684542873     0.817058521311    -0.197426751829
    N           -1.836082865365     0.852036660152    -0.017897594043
    C           -1.102824199377     0.036750109721    -0.968485931880
    H           -1.686720468126     0.513664981864     0.908986653556
    C            0.379661347337     0.088134827732    -0.677761458541
    H           -1.415462496918    -1.006643814697    -0.976379248886
    H           -1.266454271910     0.432639784363    -1.964808349255
    O            0.612930844761    -0.494360945034     0.568992623451
    H            0.925395155597    -0.447516328639    -1.453658895614
    H            0.716196448772     1.121825457524    -0.675462271852
    C            1.936378916824    -0.464245214351     0.994069165175
    H            2.516144333167    -1.257424165581     0.526530478770
    H            2.412743224269     0.481676424910     0.751005747677
    H            1.952807932090    -0.607205033015     2.064936635327

  Mulliken Charges: (a.u.)
   Center  Symbol    Alpha    Beta     Spin     Total
       1     H     0.43027  0.43027  0.00000  0.13947
       2     N     3.69420  3.69420  0.00000 -0.38840
       3     C     3.02244  3.02244  0.00000 -0.04489
       4     H     0.42239  0.42239  0.00000  0.15522
       5     C     2.96933  2.96933  0.00000  0.06133
       6     H     0.46453  0.46453  0.00000  0.07095
       7     H     0.45870  0.45870  0.00000  0.08260
       8     O     4.18119  4.18119  0.00000 -0.36239
       9     H     0.47098  0.47098  0.00000  0.05804
      10     H     0.46712  0.46712  0.00000  0.06577
      11     C     3.03067  3.03067  0.00000 -0.06133
      12     H     0.46707  0.46707  0.00000  0.06587
      13     H     0.47244  0.47244  0.00000  0.05512
      14     H     0.44869  0.44869  0.00000  0.10263

   Total alpha = 21.00000, Total beta = 21.00000, Total charge =  0.00000

*** Psi4 exiting successfully. Buy a developer a beer!
