                              Psi4 1.0.54 Driver

  ==> Input File <==

--------------------------------------------------------------------------
set {
	reference rhf
	basis cc-pvtz
}

set_num_threads( 4 )
memory 2 gb

molecule MOL {
0 1

H	 1.869947	 1.718805	 0.134529
O	 0.988976	 1.375894	 0.140727
C	 1.050374	 0.054877	 0.000135
C	 -0.318151	 -0.570512	 0.000144
O	 2.078184	 -0.519370	 -0.108562
C	 -1.454884	 0.441630	 -0.000560
H	 -0.371613	 -1.223646	 -0.864985
H	 -0.371920	 -1.222758	 0.865929
C	 -2.822577	 -0.232186	 0.000063
H	 -1.359760	 1.084704	 -0.867077
H	 -1.359641	 1.085996	 0.864983
H	 -2.954352	 -0.858985	 -0.875745
H	 -3.615886	 0.505352	 0.000019
H	 -2.953878	 -0.858359	 0.876394

	symmetry c1
}
set optking {
	frozen_dihedral = ("
		2 3 4 7
	")
}

ee,wfn = optimize('scf', return_wfn=True)
oeprop( wfn, 'DIPOLE', 'QUADRUPOLE', 'MULLIKEN_CHARGES')
f=open( 'psi4out.xyz', 'w' )
f.write( "14  " )
f.write( str(ee) + "\n" )
f.write( MOL.save_string_xyz() )
f.close()
--------------------------------------------------------------------------

    Molecular point group: c1
  Charge       = 0
  Multiplicity = 1
  Basis Set: CC-PVTZ
  Basis Set:
  @DF-RHF Final Energy:  -305.99698936824626
    Total Energy =                       -305.9969893682463749
    Molecular point group: c1
  Basis Set: CC-PVTZ
  Basis Set:
  Basis Set: CC-PVTZ
  Basis Set:
  @DF-RHF Final Energy:  -305.99794595813535
    Total Energy =                       -305.9979459581353467
  Basis Set: CC-PVTZ
  Basis Set:
  Basis Set: CC-PVTZ
  Basis Set:
  @DF-RHF Final Energy:  -305.99825472819032
    Total Energy =                       -305.9982547281904317
  Basis Set: CC-PVTZ
  Basis Set:
  Basis Set: CC-PVTZ
  Basis Set:
  @DF-RHF Final Energy:  -305.99824351664068
    Total Energy =                       -305.9982435166407413
  Basis Set: CC-PVTZ
  Basis Set:
  Basis Set: CC-PVTZ
  Basis Set:
  @DF-RHF Final Energy:  -305.99825343962300
    Total Energy =                       -305.9982534396228857
  Basis Set: CC-PVTZ
  Basis Set:
  Charge       = 0
  Multiplicity = 1
  Basis Set: CC-PVTZ
  Basis Set:

    Orbital Energies (a.u.)
    -----------------------

    Doubly Occupied:

       1A    -20.607418     2A    -20.536416     3A    -11.374600
       4A    -11.240166     5A    -11.228089     6A    -11.217739
       7A     -1.479393     8A     -1.368151     9A     -1.086267
      10A     -0.979126    11A     -0.848331    12A     -0.821362
      13A     -0.703631    14A     -0.681303    15A     -0.670317
      16A     -0.619134    17A     -0.593022    18A     -0.565096
      19A     -0.550369    20A     -0.527857    21A     -0.497449
      22A     -0.494740    23A     -0.470042    24A     -0.439930

  @DF-RHF Final Energy:  -305.99827661141092

   => Energetics <=

    Nuclear Repulsion Energy =            240.8492022573363727
    One-Electron Energy =                -894.4950645730521046
    Two-Electron Energy =                 347.6475857043047313
    DFT Exchange-Correlation Energy =       0.0000000000000000
    Empirical Dispersion Energy =           0.0000000000000000
    PCM Polarization Energy =               0.0000000000000000
    EFP Energy =                            0.0000000000000000
    Total Energy =                       -305.9982766114109722
    Molecular point group: c1
  Basis Set: CC-PVTZ
  Basis Set:

  -Total Gradient:
     Atom            X                  Y                   Z
    ------   -----------------  -----------------  -----------------
       1       -0.000016105468    -0.000013349819     0.000000261760
       2        0.000007740731     0.000088901671    -0.000267689481
       3        0.000076395418    -0.000199227372     0.000431632299
       4        0.000091064812    -0.000173999334     0.000029752890
       5       -0.000082708334     0.000116214101    -0.000054081910
       6        0.000023521383    -0.000017506694     0.000014043288
       7       -0.000085448770     0.000183393477    -0.000140323666
       8        0.000012096087     0.000006267853    -0.000005488841
       9       -0.000015271501     0.000005460653    -0.000011154942
      10       -0.000004563912    -0.000000050031     0.000003810858
      11       -0.000001768917     0.000000753432    -0.000001803296
      12        0.000002235980     0.000001662020     0.000003792132
      13       -0.000014813071    -0.000005382048    -0.000001075165
      14        0.000007625559     0.000006862093    -0.000001675926

  **** Optimization is complete! (in 6 steps) ****
    Final optimized geometry and variables:
    Molecular point group: c1

    Geometry (in Angstrom), charge = 0, multiplicity = 1:

    H            2.135399487116     1.431011269488    -0.004845578017
    O            1.216826661244     1.210921763404     0.040586737991
    C            1.103772833236    -0.108733567864    -0.044244277252
    C           -0.315595531467    -0.617775183893     0.023882654710
    O            2.048204099704    -0.812311991596    -0.158487904309
    C           -1.426966595954     0.425914503056     0.040402981554
    H           -0.429134455006    -1.290587292701    -0.818092836040
    H           -0.362300286379    -1.241884805480     0.910189870632
    C           -2.807042142125    -0.220365274582     0.097466706903
    H           -1.352710399687     1.049931180697    -0.842633419078
    H           -1.296141175147     1.084241637293     0.890554731059
    H           -2.977625391026    -0.861478301587    -0.760843424616
    H           -3.586100580916     0.532205054380     0.107835766044
    H           -2.920870164608    -0.826689289781     0.989863548444

  Mulliken Charges: (a.u.)
   Center  Symbol    Alpha    Beta     Spin     Total
       1     H     0.38516  0.38516  0.00000  0.22968
       2     O     4.14913  4.14913  0.00000 -0.29825
       3     C     2.81166  2.81166  0.00000  0.37668
       4     C     3.09838  3.09838  0.00000 -0.19676
       5     O     4.19785  4.19785  0.00000 -0.39570
       6     C     3.08362  3.08362  0.00000 -0.16723
       7     H     0.43635  0.43635  0.00000  0.12729
       8     H     0.43826  0.43826  0.00000  0.12348
       9     C     3.15196  3.15196  0.00000 -0.30391
      10     H     0.44712  0.44712  0.00000  0.10577
      11     H     0.44624  0.44624  0.00000  0.10752
      12     H     0.45436  0.45436  0.00000  0.09128
      13     H     0.44538  0.44538  0.00000  0.10924
      14     H     0.45454  0.45454  0.00000  0.09092

   Total alpha = 24.00000, Total beta = 24.00000, Total charge = -0.00000

*** Psi4 exiting successfully. Buy a developer a beer!
