  ==> Input File <==

--------------------------------------------------------------------------
set {
	reference rhf
	basis 6-31G*
}

set_num_threads( 1 )
memory 2 gb

molecule MOL {
0 1

O	 2.865896	 1.351407	 0.117912
C	 2.843464	 0.164689	 -0.000222
C	 1.546494	 -0.624492	 -0.000609
C	 4.119323	 -0.636708	 -0.158656
C	 0.291004	 0.242674	 0.000989
H	 1.557904	 -1.283758	 -0.867573
H	 1.558622	 -1.285963	 0.864672
C	 -0.994322	 -0.586602	 0.000262
H	 0.309117	 0.896430	 -0.865270
H	 0.309661	 0.894078	 0.869017
C	 -2.259874	 0.272531	 0.000494
H	 -1.004862	 -1.240012	 -0.870939
H	 -1.005220	 -1.241071	 0.870675
C	 -3.549786	 -0.549746	 -0.000374
H	 -2.250389	 0.926680	 -0.869574
H	 -2.250838	 0.925513	 0.871430
C	 -4.809590	 0.315458	 -0.000369
H	 -3.560515	 -1.202009	 -0.871156
H	 -3.561123	 -1.202955	 0.869711
H	 -4.844746	 0.956611	 -0.876632
H	 -5.706986	 -0.295590	 -0.001609
H	 -4.845960	 0.954827	 0.877144
H	 4.105610	 -1.190302	 -1.092982
H	 4.971752	 0.028142	 -0.145497
H	 4.213014	 -1.362105	 0.644248

	symmetry c1
}
set optking {
	frozen_dihedral = ("
		9 5 8 12,
		15 11 8 12,
		15 11 14 18,
		9 5 3 6
	")
}

ee = energy('scf')
oeprop('DIPOLE', 'QUADRUPOLE', 'MULLIKEN_CHARGES')
f=open( 'psi4out.xyz', 'w' )
f.write( "25  " )
f.write( str(ee) + "\n" )
f.write( MOL.save_string_xyz() )
f.close()
--------------------------------------------------------------------------

    Molecular point group: c1

    Geometry (in Angstrom), charge = 0, multiplicity = 1:

       Center              X                  Y                   Z               Mass
    ------------   -----------------  -----------------  -----------------  -----------------
           O          2.866041022978     1.351166149314     0.122710725924    15.994914619560
           C          2.843609022978     0.164448149314     0.004576725924    12.000000000000
           C          1.546639022978    -0.624732850686     0.004189725924    12.000000000000
           C          4.119468022978    -0.636948850686    -0.153857274076    12.000000000000
           C          0.291149022978     0.242433149314     0.005787725924    12.000000000000
           H          1.558049022978    -1.283998850686    -0.862774274076     1.007825032070
           H          1.558767022978    -1.286203850686     0.869470725924     1.007825032070
           C         -0.994176977022    -0.586842850686     0.005060725924    12.000000000000
           H          0.309262022978     0.896189149314    -0.860471274076     1.007825032070
           H          0.309806022978     0.893837149314     0.873815725924     1.007825032070
           C         -2.259728977022     0.272290149314     0.005292725924    12.000000000000
           H         -1.004716977022    -1.240252850686    -0.866140274076     1.007825032070
           H         -1.005074977022    -1.241311850686     0.875473725924     1.007825032070
           C         -3.549640977022    -0.549986850686     0.004424725924    12.000000000000
           H         -2.250243977022     0.926439149314    -0.864775274076     1.007825032070
           H         -2.250692977022     0.925272149314     0.876228725924     1.007825032070
           C         -4.809444977022     0.315217149314     0.004429725924    12.000000000000
           H         -3.560369977022    -1.202249850686    -0.866357274076     1.007825032070
           H         -3.560977977022    -1.203195850686     0.874509725924     1.007825032070
           H         -4.844600977022     0.956370149314    -0.871833274076     1.007825032070
           H         -5.706840977022    -0.295830850686     0.003189725924     1.007825032070
           H         -4.845814977022     0.954586149314     0.881942725924     1.007825032070
           H          4.105755022978    -1.190542850686    -1.088183274076     1.007825032070
           H          4.971897022978     0.027901149314    -0.140698274076     1.007825032070
           H          4.213159022978    -1.362345850686     0.649046725924     1.007825032070

  Charge       = 0
  Multiplicity = 1
  Basis Set: 6-31G*
  Basis Set:

    Orbital Energies (a.u.)
    -----------------------

    Doubly Occupied:

       1A    -20.550409     2A    -11.326312     3A    -11.231850
       4A    -11.228338     5A    -11.217202     6A    -11.216609
       7A    -11.215399     8A    -11.213570     9A    -11.208342
      10A     -1.395734    11A     -1.093687    12A     -1.056363
      13A     -1.014515    14A     -0.969272    15A     -0.890752
      16A     -0.814145    17A     -0.790872    18A     -0.729951
      19A     -0.661638    20A     -0.651854    21A     -0.632049
      22A     -0.623844    23A     -0.596011    24A     -0.584330
      25A     -0.566405    26A     -0.559930    27A     -0.540256
      28A     -0.526381    29A     -0.512649    30A     -0.489883
      31A     -0.487849    32A     -0.473221    33A     -0.463816
      34A     -0.462393    35A     -0.450821    36A     -0.399327

  @DF-RHF Final Energy:  -387.13647323774177

   => Energetics <=

    Nuclear Repulsion Energy =            438.3260964739077394
    One-Electron Energy =               -1393.2331212038357080
    Two-Electron Energy =                 567.7705514921866552
    DFT Exchange-Correlation Energy =       0.0000000000000000
    Empirical Dispersion Energy =           0.0000000000000000
    PCM Polarization Energy =               0.0000000000000000
    EFP Energy =                            0.0000000000000000
    Total Energy =                       -387.1364732377413702

  Mulliken Charges: (a.u.)
   Center  Symbol    Alpha    Beta     Spin     Total
       1     O     4.26122  4.26122  0.00000 -0.52244
       2     C     2.73563  2.73563  0.00000  0.52874
       3     C     3.21078  3.21078  0.00000 -0.42156
       4     C     3.28673  3.28673  0.00000 -0.57345
       5     C     3.14822  3.14822  0.00000 -0.29644
       6     H     0.41152  0.41152  0.00000  0.17696
       7     H     0.40845  0.40845  0.00000  0.18310
       8     C     3.15389  3.15389  0.00000 -0.30778
       9     H     0.41368  0.41368  0.00000  0.17265
      10     H     0.41056  0.41056  0.00000  0.17888
      11     C     3.15074  3.15074  0.00000 -0.30149
      12     H     0.42497  0.42497  0.00000  0.15005
      13     H     0.42470  0.42470  0.00000  0.15060
      14     C     3.15150  3.15150  0.00000 -0.30301
      15     H     0.42259  0.42259  0.00000  0.15483
      16     H     0.42228  0.42228  0.00000  0.15545
      17     C     3.23934  3.23934  0.00000 -0.47867
      18     H     0.42358  0.42358  0.00000  0.15285
      19     H     0.42348  0.42348  0.00000  0.15304
      20     H     0.42142  0.42142  0.00000  0.15717
      21     H     0.41952  0.41952  0.00000  0.16096
      22     H     0.42132  0.42132  0.00000  0.15736
      23     H     0.40867  0.40867  0.00000  0.18266
      24     H     0.39649  0.39649  0.00000  0.20701
      25     H     0.40872  0.40872  0.00000  0.18255

   Total alpha = 36.00000, Total beta = 36.00000, Total charge =  0.00000
