  ==> Input File <==

--------------------------------------------------------------------------
set {
	reference rhf
	basis cc-pvtz
}

set_num_threads( 4 )
memory 2 gb

molecule MOL {
0 1

H	 2.249072	 -5.280292	 2.252142
C	 2.167901	 -4.314392	 1.793271
C	 1.001266	 -3.939582	 1.141878
C	 3.217602	 -3.426822	 1.840418
H	 0.171440	 -4.619075	 1.094855
C	 0.892979	 -2.703033	 0.552606
H	 4.128232	 -3.698879	 2.339846
C	 3.125092	 -2.173881	 1.250511
H	 -0.003879	 -2.403705	 0.046920
C	 1.958208	 -1.810117	 0.603875
H	 3.959761	 -1.506163	 1.304735
O	 1.760432	 -0.625184	 0.000000
C	 2.773565	 0.334879	 0.000000
H	 2.728295	 0.960928	 -0.884150
H	 3.706387	 -0.206610	 0.000000
H	 2.728295	 0.960928	 0.884150

	symmetry c1
}
set optking {
	frozen_dihedral = ("
		10 12 13 14
	")
}

ee = optimize('scf')
oeprop('DIPOLE', 'QUADRUPOLE', 'MULLIKEN_CHARGES')
f=open( 'psi4out.xyz', 'w' )
f.write( "16  " )
f.write( str(ee) + "\n" )
f.write( MOL.save_string_xyz() )
f.close()
--------------------------------------------------------------------------

    Molecular point group: c1
  Charge       = 0
  Multiplicity = 1
  Basis Set: CC-PVTZ
  Basis Set:
  @DF-RHF Final Energy:  -344.69800509310397
    Total Energy =                       -344.6980050931034611
    Molecular point group: c1
  Basis Set: CC-PVTZ
  Basis Set:
  Basis Set: CC-PVTZ
  Basis Set:
  @DF-RHF Final Energy:  -344.69971777217432
    Total Energy =                       -344.6997177721746084
  Basis Set: CC-PVTZ
  Basis Set:
  Basis Set: CC-PVTZ
  Basis Set:
  @DF-RHF Final Energy:  -344.70160924279804
    Total Energy =                       -344.7016092427978720
  Basis Set: CC-PVTZ
  Basis Set:
  Basis Set: CC-PVTZ
  Basis Set:
  @DF-RHF Final Energy:  -344.70183532305316
    Total Energy =                       -344.7018353230532171
  Basis Set: CC-PVTZ
  Basis Set:
  Basis Set: CC-PVTZ
  Basis Set:
  @DF-RHF Final Energy:  -344.70189257802053
    Total Energy =                       -344.7018925780204768
  Basis Set: CC-PVTZ
  Basis Set:
  Basis Set: CC-PVTZ
  Basis Set:
  @DF-RHF Final Energy:  -344.70189550834743
    Total Energy =                       -344.7018955083474907
  Basis Set: CC-PVTZ
  Basis Set:
  Charge       = 0
  Multiplicity = 1
  Basis Set: CC-PVTZ
  Basis Set:

    Orbital Energies (a.u.)
    -----------------------

    Doubly Occupied:

       1A    -20.577622     2A    -11.293046     3A    -11.277938
       4A    -11.231339     5A    -11.230016     6A    -11.222081
       7A    -11.218151     8A    -11.217447     9A     -1.416747
      10A     -1.151016    11A     -1.025012    12A     -1.016817
      13A     -0.943321    14A     -0.835055    15A     -0.808498
      16A     -0.724844    17A     -0.667383    18A     -0.666877
      19A     -0.658035    20A     -0.618400    21A     -0.591112
      22A     -0.581561    23A     -0.527669    24A     -0.521678
      25A     -0.511787    26A     -0.481567    27A     -0.462606
      28A     -0.339622    29A     -0.311027

  @DF-RHF Final Energy:  -344.70189696808723

   => Energetics <=

    Nuclear Repulsion Energy =            348.6825196008832108
    One-Electron Energy =               -1158.5122780876422439
    Two-Electron Energy =                 465.1278615186715797
    DFT Exchange-Correlation Energy =       0.0000000000000000
    Empirical Dispersion Energy =           0.0000000000000000
    PCM Polarization Energy =               0.0000000000000000
    EFP Energy =                            0.0000000000000000
    Total Energy =                       -344.7018969680874534
    Molecular point group: c1
  Basis Set: CC-PVTZ
  Basis Set:

  -Total Gradient:
     Atom            X                  Y                   Z
    ------   -----------------  -----------------  -----------------
       1       -0.000016331223    -0.000003858481     0.000001833317
       2        0.000178246282     0.000047766783     0.000062114576
       3       -0.000106782419     0.000120084566    -0.000111080800
       4       -0.000073948029    -0.000160111592     0.000021984286
       5        0.000008266856    -0.000008451389     0.000007516055
       6       -0.000063711546    -0.000166223899     0.000053444847
       7        0.000003191693     0.000014900593    -0.000001030370
       8       -0.000110207537     0.000099440720    -0.000079886432
       9        0.000002592889     0.000012869173    -0.000006913895
      10        0.000280209062    -0.000976002276    -0.002501192476
      11        0.000012588766     0.000004702812     0.000002174957
      12        0.000046442813     0.001030480724     0.003342638488
      13       -0.001228911430     0.002023585864     0.001181299901
      14        0.001068794155    -0.002071039604    -0.001982735550
      15       -0.000004412385     0.000009519507     0.000011260360
      16        0.000003972050     0.000022336500    -0.000001427265

  **** Optimization is complete! (in 7 steps) ****
    Final optimized geometry and variables:
    Molecular point group: c1

    Geometry (in Angstrom), charge = 0, multiplicity = 1:

    H            0.157317204087    -3.106873972365     1.225752110563
    C            0.061837459261    -2.113095248723     0.833934048671
    C           -1.089242660262    -1.729180879781     0.162901984082
    C            1.078004816200    -1.197844260909     0.992324243245
    H           -1.892115403808    -2.429691783880     0.031727952631
    C           -1.215001759247    -0.456786574440    -0.344331081521
    H            1.973340061847    -1.475106479941     1.515925359722
    C            0.964277795007     0.089964099423     0.491202068009
    H           -2.099839880606    -0.150317159497    -0.866620357058
    C           -0.183699798181     0.460395481392    -0.185549981783
    H            1.762168098669     0.788171777118     0.643394124172
    O           -0.397585283624     1.690686105863    -0.687575762677
    C            0.681145592146     2.533070962662    -0.978037771108
    H            0.375514125989     3.162525608532    -1.800243019693
    H            1.550459580699     1.969682150321    -1.292860530230
    H            0.942967676075     3.146044728546    -0.123467598303

  Mulliken Charges: (a.u.)
   Center  Symbol    Alpha    Beta     Spin     Total
       1     H     0.42436  0.42436  0.00000  0.15128
       2     C     3.09965  3.09965  0.00000 -0.19930
       3     C     3.05886  3.05886  0.00000 -0.11771
       4     C     3.06293  3.06293  0.00000 -0.12585
       5     H     0.42292  0.42292  0.00000  0.15417
       6     C     3.11024  3.11024  0.00000 -0.22048
       7     H     0.42317  0.42317  0.00000  0.15365
       8     C     3.13729  3.13729  0.00000 -0.27458
       9     H     0.42017  0.42017  0.00000  0.15966
      10     C     2.85441  2.85441  0.00000  0.29119
      11     H     0.42311  0.42311  0.00000  0.15378
      12     O     4.15617  4.15617  0.00000 -0.31233
      13     C     3.04210  3.04210  0.00000 -0.08420
      14     H     0.44223  0.44223  0.00000  0.11555
      15     H     0.46439  0.46439  0.00000  0.07121
      16     H     0.45801  0.45801  0.00000  0.08397

   Total alpha = 29.00000, Total beta = 29.00000, Total charge = -0.00000
