  ==> Input File <==

--------------------------------------------------------------------------
set {
	reference rhf
	basis 6-31G*
}

set_num_threads( 1 )
memory 2 gb

molecule MOL {
0 1

H	 3.776762	 -0.712319	 0.374726
O	 2.875791	 -0.932746	 0.590178
C	 2.077727	 -0.067559	 -0.035091
C	 0.624473	 -0.343591	 0.253101
O	 2.504473	 0.799723	 -0.725544
C	 -0.265902	 0.883932	 0.072916
H	 0.324016	 -1.163849	 -0.390541
H	 0.565024	 -0.726111	 1.268924
C	 -1.728698	 0.646073	 0.462102
H	 -0.209144	 1.219470	 -0.958188
H	 0.135059	 1.692851	 0.673903
C	 -2.482460	 -0.343073	 -0.431425
H	 -2.245265	 1.602650	 0.432430
H	 -1.779332	 0.308348	 1.496285
C	 -3.960546	 -0.461025	 -0.060175
H	 -2.395034	 -0.026811	 -1.468912
H	 -2.024850	 -1.327147	 -0.371646
H	 -4.472726	 -1.168004	 -0.705284
H	 -4.465146	 0.496508	 -0.151489
H	 -4.081218	 -0.800940	 0.964585

	symmetry c1
}
set optking {
	frozen_dihedral = ("
		16 12 9 6,
		7 4 6 10,
		12 9 6 10,
		1 2 3 5
	")
}

ee = energy('scf')
oeprop('DIPOLE', 'QUADRUPOLE', 'MULLIKEN_CHARGES')
f=open( 'psi4out.xyz', 'w' )
f.write( "20  " )
f.write( str(ee) + "\n" )
f.write( MOL.save_string_xyz() )
f.close()
--------------------------------------------------------------------------

    Molecular point group: c1

    Geometry (in Angstrom), charge = 0, multiplicity = 1:

       Center              X                  Y                   Z               Mass
    ------------   -----------------  -----------------  -----------------  -----------------
           H          3.774796913999    -0.721272033827     0.356240412596     1.007825032070
           O          2.873825913999    -0.941699033827     0.571692412596    15.994914619560
           C          2.075761913999    -0.076512033827    -0.053576587404    12.000000000000
           C          0.622507913999    -0.352544033827     0.234615412596    12.000000000000
           O          2.502507913999     0.790769966173    -0.744029587404    15.994914619560
           C         -0.267867086001     0.874978966173     0.054430412596    12.000000000000
           H          0.322050913999    -1.172802033827    -0.409026587404     1.007825032070
           H          0.563058913999    -0.735064033827     1.250438412596     1.007825032070
           C         -1.730663086001     0.637119966173     0.443616412596    12.000000000000
           H         -0.211109086001     1.210516966173    -0.976673587404     1.007825032070
           H          0.133093913999     1.683897966173     0.655417412596     1.007825032070
           C         -2.484425086001    -0.352026033827    -0.449910587404    12.000000000000
           H         -2.247230086001     1.593696966173     0.413944412596     1.007825032070
           H         -1.781297086001     0.299394966173     1.477799412596     1.007825032070
           C         -3.962511086001    -0.469978033827    -0.078660587404    12.000000000000
           H         -2.396999086001    -0.035764033827    -1.487397587404     1.007825032070
           H         -2.026815086001    -1.336100033827    -0.390131587404     1.007825032070
           H         -4.474691086001    -1.176957033827    -0.723769587404     1.007825032070
           H         -4.467111086001     0.487554966173    -0.169974587404     1.007825032070
           H         -4.083183086001    -0.809893033827     0.946099412596     1.007825032070

  Charge       = 0
  Multiplicity = 1
  Basis Set: 6-31G*
  Basis Set:

    Orbital Energies (a.u.)
    -----------------------

    Doubly Occupied:

       1A    -20.612940     2A    -20.550866     3A    -11.381044
       4A    -11.239739     5A    -11.224576     6A    -11.221249
       7A    -11.220584     8A    -11.212660     9A     -1.474513
      10A     -1.365349    11A     -1.096759    12A     -1.041181
      13A     -0.961426    14A     -0.868902    15A     -0.817201
      16A     -0.777816    17A     -0.699992    18A     -0.689353
      19A     -0.662710    20A     -0.634061    21A     -0.605042
      22A     -0.594251    23A     -0.576060    24A     -0.556707
      25A     -0.539126    26A     -0.514379    27A     -0.495007
      28A     -0.480912    29A     -0.469922    30A     -0.467301
      31A     -0.459472    32A     -0.441634

  @DF-RHF Final Energy:  -383.94810698955240

   => Energetics <=

    Nuclear Repulsion Energy =            375.8279353834404333
    One-Electron Energy =               -1267.6466343183956269
    Two-Electron Energy =                 507.8705919454035893
    DFT Exchange-Correlation Energy =       0.0000000000000000
    Empirical Dispersion Energy =           0.0000000000000000
    PCM Polarization Energy =               0.0000000000000000
    EFP Energy =                            0.0000000000000000
    Total Energy =                       -383.9481069895515475

  Mulliken Charges: (a.u.)
   Center  Symbol    Alpha    Beta     Spin     Total
       1     H     0.26817  0.26817  0.00000  0.46366
       2     O     4.35104  4.35104  0.00000 -0.70208
       3     C     2.62194  2.62194  0.00000  0.75612
       4     C     3.21323  3.21323  0.00000 -0.42646
       5     O     4.27935  4.27935  0.00000 -0.55870
       6     C     3.15616  3.15616  0.00000 -0.31233
       7     H     0.39578  0.39578  0.00000  0.20844
       8     H     0.39989  0.39989  0.00000  0.20022
       9     C     3.15510  3.15510  0.00000 -0.31020
      10     H     0.40779  0.40779  0.00000  0.18442
      11     H     0.41232  0.41232  0.00000  0.17535
      12     C     3.15495  3.15495  0.00000 -0.30989
      13     H     0.41786  0.41786  0.00000  0.16429
      14     H     0.42335  0.42335  0.00000  0.15330
      15     C     3.23929  3.23929  0.00000 -0.47859
      16     H     0.42081  0.42081  0.00000  0.15837
      17     H     0.42291  0.42291  0.00000  0.15417
      18     H     0.41819  0.41819  0.00000  0.16361
      19     H     0.42060  0.42060  0.00000  0.15881
      20     H     0.42126  0.42126  0.00000  0.15747

   Total alpha = 32.00000, Total beta = 32.00000, Total charge =  0.00000
