  ==> Input File <==

--------------------------------------------------------------------------
set {
	reference rhf
	basis cc-pvtz
}

set_num_threads( 4 )
memory 2 gb

molecule MOL {
0 1

H	 -1.038570	 -0.875454	 -0.443331
N	 -0.712187	 0.000026	 -0.093397
C	 0.734067	 -0.000020	 0.038424
H	 -1.151027	 0.145201	 0.790790
H	 1.140372	 -0.872115	 -0.458226
H	 1.140363	 0.872301	 -0.457869
H	 1.095085	 -0.000244	 1.065614

	symmetry c1
}
set optking {
	frozen_dihedral = ("
		1 2 3 7
	")
}

ee = optimize('scf')
oeprop('DIPOLE', 'QUADRUPOLE', 'MULLIKEN_CHARGES')
f=open( 'psi4out.xyz', 'w' )
f.write( "7  " )
f.write( str(ee) + "\n" )
f.write( MOL.save_string_xyz() )
f.close()
--------------------------------------------------------------------------

    Molecular point group: c1
  Charge       = 0
  Multiplicity = 1
  Basis Set: CC-PVTZ
  Basis Set:
  @DF-RHF Final Energy:   -95.25020375864642
    Total Energy =                        -95.2502037586464496
    Molecular point group: c1
  Basis Set: CC-PVTZ
  Basis Set:
  Basis Set: CC-PVTZ
  Basis Set:
  @DF-RHF Final Energy:   -95.25057772050005
    Total Energy =                        -95.2505777205000470
  Basis Set: CC-PVTZ
  Basis Set:
  Basis Set: CC-PVTZ
  Basis Set:
  @DF-RHF Final Energy:   -95.25066446874231
    Total Energy =                        -95.2506644687423432
  Basis Set: CC-PVTZ
  Basis Set:
  Basis Set: CC-PVTZ
  Basis Set:
  @DF-RHF Final Energy:   -95.25066631471164
    Total Energy =                        -95.2506663147116512
  Basis Set: CC-PVTZ
  Basis Set:
  Charge       = 0
  Multiplicity = 1
  Basis Set: CC-PVTZ
  Basis Set:

    Orbital Energies (a.u.)
    -----------------------

    Doubly Occupied:

       1A    -15.525639     2A    -11.235500     3A     -1.168723
       4A     -0.897878     5A     -0.667119     6A     -0.599534
       7A     -0.560897     8A     -0.518858     9A     -0.381666

  @DF-RHF Final Energy:   -95.25066664187368

   => Energetics <=

    Nuclear Repulsion Energy =             42.3190527525902809
    One-Electron Energy =                -212.0278128749205280
    Two-Electron Energy =                  74.4580934804565686
    DFT Exchange-Correlation Energy =       0.0000000000000000
    Empirical Dispersion Energy =           0.0000000000000000
    PCM Polarization Energy =               0.0000000000000000
    EFP Energy =                            0.0000000000000000
    Total Energy =                        -95.2506666418736927
    Molecular point group: c1
  Basis Set: CC-PVTZ
  Basis Set:

  -Total Gradient:
     Atom            X                  Y                   Z
    ------   -----------------  -----------------  -----------------
       1        0.000105336346     0.000545746719    -0.001444777007
       2       -0.000184531474    -0.000295017838     0.001813960366
       3        0.000099259467    -0.001653162764    -0.000377230740
       4        0.000000428884     0.000000568138    -0.000003791171
       5       -0.000014886266     0.000000337315     0.000000294613
       6        0.000004141311    -0.000014269711     0.000000176076
       7       -0.000009748267     0.001415798140     0.000011367863

  **** Optimization is complete! (in 5 steps) ****
    Final optimized geometry and variables:
    Molecular point group: c1

    Geometry (in Angstrom), charge = 0, multiplicity = 1:

    H           -1.057209382244    -0.850631668329    -0.420463449609
    N           -0.716163354488     0.016452404312    -0.071829547749
    C            0.736787403728     0.027364645124     0.037147945704
    H           -1.160782379228     0.197306605940     0.799719298613
    H            1.168699729598    -0.835382637033    -0.454823904796
    H            1.148938904888     0.911512938281    -0.436042830668
    H            1.078176231099     0.022773151394     1.067321557051

  Mulliken Charges: (a.u.)
   Center  Symbol    Alpha    Beta     Spin     Total
       1     H     0.42629  0.42629  0.00000  0.14742
       2     N     3.69020  3.69020  0.00000 -0.38040
       3     C     3.06856  3.06856  0.00000 -0.13713
       4     H     0.42674  0.42674  0.00000  0.14651
       5     H     0.46116  0.46116  0.00000  0.07767
       6     H     0.46138  0.46138  0.00000  0.07724
       7     H     0.46566  0.46566  0.00000  0.06867

   Total alpha =  9.00000, Total beta =  9.00000, Total charge = -0.00000
