  ==> Input File <==

--------------------------------------------------------------------------
set {
	reference rhf
	basis 6-31G*
}

set_num_threads( 1 )
memory 2 gb

molecule MOL {
0 1

H	 3.089270	 -1.380733	 0.000000
O	 2.178328	 -1.639175	 0.000000
C	 1.368216	 -0.558384	 0.000000
C	 0.758919	 -0.085063	 -1.155001
C	 1.153919	 0.082583	 1.207754
H	 0.927012	 -0.585343	 -2.093884
C	 -0.063478	 1.027810	 -1.101623
H	 1.623940	 -0.281984	 2.100641
C	 0.329166	 1.196063	 1.252501
H	 -0.529492	 1.384817	 -2.002043
C	 -0.283239	 1.674585	 0.101090
C	 0.094642	 1.889444	 2.546754
H	 -0.921655	 2.539175	 0.144847
O	 0.571326	 1.558720	 3.584993
H	 -0.568634	 2.757878	 2.490765

	symmetry c1
}
set optking {
	frozen_dihedral = ("
		11 9 12 14
	")
}

ee = energy('scf')
oeprop('DIPOLE', 'QUADRUPOLE', 'MULLIKEN_CHARGES')
f=open( 'psi4out.xyz', 'w' )
f.write( "15  " )
f.write( str(ee) + "\n" )
f.write( MOL.save_string_xyz() )
f.close()
--------------------------------------------------------------------------

    Molecular point group: c1

    Geometry (in Angstrom), charge = 0, multiplicity = 1:

       Center              X                  Y                   Z               Mass
    ------------   -----------------  -----------------  -----------------  -----------------
           H          2.368774158993    -1.920784041635    -0.755548400635     1.007825032070
           O          1.457832158993    -2.179226041635    -0.755548400635    15.994914619560
           C          0.647720158993    -1.098435041635    -0.755548400635    12.000000000000
           C          0.038423158993    -0.625114041635    -1.910549400635    12.000000000000
           C          0.433423158993    -0.457468041635     0.452205599365    12.000000000000
           H          0.206516158993    -1.125394041635    -2.849432400635     1.007825032070
           C         -0.783973841007     0.487758958365    -1.857171400635    12.000000000000
           H          0.903444158993    -0.822035041635     1.345092599365     1.007825032070
           C         -0.391329841007     0.656011958365     0.496952599365    12.000000000000
           H         -1.249987841007     0.844765958365    -2.757591400635     1.007825032070
           C         -1.003734841007     1.134533958365    -0.654458400635    12.000000000000
           C         -0.625853841007     1.349392958365     1.791205599365    12.000000000000
           H         -1.642150841007     1.999123958365    -0.610701400635     1.007825032070
           O         -0.149169841007     1.018668958365     2.829444599365    15.994914619560
           H         -1.289129841007     2.217826958365     1.735216599365     1.007825032070

  Charge       = 0
  Multiplicity = 1
  Basis Set: 6-31G*
  Basis Set:

    Orbital Energies (a.u.)
    -----------------------

    Doubly Occupied:

       1A    -20.587484     2A    -20.564889     3A    -11.333350
       4A    -11.303392     5A    -11.252404     6A    -11.250533
       7A    -11.250154     8A    -11.248841     9A    -11.242520
      10A     -1.411362    11A     -1.405898    12A     -1.169422
      13A     -1.048310    14A     -1.025140    15A     -0.896718
      16A     -0.848012    17A     -0.800418    18A     -0.745629
      19A     -0.699051    20A     -0.678688    21A     -0.653288
      22A     -0.633897    23A     -0.619359    24A     -0.607102
      25A     -0.555877    26A     -0.546044    27A     -0.531218
      28A     -0.497146    29A     -0.485686    30A     -0.422839
      31A     -0.351882    32A     -0.340017

  @DF-RHF Final Energy:  -418.28185725418751

   => Energetics <=

    Nuclear Repulsion Energy =            403.2508647412708456
    One-Electron Energy =               -1369.0522528680130563
    Two-Electron Energy =                 547.5195308725558334
    DFT Exchange-Correlation Energy =       0.0000000000000000
    Empirical Dispersion Energy =           0.0000000000000000
    PCM Polarization Energy =               0.0000000000000000
    EFP Energy =                            0.0000000000000000
    Total Energy =                       -418.2818572541864341

  Mulliken Charges: (a.u.)
   Center  Symbol    Alpha    Beta     Spin     Total
       1     H     0.26808  0.26808  0.00000  0.46385
       2     O     4.38496  4.38496  0.00000 -0.76991
       3     C     2.81638  2.81638  0.00000  0.36725
       4     C     3.10982  3.10982  0.00000 -0.21964
       5     C     3.11203  3.11203  0.00000 -0.22406
       6     H     0.38843  0.38843  0.00000  0.22314
       7     C     3.10157  3.10157  0.00000 -0.20314
       8     H     0.37380  0.37380  0.00000  0.25239
       9     C     3.05152  3.05152  0.00000 -0.10304
      10     H     0.39295  0.39295  0.00000  0.21410
      11     C     3.10753  3.10753  0.00000 -0.21507
      12     C     2.83205  2.83205  0.00000  0.33589
      13     H     0.39178  0.39178  0.00000  0.21644
      14     O     4.24687  4.24687  0.00000 -0.49373
      15     H     0.42224  0.42224  0.00000  0.15553

   Total alpha = 32.00000, Total beta = 32.00000, Total charge = -0.00000
