                              Psi4 1.0.54 Driver

  ==> Input File <==

--------------------------------------------------------------------------
set {
	reference rhf
	basis cc-pvtz
}

set_num_threads( 4 )
memory 2 gb

molecule MOL {
0 1

H	 -2.698799	 -0.000846	 0.036018
C	 -1.694291	 -0.000483	 0.434279
O	 -0.828718	 -0.000608	 -0.655022
H	 -1.576855	 0.881100	 1.056504
H	 -1.576401	 -0.881658	 1.057001
C	 -1.026589	 0.942613	 -1.679258
C	 -2.352619	 0.748431	 -2.406038
C	 -0.833841	 2.376912	 -1.199796
H	 -0.230940	 0.718774	 -2.378869
H	 -2.473887	 -0.287252	 -2.698804
H	 -2.374196	 1.359731	 -3.300796
H	 -3.200741	 1.034515	 -1.794950
H	 0.098185	 2.470600	 -0.656111
H	 -0.800315	 3.047451	 -2.050694
H	 -1.641598	 2.706155	 -0.556625

	symmetry c1
}
set optking {
	frozen_dihedral = ("
		6 3 2 1
	")
}

ee,wfn = optimize('scf', return_wfn=True)
oeprop( wfn, 'DIPOLE', 'QUADRUPOLE', 'MULLIKEN_CHARGES')
f=open( 'psi4out.xyz', 'w' )
f.write( "15  " )
f.write( str(ee) + "\n" )
f.write( MOL.save_string_xyz() )
f.close()
--------------------------------------------------------------------------

    Molecular point group: c1
  Charge       = 0
  Multiplicity = 1
  Basis Set: CC-PVTZ
  Basis Set:
  @DF-RHF Final Energy:  -232.22358864788950
    Total Energy =                       -232.2235886478895281
    Molecular point group: c1
  Basis Set: CC-PVTZ
  Basis Set:
  Basis Set: CC-PVTZ
  Basis Set:
  @DF-RHF Final Energy:  -232.22543508392411
    Total Energy =                       -232.2254350839243671
  Basis Set: CC-PVTZ
  Basis Set:
  Basis Set: CC-PVTZ
  Basis Set:
  @DF-RHF Final Energy:  -232.22603883785644
    Total Energy =                       -232.2260388378566631
  Basis Set: CC-PVTZ
  Basis Set:
  Basis Set: CC-PVTZ
  Basis Set:
  @DF-RHF Final Energy:  -232.22604947523340
    Total Energy =                       -232.2260494752333102
  Basis Set: CC-PVTZ
  Basis Set:
  Basis Set: CC-PVTZ
  Basis Set:
  @DF-RHF Final Energy:  -232.22605623884584
    Total Energy =                       -232.2260562388458425
  Basis Set: CC-PVTZ
  Basis Set:
  Charge       = 0
  Multiplicity = 1
  Basis Set: CC-PVTZ
  Basis Set:

    Orbital Energies (a.u.)
    -----------------------

    Doubly Occupied:

       1A    -20.541645     2A    -11.272687     3A    -11.258673
       4A    -11.209347     5A    -11.208046     6A     -1.373431
       7A     -1.051522     8A     -0.940567     9A     -0.931335
      10A     -0.781532    11A     -0.676027    12A     -0.642254
      13A     -0.634887    14A     -0.573722    15A     -0.564932
      16A     -0.553034    17A     -0.534218    18A     -0.498886
      19A     -0.497427    20A     -0.444884    21A     -0.409006

  @DF-RHF Final Energy:  -232.22605647962300

   => Energetics <=

    Nuclear Repulsion Energy =            199.0549546787956672
    One-Electron Energy =                -709.3658978866458256
    Two-Electron Energy =                 278.0848867282271613
    DFT Exchange-Correlation Energy =       0.0000000000000000
    Empirical Dispersion Energy =           0.0000000000000000
    PCM Polarization Energy =               0.0000000000000000
    EFP Energy =                            0.0000000000000000
    Total Energy =                       -232.2260564796230256
    Molecular point group: c1
  Basis Set: CC-PVTZ
  Basis Set:

  -Total Gradient:
     Atom            X                  Y                   Z
    ------   -----------------  -----------------  -----------------
       1        0.000077777474     0.000703419546    -0.000027521321
       2       -0.000163418529    -0.001143781546    -0.000000178718
       3        0.000524189494     0.000831393180     0.000330846012
       4       -0.000005096576     0.000009063156    -0.000031020493
       5       -0.000038434720     0.000003138687     0.000030224868
       6       -0.000377530328    -0.000376510682    -0.000330076513
       7        0.000011410517     0.000031871123    -0.000018578302
       8       -0.000014642506    -0.000021453403     0.000046138326
       9        0.000000879349    -0.000010509954    -0.000002687158
      10       -0.000009414829    -0.000005737053     0.000011624911
      11       -0.000008330726    -0.000006757920    -0.000007925502
      12        0.000017741640     0.000010097811    -0.000027848616
      13       -0.000009113986    -0.000006978644     0.000007912544
      14       -0.000000697568    -0.000026829832     0.000010498739
      15       -0.000005318704     0.000009575530     0.000008591223

  **** Optimization is complete! (in 6 steps) ****
    Final optimized geometry and variables:
    Molecular point group: c1

    Geometry (in Angstrom), charge = 0, multiplicity = 1:

    H           -1.367018367383    -0.734079339877     1.262227569668
    C           -0.315135256029    -0.809026949764     1.518101129876
    O            0.508384728363    -0.836100017237     0.396556059611
    H           -0.067026003212     0.010572899775     2.185740635387
    H           -0.159583217432    -1.737575477185     2.048495169821
    C            0.334648769167     0.145214265463    -0.595679334624
    C           -0.966970760840    -0.037562312966    -1.368655303430
    C            0.495995059675     1.562246966511    -0.057875248995
    H            1.152465413165    -0.044573848438    -1.279669239191
    H           -1.061603779569    -1.062378032326    -1.705519095147
    H           -0.973155833375     0.609390074848    -2.238491807001
    H           -1.837679453802     0.209708153316    -0.772805891461
    H            1.415779575624     1.650546113218     0.507472153141
    H            0.534405411609     2.266018326714    -0.881099318180
    H           -0.329535380436     1.851630089958     0.582353992901

  Mulliken Charges: (a.u.)
   Center  Symbol    Alpha    Beta     Spin     Total
       1     H     0.47100  0.47100  0.00000  0.05800
       2     C     3.03953  3.03953  0.00000 -0.07905
       3     O     4.18344  4.18344  0.00000 -0.36689
       4     H     0.46808  0.46808  0.00000  0.06385
       5     H     0.44152  0.44152  0.00000  0.11695
       6     C     2.93447  2.93447  0.00000  0.13105
       7     C     3.15483  3.15483  0.00000 -0.30966
       8     C     3.16097  3.16097  0.00000 -0.32194
       9     H     0.44698  0.44698  0.00000  0.10603
      10     H     0.44439  0.44439  0.00000  0.11121
      11     H     0.45097  0.45097  0.00000  0.09806
      12     H     0.45630  0.45630  0.00000  0.08739
      13     H     0.44381  0.44381  0.00000  0.11237
      14     H     0.44846  0.44846  0.00000  0.10308
      15     H     0.45522  0.45522  0.00000  0.08955

   Total alpha = 21.00000, Total beta = 21.00000, Total charge = -0.00000

*** Psi4 exiting successfully. Buy a developer a beer!
