  ==> Input File <==

--------------------------------------------------------------------------
set {
	reference rhf
	basis cc-pvtz
}

set_num_threads( 4 )
memory 2 gb

molecule MOL {
0 1

H	 1.123783	 -1.344829	 -0.670539
O	 1.675515	 -0.612943	 -0.465627
C	 1.135873	 0.113391	 0.608264
C	 0.027642	 1.012027	 0.090274
H	 1.902972	 0.727968	 1.072615
H	 0.756163	 -0.561896	 1.370018
C	 -1.138737	 0.285728	 -0.581921
H	 0.464661	 1.708096	 -0.618252
H	 -0.340737	 1.603071	 0.925246
C	 -1.933983	 -0.631436	 0.343653
H	 -0.763151	 -0.285569	 -1.422081
H	 -1.808359	 1.035291	 -0.992333
H	 -2.789188	 -1.049673	 -0.174718
H	 -1.335629	 -1.461368	 0.700418
H	 -2.305435	 -0.092167	 1.209725

	symmetry c1
}
set optking {
	frozen_dihedral = ("
		1 2 3 4
	")
}

ee = optimize('scf')
oeprop('DIPOLE', 'QUADRUPOLE', 'MULLIKEN_CHARGES')
f=open( 'psi4out.xyz', 'w' )
f.write( "15  " )
f.write( str(ee) + "\n" )
f.write( MOL.save_string_xyz() )
f.close()
--------------------------------------------------------------------------

    Molecular point group: c1
  Charge       = 0
  Multiplicity = 1
  Basis Set: CC-PVTZ
  Basis Set:
  @DF-RHF Final Energy:  -232.23491999907640
    Total Energy =                       -232.2349199990765669
    Molecular point group: c1
  Basis Set: CC-PVTZ
  Basis Set:
  Basis Set: CC-PVTZ
  Basis Set:
  @DF-RHF Final Energy:  -232.23625803379389
    Total Energy =                       -232.2362580337936606
  Basis Set: CC-PVTZ
  Basis Set:
  Basis Set: CC-PVTZ
  Basis Set:
  @DF-RHF Final Energy:  -232.23660551523494
    Total Energy =                       -232.2366055152348281
  Basis Set: CC-PVTZ
  Basis Set:
  Basis Set: CC-PVTZ
  Basis Set:
  @DF-RHF Final Energy:  -232.23660653094385
    Total Energy =                       -232.2366065309437317
  Basis Set: CC-PVTZ
  Basis Set:
  Basis Set: CC-PVTZ
  Basis Set:
  @DF-RHF Final Energy:  -232.23660952594989
    Total Energy =                       -232.2366095259499161
  Basis Set: CC-PVTZ
  Basis Set:
  Charge       = 0
  Multiplicity = 1
  Basis Set: CC-PVTZ
  Basis Set:

    Orbital Energies (a.u.)
    -----------------------

    Doubly Occupied:

       1A    -20.546014     2A    -11.265046     3A    -11.218833
       4A    -11.213535     5A    -11.213269     6A     -1.363601
       7A     -1.071105     8A     -0.976549     9A     -0.879396
      10A     -0.785864    11A     -0.699973    12A     -0.645297
      13A     -0.615908    14A     -0.586635    15A     -0.571510
      16A     -0.545860    17A     -0.504032    18A     -0.494011
      19A     -0.476539    20A     -0.459108    21A     -0.429320

  @DF-RHF Final Energy:  -232.23661068723865

   => Energetics <=

    Nuclear Repulsion Energy =            191.5435326412922166
    One-Electron Energy =                -694.4374739653015922
    Two-Electron Energy =                 270.6573306367704959
    DFT Exchange-Correlation Energy =       0.0000000000000000
    Empirical Dispersion Energy =           0.0000000000000000
    PCM Polarization Energy =               0.0000000000000000
    EFP Energy =                            0.0000000000000000
    Total Energy =                       -232.2366106872388514
    Molecular point group: c1
  Basis Set: CC-PVTZ
  Basis Set:

  -Total Gradient:
     Atom            X                  Y                   Z
    ------   -----------------  -----------------  -----------------
       1        0.000233843012    -0.000262115591     0.000326897354
       2       -0.000208113685     0.000413754532    -0.000441594399
       3       -0.000224280763    -0.000383935866     0.000139602782
       4        0.000199238625     0.000209255847    -0.000043598081
       5       -0.000005173701     0.000012322898     0.000007945383
       6       -0.000005994262     0.000002647075     0.000002079137
       7        0.000011680023     0.000000850828     0.000003071330
       8       -0.000001308230    -0.000001362943     0.000001749702
       9       -0.000002875154     0.000004392592    -0.000000744602
      10       -0.000007496466     0.000002773478     0.000004135670
      11        0.000006829085     0.000001925653    -0.000002328492
      12        0.000003254319    -0.000002810400     0.000003896289
      13       -0.000003862515     0.000000573882     0.000002607332
      14        0.000002983385     0.000003895169    -0.000005233353
      15        0.000001276329    -0.000002167154     0.000001513949

  **** Optimization is complete! (in 6 steps) ****
    Final optimized geometry and variables:
    Molecular point group: c1

    Geometry (in Angstrom), charge = 0, multiplicity = 1:

    H            1.259102360199    -1.359643786404    -0.676000381589
    O            1.773162046730    -0.611911827339    -0.435180963283
    C            1.141854010627     0.104662035020     0.594168110985
    C            0.024207759895     1.009017599741     0.092453328687
    H            1.910973826979     0.713999740694     1.049849933891
    H            0.779172963918    -0.572750096718     1.361668596399
    C           -1.152159333252     0.294391143286    -0.575455880599
    H            0.455039425933     1.711252049528    -0.613540353174
    H           -0.339965881009     1.592626336178     0.935087501458
    C           -1.953819530762    -0.617869184258     0.350553700418
    H           -0.793260745650    -0.274092173403    -1.428250787566
    H           -1.817888409699     1.047320208390    -0.984278813953
    H           -2.806095221023    -1.039976744426    -0.169095899047
    H           -1.361488220679    -1.445594280181     0.724472509407
    H           -2.328698039788    -0.070451503143     1.209113261783

  Mulliken Charges: (a.u.)
   Center  Symbol    Alpha    Beta     Spin     Total
       1     H     0.39229  0.39229  0.00000  0.21541
       2     O     4.20635  4.20635  0.00000 -0.41270
       3     C     2.98482  2.98482  0.00000  0.03035
       4     C     3.09005  3.09005  0.00000 -0.18010
       5     H     0.44685  0.44685  0.00000  0.10629
       6     H     0.46685  0.46685  0.00000  0.06629
       7     C     3.10485  3.10485  0.00000 -0.20971
       8     H     0.44768  0.44768  0.00000  0.10464
       9     H     0.45619  0.45619  0.00000  0.08763
      10     C     3.15147  3.15147  0.00000 -0.30294
      11     H     0.45165  0.45165  0.00000  0.09670
      12     H     0.44521  0.44521  0.00000  0.10959
      13     H     0.44507  0.44507  0.00000  0.10986
      14     H     0.45757  0.45757  0.00000  0.08486
      15     H     0.45308  0.45308  0.00000  0.09384

   Total alpha = 21.00000, Total beta = 21.00000, Total charge = -0.00000
