                              Psi4 1.0.54 Driver

  ==> Input File <==

--------------------------------------------------------------------------
set {
	reference rhf
	basis cc-pvtz
}

set_num_threads( 4 )
memory 2 gb

molecule MOL {
0 1

H	 1.130199	 1.561778	 1.611162
O	 1.347174	 0.740110	 1.208377
C	 0.706474	 0.636793	 -0.025501
C	 -0.793473	 0.591216	 0.050087
H	 1.068345	 -0.276227	 -0.483482
H	 1.000523	 1.451551	 -0.684593
C	 -1.534243	 -0.493009	 -0.013340
H	 -1.266611	 1.552628	 0.164437
H	 -1.101195	 -1.466332	 -0.144046
H	 -2.604242	 -0.437780	 0.050785

	symmetry c1
}
set optking {
	frozen_dihedral = ("
		5 3 4 7
	")
}

ee,wfn = optimize('scf', return_wfn=True)
oeprop( wfn, 'DIPOLE', 'QUADRUPOLE', 'MULLIKEN_CHARGES')
f=open( 'psi4out.xyz', 'w' )
f.write( "10  " )
f.write( str(ee) + "\n" )
f.write( MOL.save_string_xyz() )
f.close()
--------------------------------------------------------------------------

    Molecular point group: c1
  Charge       = 0
  Multiplicity = 1
  Basis Set: CC-PVTZ
  Basis Set:
  @DF-RHF Final Energy:  -191.99524465492334
    Total Energy =                       -191.9952446549234253
    Molecular point group: c1
  Basis Set: CC-PVTZ
  Basis Set:
  Basis Set: CC-PVTZ
  Basis Set:
  @DF-RHF Final Energy:  -191.99563962733816
    Total Energy =                       -191.9956396273382495
  Basis Set: CC-PVTZ
  Basis Set:
  Basis Set: CC-PVTZ
  Basis Set:
  @DF-RHF Final Energy:  -191.99569712511789
    Total Energy =                       -191.9956971251179425
  Basis Set: CC-PVTZ
  Basis Set:
  Basis Set: CC-PVTZ
  Basis Set:
  @DF-RHF Final Energy:  -191.99570270782510
    Total Energy =                       -191.9957027078250746
  Basis Set: CC-PVTZ
  Basis Set:
  Charge       = 0
  Multiplicity = 1
  Basis Set: CC-PVTZ
  Basis Set:

    Orbital Energies (a.u.)
    -----------------------

    Doubly Occupied:

       1A    -20.550683     2A    -11.275044     3A    -11.229597
       4A    -11.224134     5A     -1.368426     6A     -1.066155
       7A     -0.923871     8A     -0.782353     9A     -0.686808
      10A     -0.661452    11A     -0.617702    12A     -0.574817
      13A     -0.549299    14A     -0.485751    15A     -0.444966
      16A     -0.378418

  @DF-RHF Final Energy:  -191.99570360141860

   => Energetics <=

    Nuclear Repulsion Energy =            117.8338462375581202
    One-Electron Energy =                -494.0201528404509190
    Two-Electron Energy =                 184.1906030014741873
    DFT Exchange-Correlation Energy =       0.0000000000000000
    Empirical Dispersion Energy =           0.0000000000000000
    PCM Polarization Energy =               0.0000000000000000
    EFP Energy =                            0.0000000000000000
    Total Energy =                       -191.9957036014185974
    Molecular point group: c1
  Basis Set: CC-PVTZ
  Basis Set:

  -Total Gradient:
     Atom            X                  Y                   Z
    ------   -----------------  -----------------  -----------------
       1        0.000024487764     0.000022104361    -0.000024158811
       2       -0.000009442120     0.000013448758     0.000057782404
       3        0.000112295796    -0.001524586051     0.003584427613
       4       -0.000160445726     0.000750174609    -0.003686734226
       5       -0.000112094356     0.001077607246    -0.002114910041
       6        0.000014489295    -0.000007787374     0.000059817356
       7        0.000121032975    -0.000289675601     0.002186674238
       8        0.000013050480    -0.000027410762    -0.000037873870
       9       -0.000014489430     0.000007653066    -0.000018533481
      10        0.000011115323    -0.000021528251    -0.000006491179

  **** Optimization is complete! (in 5 steps) ****
    Final optimized geometry and variables:
    Molecular point group: c1

    Geometry (in Angstrom), charge = 0, multiplicity = 1:

    H            1.058200493360     1.069345785734     1.355314936156
    O            1.318440585934     0.289186434295     0.899747419605
    C            0.711184470043     0.241901072474    -0.364027734679
    C           -0.791936042866     0.227293399118    -0.299156124444
    H            1.069576440407    -0.654244575140    -0.849596673219
    H            1.040007980759     1.083736589953    -0.968567489503
    C           -1.526525785538    -0.856994373972    -0.410610722959
    H           -1.274166183268     1.172691960135    -0.108147798060
    H           -1.083775759532    -1.819716914868    -0.592515532538
    H           -2.596875686073    -0.823944414301    -0.330643792263

  Mulliken Charges: (a.u.)
   Center  Symbol    Alpha    Beta     Spin     Total
       1     H     0.39533  0.39533  0.00000  0.20933
       2     O     4.19652  4.19652  0.00000 -0.39304
       3     C     2.95488  2.95488  0.00000  0.09024
       4     C     3.07891  3.07891  0.00000 -0.15783
       5     H     0.45633  0.45633  0.00000  0.08734
       6     H     0.47265  0.47265  0.00000  0.05471
       7     C     3.16385  3.16385  0.00000 -0.32770
       8     H     0.42451  0.42451  0.00000  0.15098
       9     H     0.42904  0.42904  0.00000  0.14192
      10     H     0.42797  0.42797  0.00000  0.14406

   Total alpha = 16.00000, Total beta = 16.00000, Total charge =  0.00000

*** Psi4 exiting successfully. Buy a developer a beer!
