                              Psi4 1.0.54 Driver

  ==> Input File <==

--------------------------------------------------------------------------
set {
	reference rhf
	basis cc-pvtz
}

set_num_threads( 4 )
memory 2 gb

molecule MOL {
0 1

H	 -3.268214	 -0.875720	 0.463107
C	 -2.806015	 0.000007	 0.024886
N	 -1.391133	 0.000016	 0.301321
H	 -3.029448	 0.000055	 -1.045738
H	 -3.268126	 0.875758	 0.463150
C	 -0.598241	 0.232451	 -0.886480
C	 -0.962719	 -1.204651	 0.978647
H	 -0.750321	 -0.557111	 -1.628311
H	 -0.907411	 1.168210	 -1.336873
C	 0.877117	 0.307389	 -0.540477
H	 -1.537964	 -1.318036	 1.889870
H	 -1.139642	 -2.092179	 0.363959
C	 0.512638	 -1.129713	 1.324650
H	 1.452362	 0.420774	 -1.451699
H	 1.054039	 1.194917	 0.074211
N	 1.305530	 -0.897278	 0.136849
H	 0.821808	 -2.065472	 1.775043
H	 0.664718	 -0.340151	 2.066481
C	 2.720412	 -0.897269	 0.413284
H	 3.277082	 -0.782787	 -0.508441
H	 3.009112	 -1.839251	 0.862599
H	 3.020527	 -0.093375	 1.091402

	symmetry c1
}
set optking {
	frozen_dihedral = ("
		6 3 2 4
	")
}

ee,wfn = optimize('scf', return_wfn=True)
oeprop( wfn, 'DIPOLE', 'QUADRUPOLE', 'MULLIKEN_CHARGES')
f=open( 'psi4out.xyz', 'w' )
f.write( "22  " )
f.write( str(ee) + "\n" )
f.write( MOL.save_string_xyz() )
f.close()
--------------------------------------------------------------------------

    Molecular point group: c1
  Charge       = 0
  Multiplicity = 1
  Basis Set: CC-PVTZ
  Basis Set:
  @DF-RHF Final Energy:  -344.34416190397849
    Total Energy =                       -344.3441619039780335
    Molecular point group: c1
  Basis Set: CC-PVTZ
  Basis Set:
  Basis Set: CC-PVTZ
  Basis Set:
  @DF-RHF Final Energy:  -344.34458554795191
    Total Energy =                       -344.3445855479519651
  Basis Set: CC-PVTZ
  Basis Set:
  Basis Set: CC-PVTZ
  Basis Set:
  @DF-RHF Final Energy:  -344.34468729207117
    Total Energy =                       -344.3446872920711712
  Basis Set: CC-PVTZ
  Basis Set:
  Basis Set: CC-PVTZ
  Basis Set:
  @DF-RHF Final Energy:  -344.34468946924414
    Total Energy =                       -344.3446894692441447
  Basis Set: CC-PVTZ
  Basis Set:
  Charge       = 0
  Multiplicity = 1
  Basis Set: CC-PVTZ
  Basis Set:

    Orbital Energies (a.u.)
    -----------------------

    Doubly Occupied:

       1A    -15.537045     2A    -15.534641     3A    -11.237260
       4A    -11.237237     5A    -11.236295     6A    -11.236271
       7A    -11.233946     8A    -11.233875     9A     -1.255101
      10A     -1.203290    11A     -1.025343    12A     -0.991766
      13A     -0.912632    14A     -0.867380    15A     -0.836699
      16A     -0.754840    17A     -0.665863    18A     -0.635878
      19A     -0.631617    20A     -0.624799    21A     -0.620589
      22A     -0.580463    23A     -0.551394    24A     -0.550466
      25A     -0.542223    26A     -0.519821    27A     -0.498323
      28A     -0.487609    29A     -0.465556    30A     -0.456146
      31A     -0.350925    32A     -0.343334

  @DF-RHF Final Energy:  -344.34468976365469

   => Energetics <=

    Nuclear Repulsion Energy =            421.4205649502133042
    One-Electron Energy =               -1301.8132553963550890
    Two-Electron Energy =                 536.0480006824865313
    DFT Exchange-Correlation Energy =       0.0000000000000000
    Empirical Dispersion Energy =           0.0000000000000000
    PCM Polarization Energy =               0.0000000000000000
    EFP Energy =                            0.0000000000000000
    Total Energy =                       -344.3446897636553103
    Molecular point group: c1
  Basis Set: CC-PVTZ
  Basis Set:

  -Total Gradient:
     Atom            X                  Y                   Z
    ------   -----------------  -----------------  -----------------
       1        0.000010169510     0.000006389889     0.000009316859
       2       -0.000074728329    -0.002421925815    -0.000151470625
       3       -0.000030702081     0.002054168223     0.000340340844
       4        0.000037993267     0.001531344618     0.000028729367
       5        0.000014468303    -0.000001141483     0.000003523647
       6        0.000029199562    -0.001146221091    -0.000242896175
       7        0.000002669900    -0.000024089973     0.000003880963
       8       -0.000005916610     0.000002897743     0.000007758328
       9        0.000002434233    -0.000002828386     0.000005706521
      10        0.000004179415     0.000006151952    -0.000000220953
      11        0.000005028800     0.000003383411    -0.000004527440
      12        0.000000636450     0.000008748762     0.000002275085
      13        0.000004556664    -0.000009239028     0.000004394942
      14        0.000009111237    -0.000001110301    -0.000001892251
      15       -0.000003525521     0.000000599602    -0.000003168101
      16       -0.000009201170     0.000001033806     0.000000490858
      17        0.000010887260    -0.000004158433     0.000003684638
      18       -0.000008259714    -0.000003258423    -0.000002747561
      19       -0.000000547615    -0.000002196648    -0.000003222815
      20        0.000002431384     0.000000768618     0.000000730508
      21        0.000001168552     0.000000961792     0.000000100853
      22       -0.000002053504    -0.000000278832    -0.000000787491

  **** Optimization is complete! (in 5 steps) ****
    Final optimized geometry and variables:
    Molecular point group: c1

    Geometry (in Angstrom), charge = 0, multiplicity = 1:

    H           -3.281402528826    -0.404450780506     0.170694032165
    C           -2.777862507694     0.464896862357    -0.235195122040
    N           -1.351785672128     0.428971016787     0.044254726124
    H           -2.978024320620     0.488063069056    -1.302253505580
    H           -3.237624919246     1.346211805679     0.199648800581
    C           -0.533833104781     0.662690017622    -1.125939816687
    C           -0.927707203182    -0.765530848770     0.742809799463
    H           -0.662377343497    -0.129451435029    -1.869313885751
    H           -0.836881370039     1.595505885890    -1.586730735220
    C            0.932795202327     0.752081067571    -0.748048398412
    H           -1.516095483607    -0.872543819179     1.646045919730
    H           -1.083461791784    -1.663807760605     0.138069510564
    C            0.539444961175    -0.673488268195     1.118729623343
    H            1.526925520135     0.864194763832    -1.647456421670
    H            1.088582917678     1.645422034959    -0.135843831064
    N            1.356241575816    -0.443936581594    -0.053037144733
    H            0.847353699195    -1.602306518147     1.584541332811
    H            0.667550971880     0.124348841313     1.856440940938
    C            2.764523533190    -0.430495309341     0.253979846517
    H            3.340292234404    -0.318000092991    -0.656271168194
    H            3.051049250890    -1.366840492705     0.716445784540
    H            3.043624814217     0.380695059837     0.932568367461

  Mulliken Charges: (a.u.)
   Center  Symbol    Alpha    Beta     Spin     Total
       1     H     0.45958  0.45958  0.00000  0.08084
       2     C     3.09223  3.09223  0.00000 -0.18446
       3     N     3.61605  3.61605  0.00000 -0.23210
       4     H     0.46218  0.46218  0.00000  0.07565
       5     H     0.45003  0.45003  0.00000  0.09994
       6     C     3.03600  3.03600  0.00000 -0.07200
       7     C     3.03582  3.03582  0.00000 -0.07164
       8     H     0.46801  0.46801  0.00000  0.06398
       9     H     0.45329  0.45329  0.00000  0.09342
      10     C     3.03735  3.03735  0.00000 -0.07469
      11     H     0.45343  0.45343  0.00000  0.09315
      12     H     0.46819  0.46819  0.00000  0.06363
      13     C     3.03709  3.03709  0.00000 -0.07419
      14     H     0.45409  0.45409  0.00000  0.09181
      15     H     0.46860  0.46860  0.00000  0.06280
      16     N     3.61287  3.61287  0.00000 -0.22574
      17     H     0.45409  0.45409  0.00000  0.09182
      18     H     0.46866  0.46866  0.00000  0.06269
      19     C     3.09831  3.09831  0.00000 -0.19661
      20     H     0.45200  0.45200  0.00000  0.09601
      21     H     0.45200  0.45200  0.00000  0.09600
      22     H     0.47014  0.47014  0.00000  0.05972

   Total alpha = 32.00000, Total beta = 32.00000, Total charge = -0.00000

*** Psi4 exiting successfully. Buy a developer a beer!
