  ==> Input File <==

--------------------------------------------------------------------------
set {
	reference rhf
	basis 6-31G*
}

set_num_threads( 4 )
memory 2 gb

molecule MOL {
0 1

H	 -3.121081	 1.750275	 0.964187
C	 -2.747427	 0.744769	 0.964095
C	 -1.671647	 0.446606	 0.272866
H	 -3.270946	 0.002491	 1.536688
O	 -1.180634	 -0.819263	 0.215062
H	 -1.128848	 1.176692	 -0.301189
C	 0.051604	 -1.018856	 -0.387932
C	 1.043764	 0.054862	 -0.001873
H	 -0.017620	 -1.041351	 -1.469781
H	 0.437898	 -1.966374	 -0.042284
F	 2.212596	 -0.199467	 -0.571921
F	 0.652529	 1.252447	 -0.405055
F	 1.230877	 0.110694	 1.300533

	symmetry c1
}
set optking {
	frozen_dihedral = ("
		3 5 7 9
	")
}

ee = optimize('scf')
oeprop('DIPOLE', 'QUADRUPOLE', 'MULLIKEN_CHARGES')
f=open( 'psi4out.xyz', 'w' )
f.write( "13  " )
f.write( str(ee) + "\n" )
f.write( MOL.save_string_xyz() )
f.close()
--------------------------------------------------------------------------

    Molecular point group: c1
  Charge       = 0
  Multiplicity = 1
  Basis Set: 6-31G*
  Basis Set:
  @DF-RHF Final Energy:  -527.51883980146238
    Total Energy =                       -527.5188398014620361
    Molecular point group: c1
  Basis Set: 6-31G*
  Basis Set:
  Basis Set: 6-31G*
  Basis Set:
  @DF-RHF Final Energy:  -527.52796557959061
    Total Energy =                       -527.5279655795906137
  Basis Set: 6-31G*
  Basis Set:
  Basis Set: 6-31G*
  Basis Set:
  @DF-RHF Final Energy:  -527.53022943855910
    Total Energy =                       -527.5302294385589903
  Basis Set: 6-31G*
  Basis Set:
  Basis Set: 6-31G*
  Basis Set:
  @DF-RHF Final Energy:  -527.53063225810320
    Total Energy =                       -527.5306322581029690
  Basis Set: 6-31G*
  Basis Set:
  @DF-RHF Final Energy:  -527.53076781919299
    Total Energy =                       -527.5307678191932155
  @DF-RHF Final Energy:  -527.53080098390740
    Total Energy =                       -527.5308009839076249
  @DF-RHF Final Energy:  -527.53080810500637
    Total Energy =                       -527.5308081050062583
  @DF-RHF Final Energy:  -527.53080929969747
    Total Energy =                       -527.5308092996973528
  @DF-RHF Final Energy:  -527.53062226171528
    Total Energy =                       -527.5306222617149388
  @DF-RHF Final Energy:  -527.52919166554943
    Total Energy =                       -527.5291916655496607
  @DF-RHF Final Energy:  -527.53026560043782
    Total Energy =                       -527.5302656004378150
  @DF-RHF Final Energy:  -527.53078696861394
    Total Energy =                       -527.5307869686142794
  @DF-RHF Final Energy:  -527.53079536404289
    Total Energy =                       -527.5307953640428877
  @DF-RHF Final Energy:  -527.53080542263444
    Total Energy =                       -527.5308054226347849
  @DF-RHF Final Energy:  -527.53080774582952
    Total Energy =                       -527.5308077458291791
  @DF-RHF Final Energy:  -527.53080809559174
    Total Energy =                       -527.5308080955917376
  @DF-RHF Final Energy:  -527.53080776203910
    Total Energy =                       -527.5308077620391032
  @DF-RHF Final Energy:  -527.53080791674347
    Total Energy =                       -527.5308079167433561
  @DF-RHF Final Energy:  -527.53080796994232
    Total Energy =                       -527.5308079699426571
  @DF-RHF Final Energy:  -527.53080786345572
    Total Energy =                       -527.5308078634561753
  @DF-RHF Final Energy:  -527.53080813200961
    Total Energy =                       -527.5308081320090423
  @DF-RHF Final Energy:  -527.53080813226893
    Total Energy =                       -527.5308081322687030
  @DF-RHF Final Energy:  -527.53080793088498
    Total Energy =                       -527.5308079308848619
  @DF-RHF Final Energy:  -527.53080782145935
    Total Energy =                       -527.5308078214587795
  @DF-RHF Final Energy:  -527.53080795784217
    Total Energy =                       -527.5308079578419438
  @DF-RHF Final Energy:  -527.53080806012758
    Total Energy =                       -527.5308080601275833
  @DF-RHF Final Energy:  -527.53080758151964
    Total Energy =                       -527.5308075815197526
  @DF-RHF Final Energy:  -527.53080799337920
    Total Energy =                       -527.5308079933784029
  @DF-RHF Final Energy:  -527.53080862797356
    Total Energy =                       -527.5308086279737836
  @DF-RHF Final Energy:  -527.53080669588496
    Total Energy =                       -527.5308066958848485
  @DF-RHF Final Energy:  -527.53080850104641
    Total Energy =                       -527.5308085010465220
  @DF-RHF Final Energy:  -527.53080877982688
    Total Energy =                       -527.5308087798268843
  @DF-RHF Final Energy:  -527.53080865690276
    Total Energy =                       -527.5308086569025363
  @DF-RHF Final Energy:  -527.53080892717924
    Total Energy =                       -527.5308089271793506
  @DF-RHF Final Energy:  -527.53080894495906
    Total Energy =                       -527.5308089449589488
  @DF-RHF Final Energy:  -527.53080890440367
    Total Energy =                       -527.5308089044038979
  Basis Set: 6-31G*
  Basis Set:
  @DF-RHF Final Energy:  -527.53080883701386
    Total Energy =                       -527.5308088370136375
  Basis Set: 6-31G*
  Basis Set:
  Basis Set: 6-31G*
  Basis Set:
  @DF-RHF Final Energy:  -527.53080871293469
    Total Energy =                       -527.5308087129345722
  Basis Set: 6-31G*
  Basis Set:
  Basis Set: 6-31G*
  Basis Set:
  @DF-RHF Final Energy:  -527.53080848136142
    Total Energy =                       -527.5308084813611913
  Basis Set: 6-31G*
  Basis Set:
  Charge       = 0
  Multiplicity = 1
  Basis Set: 6-31G*
  Basis Set:

    Orbital Energies (a.u.)
    -----------------------

    Doubly Occupied:

       1A    -26.346714     2A    -26.346630     3A    -26.344051
       4A    -20.603140     5A    -11.507938     6A    -11.317199
       7A    -11.294834     8A    -11.217468     9A     -1.745018
      10A     -1.642300    11A     -1.641642    12A     -1.430972
      13A     -1.081565    14A     -1.018512    15A     -0.927669
      16A     -0.837774    17A     -0.833437    18A     -0.830631
      19A     -0.775890    20A     -0.720155    21A     -0.713477
      22A     -0.693820    23A     -0.677057    24A     -0.662670
      25A     -0.656494    26A     -0.645938    27A     -0.638484
      28A     -0.592573    29A     -0.561738    30A     -0.523308
      31A     -0.490884    32A     -0.355677

  @DF-RHF Final Energy:  -527.53080813208499

   => Energetics <=

    Nuclear Repulsion Energy =            417.3045367335861897
    One-Electron Energy =               -1558.3193759958548981
    Two-Electron Energy =                 613.4840311301837801
    DFT Exchange-Correlation Energy =       0.0000000000000000
    Empirical Dispersion Energy =           0.0000000000000000
    PCM Polarization Energy =               0.0000000000000000
    EFP Energy =                            0.0000000000000000
    Total Energy =                       -527.5308081320848714
    Molecular point group: c1
  Basis Set: 6-31G*
  Basis Set:

  -Total Gradient:
     Atom            X                  Y                   Z
    ------   -----------------  -----------------  -----------------
       1        0.000252762122    -0.000411315630    -0.000034678214
       2       -0.000332648453     0.000296155774    -0.000021985287
       3        0.002121276107     0.000610722238     0.004557508636
       4        0.000042078963     0.000045414301     0.000040504166
       5       -0.003042293942    -0.002299356205    -0.007129152388
       6       -0.000050684839    -0.000156830202     0.000169998712
       7        0.001517125644     0.007185660218     0.002492837269
       8        0.000262203697     0.000015490703     0.000455056679
       9       -0.000801439129    -0.005792072193    -0.000313108671
      10        0.000023359388     0.000140408498    -0.000027760616
      11        0.000069911841    -0.000078514947    -0.000026984971
      12       -0.000071136428     0.000267976310     0.000039431990
      13        0.000009485026     0.000176261137    -0.000201667303

    Molecular point group: c1

    Geometry (in Angstrom), charge = 0, multiplicity = 1:

    H           -3.265736907830     1.624115947838     0.847484758421
    C           -2.779249346333     0.668517883559     0.861435244337
    C           -1.923483331624     0.354486038222    -0.083116850866
    H           -3.016464442431    -0.016659646972     1.653638256817
    O           -1.347137103675    -0.878014782619    -0.141140156785
    H           -1.671871056154     1.022533389028    -0.886528125961
    C           -0.056348514023    -1.020453706721    -0.636865921395
    C            0.970463809583    -0.037127161490    -0.113250103549
    H           -0.038805812073    -1.016831902163    -1.722276281878
    H            0.275679710696    -1.997355685574    -0.317089433400
    F            2.171859394763    -0.438913407330    -0.499709431370
    F            0.801036403436     1.190951902563    -0.578400885952
    F            0.963663316517     0.029390287151     1.201657069042

  Mulliken Charges: (a.u.)
   Center  Symbol    Alpha    Beta     Spin     Total
       1     H     0.40691  0.40691  0.00000  0.18617
       2     C     3.22531  3.22531  0.00000 -0.45062
       3     C     2.91048  2.91048  0.00000  0.17904
       4     H     0.40214  0.40214  0.00000  0.19573
       5     O     4.30635  4.30635  0.00000 -0.61269
       6     H     0.40198  0.40198  0.00000  0.19604
       7     C     3.04731  3.04731  0.00000 -0.09461
       8     C     2.46676  2.46676  0.00000  1.06649
       9     H     0.40510  0.40510  0.00000  0.18980
      10     H     0.39147  0.39147  0.00000  0.21707
      11     F     4.68194  4.68194  0.00000 -0.36389
      12     F     4.68021  4.68021  0.00000 -0.36042
      13     F     4.67406  4.67406  0.00000 -0.34812

   Total alpha = 32.00000, Total beta = 32.00000, Total charge =  0.00000
