                              Psi4 1.0.54 Driver

  ==> Input File <==

--------------------------------------------------------------------------
set {
	reference rhf
	basis cc-pvtz
}

set_num_threads( 4 )
memory 2 gb

molecule MOL {
0 1

H	 2.614283	 2.028610	 0.296620
O	 3.358864	 1.662087	 -0.142800
C	 3.565468	 0.338079	 0.273842
C	 3.820915	 0.205250	 1.767760
H	 2.663349	 -0.198174	 0.011937
H	 4.382360	 -0.112903	 -0.286293
C	 5.120299	 0.852300	 2.241866
H	 2.980466	 0.638463	 2.301735
H	 3.837195	 -0.854455	 2.010982
C	 5.358936	 0.670280	 3.740118
H	 5.101002	 1.910862	 2.005058
H	 5.957178	 0.423929	 1.692850
C	 6.683340	 1.235170	 4.256942
H	 4.537080	 1.122460	 4.289948
H	 5.326458	 -0.391523	 3.968127
C	 6.801617	 2.757324	 4.204007
H	 6.811838	 0.914471	 5.287072
H	 7.504606	 0.791087	 3.698850
C	 8.097375	 3.277574	 4.821066
H	 5.955077	 3.200317	 4.724195
H	 6.740849	 3.101333	 3.175918
C	 8.220403	 4.796712	 4.766501
H	 8.159872	 2.948485	 5.854686
H	 8.944117	 2.829403	 4.308002
H	 7.404768	 5.274772	 5.298887
H	 9.148748	 5.132248	 5.214493
H	 8.199438	 5.154962	 3.742504

	symmetry c1
}
set optking {
	frozen_dihedral = ("
		4 3 2 1
	")
}

ee,wfn = optimize('scf', return_wfn=True)
oeprop( wfn, 'DIPOLE', 'QUADRUPOLE', 'MULLIKEN_CHARGES')
f=open( 'psi4out.xyz', 'w' )
f.write( "27  " )
f.write( str(ee) + "\n" )
f.write( MOL.save_string_xyz() )
f.close()
--------------------------------------------------------------------------

    Molecular point group: c1
  Charge       = 0
  Multiplicity = 1
  Basis Set: CC-PVTZ
  Basis Set:
  @DF-RHF Final Energy:  -388.42646618319861
    Total Energy =                       -388.4264661831987269
    Molecular point group: c1
  Basis Set: CC-PVTZ
  Basis Set:
  Basis Set: CC-PVTZ
  Basis Set:
  @DF-RHF Final Energy:  -388.42762753685054
    Total Energy =                       -388.4276275368505367
  Basis Set: CC-PVTZ
  Basis Set:
  Basis Set: CC-PVTZ
  Basis Set:
  @DF-RHF Final Energy:  -388.42821015029284
    Total Energy =                       -388.4282101502928981
  Basis Set: CC-PVTZ
  Basis Set:
  Basis Set: CC-PVTZ
  Basis Set:
  @DF-RHF Final Energy:  -388.42822181746834
    Total Energy =                       -388.4282218174681702
  Basis Set: CC-PVTZ
  Basis Set:
  Basis Set: CC-PVTZ
  Basis Set:
  @DF-RHF Final Energy:  -388.42822290235603
    Total Energy =                       -388.4282229023558557
  Basis Set: CC-PVTZ
  Basis Set:
  Charge       = 0
  Multiplicity = 1
  Basis Set: CC-PVTZ
  Basis Set:

    Orbital Energies (a.u.)
    -----------------------

    Doubly Occupied:

       1A    -20.546385     2A    -11.265460     3A    -11.215897
       4A    -11.211306     5A    -11.210814     6A    -11.209823
       7A    -11.209144     8A    -11.208073     9A    -11.204483
      10A     -1.364230    11A     -1.092765    12A     -1.060048
      13A     -1.010650    14A     -0.946007    15A     -0.884779
      16A     -0.821982    17A     -0.801681    18A     -0.775669
      19A     -0.680692    20A     -0.651770    21A     -0.641864
      22A     -0.616071    23A     -0.605988    24A     -0.585237
      25A     -0.571239    26A     -0.559104    27A     -0.536481
      28A     -0.520101    29A     -0.513558    30A     -0.488772
      31A     -0.478576    32A     -0.473764    33A     -0.465779
      34A     -0.457739    35A     -0.454535    36A     -0.441405
      37A     -0.422314

  @DF-RHF Final Energy:  -388.42822280454351

   => Energetics <=

    Nuclear Repulsion Energy =            460.4065539996043412
    One-Electron Energy =               -1439.2612030986992977
    Two-Electron Energy =                 590.4264262945514474
    DFT Exchange-Correlation Energy =       0.0000000000000000
    Empirical Dispersion Energy =           0.0000000000000000
    PCM Polarization Energy =               0.0000000000000000
    EFP Energy =                            0.0000000000000000
    Total Energy =                       -388.4282228045435659
    Molecular point group: c1
  Basis Set: CC-PVTZ
  Basis Set:

  -Total Gradient:
     Atom            X                  Y                   Z
    ------   -----------------  -----------------  -----------------
       1        0.000317145994     0.000158115492     0.000298057403
       2       -0.000536151585    -0.000188040709    -0.000317284543
       3        0.000495282722     0.000127679508    -0.000053088286
       4       -0.000288877547    -0.000037388921     0.000001212343
       5        0.000003176332    -0.000018681690     0.000006902799
       6        0.000000149829    -0.000039262992     0.000009934605
       7        0.000011393176    -0.000003988578     0.000032542961
       8       -0.000013280296     0.000000119397     0.000001646938
       9       -0.000000190499    -0.000002279029     0.000027526121
      10        0.000010545155    -0.000017090968    -0.000022659307
      11        0.000007817639     0.000038283676    -0.000000148482
      12       -0.000003194684    -0.000014004872     0.000001112224
      13       -0.000002667677     0.000010964638     0.000027041007
      14        0.000001321552    -0.000007799439     0.000003830648
      15       -0.000002143293    -0.000013096939    -0.000013238036
      16       -0.000013375100    -0.000014279273     0.000003601689
      17        0.000002043484     0.000014578925     0.000008852489
      18        0.000001344501    -0.000007111894     0.000006835768
      19        0.000009064542     0.000015957879    -0.000004132272
      20       -0.000000516443    -0.000004113183     0.000004632331
      21       -0.000021405504    -0.000003706658    -0.000029607530
      22        0.000008918724    -0.000008936896    -0.000001004280
      23       -0.000000167047     0.000005537988     0.000005706073
      24        0.000008694556    -0.000001034202    -0.000000936836
      25       -0.000005712891     0.000001025290     0.000004606140
      26        0.000009784624     0.000009071933     0.000001893568
      27        0.000000999741    -0.000000518480    -0.000003835532

  **** Optimization is complete! (in 6 steps) ****
    Final optimized geometry and variables:
    Molecular point group: c1

    Geometry (in Angstrom), charge = 0, multiplicity = 1:

    H           -2.940747179315     0.226034328817    -2.504340974303
    O           -2.210318758280    -0.170409914632    -2.943819009782
    C           -2.057762016826    -1.497099313172    -2.513089471722
    C           -1.806725430287    -1.621759102057    -1.017867554565
    H           -2.930495054601    -2.084483475086    -2.787687376532
    H           -1.216278639360    -1.893133116140    -3.067296049580
    C           -0.515330885212    -0.956235754880    -0.549663744499
    H           -2.654103874789    -1.197051246466    -0.481255202543
    H           -1.788777403923    -2.679020400947    -0.765144944317
    C           -0.307312531880    -1.063375335712     0.959870061633
    H           -0.523809415095     0.081837909321    -0.856761863175
    H            0.325757954927    -1.419926137687    -1.060495770564
    C            1.015632598503    -0.487849056917     1.468905026573
    H           -1.131330970537    -0.571400940346     1.472104924106
    H           -0.358269122393    -2.110867710915     1.245314496647
    C            1.156519745906     1.026602578603     1.327320244085
    H            1.121602848947    -0.748569601660     2.518467085693
    H            1.839676130260    -0.974995722915     0.952664659939
    C            2.453679734551     1.564681677874     1.925737203148
    H            0.311751372795     1.510981337796     1.812700953177
    H            1.109317321096     1.309177749376     0.280375098471
    C            2.598505593678     3.076150332358     1.783261978565
    H            2.502891132740     1.296077621198     2.977516269731
    H            3.298434312478     1.076085785402     1.447642887498
    H            1.785812287113     3.595684363571     2.280246457900
    H            3.528203268897     3.424974131656     2.218228234937
    H            2.589640910366     3.373562654776     0.739916029994

  Mulliken Charges: (a.u.)
   Center  Symbol    Alpha    Beta     Spin     Total
       1     H     0.39509  0.39509  0.00000  0.20983
       2     O     4.20321  4.20321  0.00000 -0.40642
       3     C     2.97602  2.97602  0.00000  0.04795
       4     C     3.10488  3.10488  0.00000 -0.20976
       5     H     0.46044  0.46044  0.00000  0.07912
       6     H     0.45910  0.45910  0.00000  0.08180
       7     C     3.08930  3.08930  0.00000 -0.17861
       8     H     0.45868  0.45868  0.00000  0.08263
       9     H     0.45192  0.45192  0.00000  0.09615
      10     C     3.09898  3.09898  0.00000 -0.19797
      11     H     0.44516  0.44516  0.00000  0.10968
      12     H     0.45503  0.45503  0.00000  0.08995
      13     C     3.09759  3.09759  0.00000 -0.19518
      14     H     0.45431  0.45431  0.00000  0.09138
      15     H     0.44938  0.44938  0.00000  0.10124
      16     C     3.08840  3.08840  0.00000 -0.17679
      17     H     0.44886  0.44886  0.00000  0.10228
      18     H     0.45373  0.45373  0.00000  0.09254
      19     C     3.08393  3.08393  0.00000 -0.16786
      20     H     0.45619  0.45619  0.00000  0.08762
      21     H     0.45155  0.45155  0.00000  0.09689
      22     C     3.14976  3.14976  0.00000 -0.29951
      23     H     0.45456  0.45456  0.00000  0.09089
      24     H     0.45466  0.45466  0.00000  0.09069
      25     H     0.45567  0.45567  0.00000  0.08867
      26     H     0.44878  0.44878  0.00000  0.10244
      27     H     0.45482  0.45482  0.00000  0.09036

   Total alpha = 37.00000, Total beta = 37.00000, Total charge = -0.00000

*** Psi4 exiting successfully. Buy a developer a beer!
