  ==> Input File <==

--------------------------------------------------------------------------
set {
	reference rhf
	basis 6-31G*
}

set_num_threads( 4 )
memory 2 gb

molecule MOL {
0 1

O	 -0.988096	 -1.408613	 0.050699
C	 -0.676749	 -0.249230	 -0.009274
C	 -1.746085	 0.827156	 -0.009539
N	 0.623947	 0.147590	 -0.102813
H	 -1.701500	 1.431508	 -0.908902
H	 -2.703425	 0.330732	 0.036390
H	 -1.647323	 1.487769	 0.845106
C	 0.927745	 1.367504	 -0.824888
C	 1.754917	 -0.715627	 0.157974
H	 1.724126	 1.899503	 -0.316191
H	 0.050378	 1.989357	 -0.863199
H	 1.252549	 1.154660	 -1.841068
H	 2.571690	 -0.120930	 0.549453
H	 1.518507	 -1.468694	 0.892776
H	 2.104352	 -1.211644	 -0.745727

	symmetry c1
}
set optking {
	frozen_dihedral = ("
		8 4 2 3
	")
}

ee = optimize('scf')
oeprop('DIPOLE', 'QUADRUPOLE', 'MULLIKEN_CHARGES')
f=open( 'psi4out.xyz', 'w' )
f.write( "15  " )
f.write( str(ee) + "\n" )
f.write( MOL.save_string_xyz() )
f.close()
--------------------------------------------------------------------------

    Molecular point group: c1
  Charge       = 0
  Multiplicity = 1
  Basis Set: 6-31G*
  Basis Set:
  @DF-RHF Final Energy:  -286.02065643607966
    Total Energy =                       -286.0206564360796619
    Molecular point group: c1
  Basis Set: 6-31G*
  Basis Set:
  Basis Set: 6-31G*
  Basis Set:
  @DF-RHF Final Energy:  -286.02443566855823
    Total Energy =                       -286.0244356685579987
  Basis Set: 6-31G*
  Basis Set:
  Basis Set: 6-31G*
  Basis Set:
  @DF-RHF Final Energy:  -286.02839633011951
    Total Energy =                       -286.0283963301195627
  Basis Set: 6-31G*
  Basis Set:
  Basis Set: 6-31G*
  Basis Set:
  @DF-RHF Final Energy:  -286.02847046186434
    Total Energy =                       -286.0284704618643445
  Basis Set: 6-31G*
  Basis Set:
  @DF-RHF Final Energy:  -286.02895851159712
    Total Energy =                       -286.0289585115970112
  @DF-RHF Final Energy:  -286.02902390384804
    Total Energy =                       -286.0290239038479854
  @DF-RHF Final Energy:  -286.02905337816702
    Total Energy =                       -286.0290533781669637
  Basis Set: 6-31G*
  Basis Set:
  @DF-RHF Final Energy:  -286.02905983697468
    Total Energy =                       -286.0290598369746249
  Basis Set: 6-31G*
  Basis Set:
  Basis Set: 6-31G*
  Basis Set:
  @DF-RHF Final Energy:  -286.02906105863076
    Total Energy =                       -286.0290610586308730
  Basis Set: 6-31G*
  Basis Set:
  Basis Set: 6-31G*
  Basis Set:
  @DF-RHF Final Energy:  -286.02906290440433
    Total Energy =                       -286.0290629044044408
  Basis Set: 6-31G*
  Basis Set:
  Charge       = 0
  Multiplicity = 1
  Basis Set: 6-31G*
  Basis Set:

    Orbital Energies (a.u.)
    -----------------------

    Doubly Occupied:

       1A    -20.520130     2A    -15.582244     3A    -11.341889
       4A    -11.265767     5A    -11.246997     6A    -11.228533
       7A     -1.388499     8A     -1.242981     9A     -1.013964
      10A     -0.971162    11A     -0.916384    12A     -0.737095
      13A     -0.680806    14A     -0.658514    15A     -0.651104
      16A     -0.591250    17A     -0.577433    18A     -0.568882
      19A     -0.561097    20A     -0.544106    21A     -0.528481
      22A     -0.501553    23A     -0.413951    24A     -0.370619

  @DF-RHF Final Energy:  -286.02906385555718

   => Energetics <=

    Nuclear Repulsion Energy =            252.6444861215087485
    One-Electron Energy =                -889.1402195229468362
    Two-Electron Energy =                 350.4666695458808476
    DFT Exchange-Correlation Energy =       0.0000000000000000
    Empirical Dispersion Energy =           0.0000000000000000
    PCM Polarization Energy =               0.0000000000000000
    EFP Energy =                            0.0000000000000000
    Total Energy =                       -286.0290638555572400
    Molecular point group: c1
  Basis Set: 6-31G*
  Basis Set:

  -Total Gradient:
     Atom            X                  Y                   Z
    ------   -----------------  -----------------  -----------------
       1        0.000005286468     0.000000241052     0.000017903174
       2        0.000282036294    -0.001068973400    -0.004288459598
       3       -0.000094224827     0.000168159085     0.002136250669
       4       -0.000730298409     0.002110873200     0.003904245406
       5        0.000040539046     0.000039076933    -0.000008706821
       6        0.000030809328     0.000002696257     0.000055388549
       7       -0.000002992704     0.000013594711    -0.000020988285
       8        0.000458506046    -0.001268070780    -0.001840922280
       9       -0.000005592656    -0.000009296941     0.000052066764
      10        0.000006025986     0.000004814340     0.000005221612
      11       -0.000000070033    -0.000004467198    -0.000003191069
      12        0.000008183702    -0.000002960415    -0.000004761104
      13       -0.000004552510     0.000006494332    -0.000002223580
      14       -0.000002191479     0.000003520099    -0.000001763129
      15        0.000008535753     0.000004298728    -0.000000060310

  **** Optimization is complete! (in 11 steps) ****
    Final optimized geometry and variables:
    Molecular point group: c1

    Geometry (in Angstrom), charge = 0, multiplicity = 1:

    O           -0.889625745520    -1.415573929530     0.309243043949
    C           -0.657188102650    -0.253967542961     0.117156020135
    C           -1.790803656478     0.744871580829    -0.015813883132
    N            0.622898158162     0.233084351548     0.090028347252
    H           -1.876362675553     1.112720723907    -1.033319355860
    H           -2.705560452909     0.234370434692     0.245370015561
    H           -1.649518797520     1.596029541564     0.639930926952
    C            0.970360321497     1.427681542721    -0.653587578265
    C            1.692756325132    -0.742224715329     0.200537366343
    H            1.888771438565     1.838724571318    -0.253606834230
    H            0.206545082251     2.184363647232    -0.560954204828
    H            1.125899485355     1.219622992681    -1.711041102322
    H            2.591127430534    -0.238333445471     0.535980909448
    H            1.421127710110    -1.499104103137     0.917149311071
    H            1.900756573979    -1.227491759774    -0.750578781479

  Mulliken Charges: (a.u.)
   Center  Symbol    Alpha    Beta     Spin     Total
       1     O     4.29888  4.29888  0.00000 -0.59777
       2     C     2.62897  2.62897  0.00000  0.74207
       3     C     3.29698  3.29698  0.00000 -0.59397
       4     N     3.81803  3.81803  0.00000 -0.63606
       5     H     0.40704  0.40704  0.00000  0.18593
       6     H     0.39110  0.39110  0.00000  0.21779
       7     H     0.40595  0.40595  0.00000  0.18811
       8     C     3.14645  3.14645  0.00000 -0.29289
       9     C     3.14301  3.14301  0.00000 -0.28603
      10     H     0.40955  0.40955  0.00000  0.18091
      11     H     0.40726  0.40726  0.00000  0.18549
      12     H     0.41744  0.41744  0.00000  0.16512
      13     H     0.41857  0.41857  0.00000  0.16286
      14     H     0.39158  0.39158  0.00000  0.21684
      15     H     0.41920  0.41920  0.00000  0.16160

   Total alpha = 24.00000, Total beta = 24.00000, Total charge =  0.00000
