                              Psi4 1.0.54 Driver

  ==> Input File <==

--------------------------------------------------------------------------
set {
	reference rhf
	basis cc-pvtz
}

set_num_threads( 4 )
memory 2 gb

molecule MOL {
0 1

H	 -2.717322	 2.724215	 -1.532081
C	 -3.299764	 2.175831	 -0.779139
C	 -2.653809	 0.914422	 -0.273689
O	 -4.354199	 2.584129	 -0.434514
C	 -1.216901	 1.136108	 0.207794
H	 -3.276526	 0.497604	 0.507221
H	 -2.647694	 0.214016	 -1.105974
C	 -0.247837	 0.040196	 -0.230469
H	 -0.872882	 2.093195	 -0.169002
H	 -1.209325	 1.218376	 1.291938
C	 1.181757	 0.280428	 0.247371
H	 -0.259600	 -0.030819	 -1.314870
H	 -0.591284	 -0.923375	 0.136958
C	 2.151032	 -0.811012	 -0.202643
H	 1.515939	 1.247397	 -0.115449
H	 1.191514	 0.341223	 1.333422
C	 3.580021	 -0.656538	 0.320835
H	 2.170545	 -0.847575	 -1.289412
H	 1.766632	 -1.772905	 0.124928
C	 4.327657	 0.562694	 -0.213579
H	 4.138806	 -1.549270	 0.057813
H	 3.561991	 -0.620783	 1.406976
H	 4.355973	 0.557257	 -1.298551
H	 3.867136	 1.491650	 0.100501
H	 5.351524	 0.571613	 0.142204

	symmetry c1
}
set optking {
	frozen_dihedral = ("
		6 3 5 8
	")
}

ee,wfn = optimize('scf', return_wfn=True)
oeprop( wfn, 'DIPOLE', 'QUADRUPOLE', 'MULLIKEN_CHARGES')
f=open( 'psi4out.xyz', 'w' )
f.write( "25  " )
f.write( str(ee) + "\n" )
f.write( MOL.save_string_xyz() )
f.close()
--------------------------------------------------------------------------

    Molecular point group: c1
  Charge       = 0
  Multiplicity = 1
  Basis Set: CC-PVTZ
  Basis Set:
  @DF-RHF Final Energy:  -387.25716898112154
    Total Energy =                       -387.2571689811213673
    Molecular point group: c1
  Basis Set: CC-PVTZ
  Basis Set:
  Basis Set: CC-PVTZ
  Basis Set:
  @DF-RHF Final Energy:  -387.25733395364603
    Total Energy =                       -387.2573339536462527
  Basis Set: CC-PVTZ
  Basis Set:
  Basis Set: CC-PVTZ
  Basis Set:
  @DF-RHF Final Energy:  -387.25728289951189
    Total Energy =                       -387.2572828995117789
  Basis Set: CC-PVTZ
  Basis Set:
  Basis Set: CC-PVTZ
  Basis Set:
  @DF-RHF Final Energy:  -387.25748132304858
    Total Energy =                       -387.2574813230480686
  Basis Set: CC-PVTZ
  Basis Set:
  Basis Set: CC-PVTZ
  Basis Set:
  @DF-RHF Final Energy:  -387.25749034257524
    Total Energy =                       -387.2574903425753519
  Basis Set: CC-PVTZ
  Basis Set:
  Basis Set: CC-PVTZ
  Basis Set:
  @DF-RHF Final Energy:  -387.25749420633548
    Total Energy =                       -387.2574942063349681
  Basis Set: CC-PVTZ
  Basis Set:
  Basis Set: CC-PVTZ
  Basis Set:
  @DF-RHF Final Energy:  -387.25749687705530
    Total Energy =                       -387.2574968770553596
  Basis Set: CC-PVTZ
  Basis Set:
  Charge       = 0
  Multiplicity = 1
  Basis Set: CC-PVTZ
  Basis Set:

    Orbital Energies (a.u.)
    -----------------------

    Doubly Occupied:

       1A    -20.551398     2A    -11.320837     3A    -11.233827
       4A    -11.233226     5A    -11.224788     6A    -11.219171
       7A    -11.218024     8A    -11.217301     9A    -11.210189
      10A     -1.406511    11A     -1.105764    12A     -1.071426
      13A     -1.016330    14A     -0.946110    15A     -0.876511
      16A     -0.815743    17A     -0.794751    18A     -0.782990
      19A     -0.676335    20A     -0.661787    21A     -0.636180
      22A     -0.623082    23A     -0.605766    24A     -0.596480
      25A     -0.574867    26A     -0.554587    27A     -0.539736
      28A     -0.523925    29A     -0.511761    30A     -0.500105
      31A     -0.486611    32A     -0.479221    33A     -0.467206
      34A     -0.461138    35A     -0.451988    36A     -0.409754

  @DF-RHF Final Energy:  -387.25749715356574

   => Energetics <=

    Nuclear Repulsion Energy =            432.6990171430391001
    One-Electron Energy =               -1381.9021814890247697
    Two-Electron Energy =                 561.9456671924201601
    DFT Exchange-Correlation Energy =       0.0000000000000000
    Empirical Dispersion Energy =           0.0000000000000000
    PCM Polarization Energy =               0.0000000000000000
    EFP Energy =                            0.0000000000000000
    Total Energy =                       -387.2574971535655095
    Molecular point group: c1
  Basis Set: CC-PVTZ
  Basis Set:

  -Total Gradient:
     Atom            X                  Y                   Z
    ------   -----------------  -----------------  -----------------
       1       -0.000019126549     0.000015147888     0.000007709136
       2        0.000070664674    -0.000033283478    -0.000032483227
       3        0.001266912345    -0.003740059194    -0.002014617922
       4       -0.000050838160     0.000032081194     0.000021651773
       5       -0.000901432169    -0.000802230372     0.003266696097
       6       -0.000859238402     0.003308840286     0.000937656524
       7        0.000005663653     0.000005449163    -0.000000949271
       8        0.000496533541     0.001200144191    -0.002170842753
       9        0.000031127211     0.000012167406     0.000004648665
      10       -0.000014483839    -0.000002463924    -0.000015198893
      11       -0.000003168677     0.000013785616    -0.000010839120
      12        0.000001351389    -0.000002148405    -0.000005500483
      13        0.000000139139    -0.000001453701     0.000006073929
      14       -0.000016490262    -0.000023058837     0.000017274347
      15        0.000028357035     0.000027127417     0.000003429103
      16       -0.000004523980    -0.000007575347    -0.000008878143
      17        0.000010194376    -0.000014401416    -0.000021303197
      18       -0.000001222139    -0.000009122209     0.000004670883
      19       -0.000007306799     0.000001921921     0.000008417933
      20       -0.000014201867     0.000008110531     0.000005680733
      21       -0.000000524086     0.000003811113    -0.000009294062
      22        0.000003674407    -0.000010189771    -0.000003309568
      23        0.000002494716    -0.000006946306     0.000007818828
      24       -0.000023522898     0.000017335254    -0.000004636938
      25       -0.000001032662     0.000007010982     0.000006125626

  **** Optimization is complete! (in 8 steps) ****
    Final optimized geometry and variables:
    Molecular point group: c1

    Geometry (in Angstrom), charge = 0, multiplicity = 1:

    H           -2.718034508000     2.006519776521    -1.445342586938
    C           -3.252605390139     1.491364822424    -0.635927017691
    C           -2.602241147207     0.223132111807    -0.150765367187
    O           -4.259048402073     1.942085083361    -0.210658283160
    C           -1.150432658202     0.461647489630     0.305938988673
    H           -3.217402203353    -0.163418836641     0.649843836323
    H           -2.623710593663    -0.480998784718    -0.978115635196
    C           -0.191035697250    -0.652390307131    -0.105721872119
    H           -0.785403162099     1.396052504260    -0.113772020892
    H           -1.133248106449     0.591886808195     1.381696598203
    C            1.235600051873    -0.432808721559     0.388798264444
    H           -0.189622412581    -0.733100362289    -1.189809772656
    H           -0.560895085728    -1.603505216442     0.269656272697
    C            2.192577415986    -1.542459104663    -0.042843798949
    H            1.590564624232     0.526623816618     0.025457122599
    H            1.231747064577    -0.366235349925     1.474282036150
    C            3.616651977368    -1.408984934158     0.499379734342
    H            2.226736433298    -1.584729107121    -1.129186019926
    H            1.787883930590    -2.496303552387     0.284261090756
    C            4.389158426161    -0.201485630967    -0.026142328707
    H            4.165469756016    -2.310305126528     0.244688318856
    H            3.584419509689    -1.371638525096     1.585055193181
    H            4.432267506073    -0.208755502655    -1.110638274866
    H            3.938124190280     0.734466804313     0.280718559411
    H            5.408045739709    -0.207165449121     0.343588385521

  Mulliken Charges: (a.u.)
   Center  Symbol    Alpha    Beta     Spin     Total
       1     H     0.46741  0.46741  0.00000  0.06518
       2     C     2.90356  2.90356  0.00000  0.19289
       3     C     3.08246  3.08246  0.00000 -0.16492
       4     O     4.16450  4.16450  0.00000 -0.32900
       5     C     3.10607  3.10607  0.00000 -0.21213
       6     H     0.44073  0.44073  0.00000  0.11853
       7     H     0.44863  0.44863  0.00000  0.10275
       8     C     3.09153  3.09153  0.00000 -0.18305
       9     H     0.45271  0.45271  0.00000  0.09459
      10     H     0.44298  0.44298  0.00000  0.11405
      11     C     3.09381  3.09381  0.00000 -0.18762
      12     H     0.45352  0.45352  0.00000  0.09296
      13     H     0.45004  0.45004  0.00000  0.09993
      14     C     3.09540  3.09540  0.00000 -0.19080
      15     H     0.45146  0.45146  0.00000  0.09709
      16     H     0.45286  0.45286  0.00000  0.09429
      17     C     3.09070  3.09070  0.00000 -0.18139
      18     H     0.45375  0.45375  0.00000  0.09251
      19     H     0.44899  0.44899  0.00000  0.10202
      20     C     3.15270  3.15270  0.00000 -0.30541
      21     H     0.44781  0.44781  0.00000  0.10438
      22     H     0.45420  0.45420  0.00000  0.09160
      23     H     0.45478  0.45478  0.00000  0.09044
      24     H     0.45384  0.45384  0.00000  0.09232
      25     H     0.44560  0.44560  0.00000  0.10880

   Total alpha = 36.00000, Total beta = 36.00000, Total charge = -0.00000

*** Psi4 exiting successfully. Buy a developer a beer!
