  ==> Input File <==

--------------------------------------------------------------------------
set {
	reference rhf
	basis 6-31G*
}

set_num_threads( 4 )
memory 2 gb

molecule MOL {
0 1

H	 -0.495153	 -1.652463	 0.001388
N	 -0.626943	 -0.667432	 -0.000092
C	 -1.979713	 -0.158776	 -0.000610
C	 0.469286	 0.129090	 0.000148
H	 -2.519962	 -0.492815	 -0.880129
H	 -1.934739	 0.918109	 -0.005549
H	 -2.518074	 -0.484665	 0.883130
C	 1.788933	 -0.616240	 -0.000037
O	 0.411098	 1.327768	 -0.000049
H	 1.872803	 -1.245775	 -0.880381
H	 2.595421	 0.101576	 0.003713
H	 1.870096	 -1.252171	 0.875943

	symmetry c1
}
set optking {
	frozen_dihedral = ("
		3 2 4 9
	")
}

ee = optimize('scf')
oeprop('DIPOLE', 'QUADRUPOLE', 'MULLIKEN_CHARGES')
f=open( 'psi4out.xyz', 'w' )
f.write( "12  " )
f.write( str(ee) + "\n" )
f.write( MOL.save_string_xyz() )
f.close()
--------------------------------------------------------------------------

    Molecular point group: c1
  Charge       = 0
  Multiplicity = 1
  Basis Set: 6-31G*
  Basis Set:

    Orbital Energies (a.u.)
    -----------------------

    Doubly Occupied:

       1A    -20.515841     2A    -15.581292     3A    -11.343218
       4A    -11.253640     5A    -11.229684     6A     -1.384121
       7A     -1.228057     8A     -1.015717     9A     -0.931563
      10A     -0.786421    11A     -0.689201    12A     -0.648070
      13A     -0.632148    14A     -0.585956    15A     -0.579666
      16A     -0.554561    17A     -0.543941    18A     -0.507670
      19A     -0.412821    20A     -0.384109

  @DF-RHF Final Energy:  -247.00547265597680

   => Energetics <=

    Nuclear Repulsion Energy =            181.2615211289863169
    One-Electron Energy =                -694.9185899604617589
    Two-Electron Energy =                 266.6515961754985824
    DFT Exchange-Correlation Energy =       0.0000000000000000
    Empirical Dispersion Energy =           0.0000000000000000
    PCM Polarization Energy =               0.0000000000000000
    EFP Energy =                            0.0000000000000000
    Total Energy =                       -247.0054726559769165
    Molecular point group: c1
  Basis Set: 6-31G*
  Basis Set:

  -Total Gradient:
     Atom            X                  Y                   Z
    ------   -----------------  -----------------  -----------------
       1       -0.000000265555     0.000000067927     0.000009626043
       2        0.000024107776     0.000007058873     0.000007349872
       3       -0.000020862899     0.000014642287    -0.000006848242
       4       -0.000011445491    -0.000030823551     0.000000643484
       5       -0.000002232906    -0.000004858493    -0.000009166261
       6        0.000004677502    -0.000003671089     0.000001979418
       7        0.000007300592    -0.000003038283    -0.000000160155
       8       -0.000014387861    -0.000001624672    -0.000012560474
       9        0.000005723520     0.000012932012     0.000009067400
      10        0.000000529862    -0.000004551262    -0.000000071049
      11        0.000011022706     0.000015558790    -0.000001686344
      12       -0.000004167248    -0.000001692544     0.000001826308

  **** Optimization is complete! (in 1 steps) ****
    Final optimized geometry and variables:
    Molecular point group: c1

    Geometry (in Angstrom), charge = 0, multiplicity = 1:

    H           -0.495152629934    -1.652462634201     0.001524336851
    N           -0.626942629934    -0.667431634201     0.000044336851
    C           -1.979712629934    -0.158775634201    -0.000473663149
    C            0.469286370066     0.129090365799     0.000284336851
    H           -2.519961629934    -0.492814634201    -0.879992663149
    H           -1.934738629934     0.918109365799    -0.005412663149
    H           -2.518073629934    -0.484664634201     0.883266336851
    C            1.788933370066    -0.616239634201     0.000099336851
    O            0.411098370066     1.327768365799     0.000087336851
    H            1.872803370066    -1.245774634201    -0.880244663149
    H            2.595421370066     0.101576365799     0.003849336851
    H            1.870096370066    -1.252170634201     0.876079336851

  Mulliken Charges: (a.u.)
   Center  Symbol    Alpha    Beta     Spin     Total
       1     H     0.31106  0.31106  0.00000  0.37787
       2     N     3.89162  3.89162  0.00000 -0.78324
       3     C     3.14247  3.14247  0.00000 -0.28494
       4     C     2.63057  2.63057  0.00000  0.73886
       5     H     0.41671  0.41671  0.00000  0.16658
       6     H     0.38547  0.38547  0.00000  0.22906
       7     H     0.41670  0.41670  0.00000  0.16661
       8     C     3.29526  3.29526  0.00000 -0.59052
       9     O     4.30251  4.30251  0.00000 -0.60502
      10     H     0.40781  0.40781  0.00000  0.18437
      11     H     0.39183  0.39183  0.00000  0.21634
      12     H     0.40799  0.40799  0.00000  0.18402

   Total alpha = 20.00000, Total beta = 20.00000, Total charge = -0.00000
