  ==> Input File <==

--------------------------------------------------------------------------
set {
	reference rhf
	basis cc-pvtz
}

set_num_threads( 4 )
memory 2 gb

molecule MOL {
0 1

H	 -1.843565	 1.912371	 1.003397
C	 -2.052107	 0.880795	 1.253559
C	 -0.771464	 0.062223	 1.305606
H	 -2.729621	 0.494384	 0.503974
H	 -2.553336	 0.855803	 2.213792
C	 0.000000	 0.039916	 0.000014
H	 -0.982187	 -0.967614	 1.581161
H	 -0.103818	 0.438013	 2.076269
C	 1.286532	 -0.763243	 0.000268
O	 -0.380827	 0.617184	 -0.965445
C	 2.547023	 0.087626	 -0.000114
H	 1.264245	 -1.421103	 -0.864380
H	 1.264290	 -1.420353	 0.865489
H	 2.584452	 0.725630	 -0.872909
H	 3.427035	 -0.544422	 0.000125
H	 2.584484	 0.726356	 0.872143

	symmetry c1
}
set optking {
	frozen_dihedral = ("
		3 6 9 12
	")
}

ee = optimize('scf')
oeprop('DIPOLE', 'QUADRUPOLE', 'MULLIKEN_CHARGES')
f=open( 'psi4out.xyz', 'w' )
f.write( "16  " )
f.write( str(ee) + "\n" )
f.write( MOL.save_string_xyz() )
f.close()
--------------------------------------------------------------------------

    Molecular point group: c1
  Charge       = 0
  Multiplicity = 1
  Basis Set: CC-PVTZ
  Basis Set:
  @DF-RHF Final Energy:  -270.12911264135823
    Total Energy =                       -270.1291126413583470
    Molecular point group: c1
  Basis Set: CC-PVTZ
  Basis Set:
  Basis Set: CC-PVTZ
  Basis Set:
  @DF-RHF Final Energy:  -270.12979798254213
    Total Energy =                       -270.1297979825422999
  Basis Set: CC-PVTZ
  Basis Set:
  Basis Set: CC-PVTZ
  Basis Set:
  @DF-RHF Final Energy:  -270.12992122092163
    Total Energy =                       -270.1299212209215739
  Basis Set: CC-PVTZ
  Basis Set:
  Basis Set: CC-PVTZ
  Basis Set:
  @DF-RHF Final Energy:  -270.12998667704187
    Total Energy =                       -270.1299866770422113
  Basis Set: CC-PVTZ
  Basis Set:
  Basis Set: CC-PVTZ
  Basis Set:
  @DF-RHF Final Energy:  -270.12998841375514
    Total Energy =                       -270.1299884137548588
  Basis Set: CC-PVTZ
  Basis Set:
  Charge       = 0
  Multiplicity = 1
  Basis Set: CC-PVTZ
  Basis Set:

    Orbital Energies (a.u.)
    -----------------------

    Doubly Occupied:

       1A    -20.537238     2A    -11.317475     3A    -11.233136
       4A    -11.230379     5A    -11.222318     6A    -11.211834
       7A     -1.397886     8A     -1.070998     9A     -1.037958
      10A     -0.914023    11A     -0.853394    12A     -0.727562
      13A     -0.666964    14A     -0.644307    15A     -0.625031
      16A     -0.602356    17A     -0.567710    18A     -0.538704
      19A     -0.531058    20A     -0.512838    21A     -0.503374
      22A     -0.498438    23A     -0.480054    24A     -0.398344

  @DF-RHF Final Energy:  -270.12998911428639

   => Energetics <=

    Nuclear Repulsion Energy =            240.7496858430346833
    One-Electron Energy =                -843.1125903326636717
    Two-Electron Energy =                 332.2329153753426567
    DFT Exchange-Correlation Energy =       0.0000000000000000
    Empirical Dispersion Energy =           0.0000000000000000
    PCM Polarization Energy =               0.0000000000000000
    EFP Energy =                            0.0000000000000000
    Total Energy =                       -270.1299891142863885
    Molecular point group: c1
  Basis Set: CC-PVTZ
  Basis Set:

  -Total Gradient:
     Atom            X                  Y                   Z
    ------   -----------------  -----------------  -----------------
       1        0.000001524746    -0.000011572042     0.000000732275
       2        0.000000759001     0.000007581354     0.000004623361
       3        0.000008193253    -0.000012238795    -0.000001378935
       4       -0.000005513744     0.000000128753    -0.000002773127
       5       -0.000003951022    -0.000000070312    -0.000000196437
       6       -0.000001473098    -0.000035996605    -0.000025277243
       7        0.000000656270     0.000020375266     0.000005853384
       8        0.000010534404     0.000004855409     0.000008624331
       9        0.000012897596    -0.000004692890     0.000038596470
      10        0.000002593920     0.000010477726    -0.000009023769
      11       -0.000010489727     0.000002581486    -0.000008588993
      12        0.000005591503     0.000030783148    -0.000014379652
      13       -0.000009781420    -0.000006135474     0.000007736841
      14        0.000003028570     0.000006446614    -0.000003362395
      15       -0.000008536081    -0.000008319471    -0.000000929958
      16       -0.000006034169    -0.000004204169    -0.000000256156

  **** Optimization is complete! (in 6 steps) ****
    Final optimized geometry and variables:
    Molecular point group: c1

    Geometry (in Angstrom), charge = 0, multiplicity = 1:

    H           -1.871709057377     1.785330757165     0.772771856284
    C           -2.143251324295     0.757997686485     0.976693773695
    C           -0.910977673031    -0.129910349582     1.033963069548
    H           -2.815257469063     0.437153258299     0.192194065860
    H           -2.675969275781     0.725453404182     1.919582466541
    C           -0.102338029385    -0.155094715855    -0.244792665057
    H           -1.181474873888    -1.158471904191     1.261233117325
    H           -0.243928316251     0.175197005981     1.836888489698
    C            1.187593831648    -0.956610123620    -0.231375669996
    O           -0.441499634891     0.430934799394    -1.221074303166
    C            2.408811773877    -0.036634355428    -0.293626956184
    H            1.173935361278    -1.602333651747    -1.101097044943
    H            1.235807501972    -1.584558079402     0.650269420937
    H            2.374638505047     0.577002099330    -1.183409991012
    H            3.321208082664    -0.619411167729    -0.312446083472
    H            2.452586529090     0.619940035635     0.568623085885

  Mulliken Charges: (a.u.)
   Center  Symbol    Alpha    Beta     Spin     Total
       1     H     0.44855  0.44855  0.00000  0.10290
       2     C     3.14097  3.14097  0.00000 -0.28194
       3     C     3.10419  3.10419  0.00000 -0.20837
       4     H     0.44692  0.44692  0.00000  0.10616
       5     H     0.45077  0.45077  0.00000  0.09845
       6     C     2.86404  2.86404  0.00000  0.27191
       7     H     0.44488  0.44488  0.00000  0.11024
       8     H     0.44545  0.44545  0.00000  0.10911
       9     C     3.09544  3.09544  0.00000 -0.19089
      10     O     4.17819  4.17819  0.00000 -0.35638
      11     C     3.14627  3.14627  0.00000 -0.29254
      12     H     0.44121  0.44121  0.00000  0.11757
      13     H     0.44860  0.44860  0.00000  0.10279
      14     H     0.44133  0.44133  0.00000  0.11735
      15     H     0.44774  0.44774  0.00000  0.10452
      16     H     0.45544  0.45544  0.00000  0.08911

   Total alpha = 24.00000, Total beta = 24.00000, Total charge =  0.00000
