  ==> Input File <==

--------------------------------------------------------------------------
set {
	reference rhf
	basis cc-pvtz
}

set_num_threads( 4 )
memory 2 gb

molecule MOL {
0 1

H	 1.104341	 1.750168	 0.534412
O	 0.289970	 1.270756	 0.555151
C	 0.489979	 0.078084	 0.002623
C	 -0.763662	 -0.754014	 0.000816
O	 1.543981	 -0.253728	 -0.417961
C	 -2.038001	 0.074705	 -0.000833
H	 -0.712945	 -1.405886	 -0.864342
H	 -0.715137	 -1.405770	 0.866182
H	 -2.087267	 0.710831	 -0.874232
H	 -2.903419	 -0.576199	 -0.001922
H	 -2.089467	 0.710909	 0.872389

	symmetry c1
}
set optking {
	frozen_dihedral = ("
		2 3 4 7
	")
}

ee = optimize('scf')
oeprop('DIPOLE', 'QUADRUPOLE', 'MULLIKEN_CHARGES')
f=open( 'psi4out.xyz', 'w' )
f.write( "11  " )
f.write( str(ee) + "\n" )
f.write( MOL.save_string_xyz() )
f.close()
--------------------------------------------------------------------------

    Molecular point group: c1
  Charge       = 0
  Multiplicity = 1
  Basis Set: CC-PVTZ
  Basis Set:
  @DF-RHF Final Energy:  -266.95006653777023
    Total Energy =                       -266.9500665377702262
    Molecular point group: c1
  Basis Set: CC-PVTZ
  Basis Set:
  Basis Set: CC-PVTZ
  Basis Set:
  @DF-RHF Final Energy:  -266.95071237089985
    Total Energy =                       -266.9507123708998506
  Basis Set: CC-PVTZ
  Basis Set:
  Basis Set: CC-PVTZ
  Basis Set:
  @DF-RHF Final Energy:  -266.95070978255615
    Total Energy =                       -266.9507097825560322
  Basis Set: CC-PVTZ
  Basis Set:
  Basis Set: CC-PVTZ
  Basis Set:
  @DF-RHF Final Energy:  -266.95083445347194
    Total Energy =                       -266.9508344534718844
  Basis Set: CC-PVTZ
  Basis Set:
  Basis Set: CC-PVTZ
  Basis Set:
  @DF-RHF Final Energy:  -266.95088198877363
    Total Energy =                       -266.9508819887736308
  Basis Set: CC-PVTZ
  Basis Set:
  Charge       = 0
  Multiplicity = 1
  Basis Set: CC-PVTZ
  Basis Set:

    Orbital Energies (a.u.)
    -----------------------

    Doubly Occupied:

       1A    -20.607303     2A    -20.538169     3A    -11.374661
       4A    -11.243074     5A    -11.224090     6A     -1.479586
       7A     -1.368978     8A     -1.067738     9A     -0.911212
      10A     -0.825720    11A     -0.705956    12A     -0.680485
      13A     -0.659781    14A     -0.602406    15A     -0.590525
      16A     -0.554747    17A     -0.525669    18A     -0.515618
      19A     -0.477420    20A     -0.443401

  @DF-RHF Final Energy:  -266.95088252840253

   => Energetics <=

    Nuclear Repulsion Energy =            180.4134224248722660
    One-Electron Energy =                -721.9355351475207954
    Two-Electron Energy =                 274.5712301942459135
    DFT Exchange-Correlation Energy =       0.0000000000000000
    Empirical Dispersion Energy =           0.0000000000000000
    PCM Polarization Energy =               0.0000000000000000
    EFP Energy =                            0.0000000000000000
    Total Energy =                       -266.9508825284026443
    Molecular point group: c1
  Basis Set: CC-PVTZ
  Basis Set:

  -Total Gradient:
     Atom            X                  Y                   Z
    ------   -----------------  -----------------  -----------------
       1       -0.000011978885    -0.000035535827    -0.000003891166
       2       -0.000190613527     0.000330712234    -0.000581759996
       3        0.000240242735    -0.000306319890     0.000673832476
       4        0.000392394725    -0.000560332377     0.000347802791
       5       -0.000012770574     0.000012171819     0.000011342134
       6       -0.000035176437    -0.000005473176    -0.000000962374
       7       -0.000358946819     0.000575241844    -0.000445425627
       8       -0.000008092762    -0.000006232446     0.000003840131
       9        0.000000617227    -0.000004463276     0.000007482678
      10       -0.000016103105     0.000007568004    -0.000000508592
      11        0.000000427424    -0.000007336910    -0.000011752457

  **** Optimization is complete! (in 6 steps) ****
    Final optimized geometry and variables:
    Molecular point group: c1

    Geometry (in Angstrom), charge = 0, multiplicity = 1:

    H            1.264034704716     1.611161221464     0.490232716439
    O            0.423541150510     1.178169177347     0.503160558463
    C            0.570303005424    -0.028220270684    -0.032218175394
    C           -0.695033384764    -0.848955959343    -0.039228409318
    O            1.612862878297    -0.411002621325    -0.439661218347
    C           -2.001068062504    -0.062620274750    -0.038475264101
    H           -0.628732139238    -1.497563588115    -0.901268000067
    H           -0.639302860976    -1.488205303700     0.836540010529
    H           -2.067411409442     0.590218976046    -0.900126566914
    H           -2.838895367749    -0.747732281949    -0.073400794078
    H           -2.097384783367     0.546626993038     0.849062648537

  Mulliken Charges: (a.u.)
   Center  Symbol    Alpha    Beta     Spin     Total
       1     H     0.38175  0.38175  0.00000  0.23650
       2     O     4.15629  4.15629  0.00000 -0.31258
       3     C     2.80632  2.80632  0.00000  0.38736
       4     C     3.09416  3.09416  0.00000 -0.18832
       5     O     4.19592  4.19592  0.00000 -0.39185
       6     C     3.14287  3.14287  0.00000 -0.28574
       7     H     0.43437  0.43437  0.00000  0.13126
       8     H     0.44278  0.44278  0.00000  0.11444
       9     H     0.45007  0.45007  0.00000  0.09987
      10     H     0.44885  0.44885  0.00000  0.10230
      11     H     0.44662  0.44662  0.00000  0.10677

   Total alpha = 20.00000, Total beta = 20.00000, Total charge = -0.00000
