  ==> Input File <==

--------------------------------------------------------------------------
set {
	reference rhf
	basis 6-31G*
}

set_num_threads( 4 )
memory 2 gb

molecule MOL {
0 1

H	 -0.714546	 1.458634	 -0.692170
O	 0.055946	 1.300438	 -0.164479
C	 0.004957	 -0.004114	 0.366649
C	 1.201664	 -0.828089	 -0.095740
C	 -1.317755	 -0.601827	 -0.081511
H	 0.013527	 0.048298	 1.454924
H	 1.216388	 -0.895289	 -1.178704
H	 2.135132	 -0.372895	 0.226467
H	 1.166770	 -1.832878	 0.313827
H	 -1.355732	 -0.658248	 -1.164429
H	 -2.141614	 0.017037	 0.254547
H	 -1.447303	 -1.600817	 0.322594

	symmetry c1
}
set optking {
	frozen_dihedral = ("
		1 2 3 4
	")
}

ee = optimize('scf')
oeprop('DIPOLE', 'QUADRUPOLE', 'MULLIKEN_CHARGES')
f=open( 'psi4out.xyz', 'w' )
f.write( "12  " )
f.write( str(ee) + "\n" )
f.write( MOL.save_string_xyz() )
f.close()
--------------------------------------------------------------------------

    Molecular point group: c1
  Charge       = 0
  Multiplicity = 1
  Basis Set: 6-31G*
  Basis Set:
  @DF-RHF Final Energy:  -193.11076965122496
    Total Energy =                       -193.1107696512249561
    Molecular point group: c1
  Basis Set: 6-31G*
  Basis Set:
  Basis Set: 6-31G*
  Basis Set:
  @DF-RHF Final Energy:  -193.11227311739901
    Total Energy =                       -193.1122731173990132
  Basis Set: 6-31G*
  Basis Set:
  Basis Set: 6-31G*
  Basis Set:
  @DF-RHF Final Energy:  -193.11273009170139
    Total Energy =                       -193.1127300917014509
  Basis Set: 6-31G*
  Basis Set:
  Basis Set: 6-31G*
  Basis Set:
  @DF-RHF Final Energy:  -193.11273526176765
    Total Energy =                       -193.1127352617677957
  Basis Set: 6-31G*
  Basis Set:
  Charge       = 0
  Multiplicity = 1
  Basis Set: 6-31G*
  Basis Set:

    Orbital Energies (a.u.)
    -----------------------

    Doubly Occupied:

       1A    -20.548485     2A    -11.275447     3A    -11.220774
       4A    -11.206073     5A     -1.357966     6A     -1.042881
       7A     -0.943257     8A     -0.812506     9A     -0.667692
      10A     -0.648246    11A     -0.606799    12A     -0.555054
      13A     -0.546105    14A     -0.517559    15A     -0.513902
      16A     -0.466544    17A     -0.427142

  @DF-RHF Final Energy:  -193.11273594560930

   => Energetics <=

    Nuclear Repulsion Energy =            135.4192885054655449
    One-Electron Energy =                -530.3511838173237720
    Two-Electron Energy =                 201.8191593662488970
    DFT Exchange-Correlation Energy =       0.0000000000000000
    Empirical Dispersion Energy =           0.0000000000000000
    PCM Polarization Energy =               0.0000000000000000
    EFP Energy =                            0.0000000000000000
    Total Energy =                       -193.1127359456093302
    Molecular point group: c1
  Basis Set: 6-31G*
  Basis Set:

  -Total Gradient:
     Atom            X                  Y                   Z
    ------   -----------------  -----------------  -----------------
       1       -0.000088127842     0.000001005852     0.000132541343
       2        0.000151564641    -0.000068088236    -0.000093896207
       3       -0.000134350886     0.000038196158    -0.000192343631
       4        0.000051744389     0.000033381224     0.000126622818
       5       -0.000030134158     0.000047431001    -0.000006818102
       6        0.000016802149    -0.000043117609    -0.000012411692
       7       -0.000040773005     0.000014452389     0.000023583130
       8        0.000041457835    -0.000001716936    -0.000009042250
       9        0.000012968178     0.000010062087     0.000001001693
      10        0.000012594043     0.000021863513     0.000039419772
      11        0.000014803117    -0.000009648269    -0.000031967853
      12       -0.000008548462    -0.000043821173     0.000023310977

  **** Optimization is complete! (in 5 steps) ****
    Final optimized geometry and variables:
    Molecular point group: c1

    Geometry (in Angstrom), charge = 0, multiplicity = 1:

    H           -0.589734120433     1.539824548873    -0.682655475107
    O            0.138759998398     1.318806990835    -0.121932722937
    C            0.005205608872    -0.001328161208     0.363392094682
    C            1.208232957181    -0.814420132325    -0.093262527287
    C           -1.315483329643    -0.623822838299    -0.072825187174
    H            0.016300445901     0.057298116060     1.447971251506
    H            1.214895830455    -0.908988915119    -1.175002517606
    H            2.125772965633    -0.321149844088     0.206610315303
    H            1.195320556717    -1.810041102463     0.340806074611
    H           -1.364662500465    -0.699890038498    -1.156608058461
    H           -2.155480494749    -0.025046399769     0.268028547119
    H           -1.429605035152    -1.621703499476     0.336741206212

  Mulliken Charges: (a.u.)
   Center  Symbol    Alpha    Beta     Spin     Total
       1     H     0.27951  0.27951  0.00000  0.44099
       2     O     4.37981  4.37981  0.00000 -0.75961
       3     C     2.90439  2.90439  0.00000  0.19123
       4     C     3.23865  3.23865  0.00000 -0.47730
       5     C     3.26725  3.26725  0.00000 -0.53449
       6     H     0.42294  0.42294  0.00000  0.15412
       7     H     0.42194  0.42194  0.00000  0.15612
       8     H     0.41084  0.41084  0.00000  0.17833
       9     H     0.42559  0.42559  0.00000  0.14881
      10     H     0.41986  0.41986  0.00000  0.16028
      11     H     0.41564  0.41564  0.00000  0.16872
      12     H     0.41359  0.41359  0.00000  0.17282

   Total alpha = 17.00000, Total beta = 17.00000, Total charge = -0.00000
