                              Psi4 1.0.54 Driver

  ==> Input File <==

--------------------------------------------------------------------------
set {
	reference rhf
	basis cc-pvtz
}

set_num_threads( 4 )
memory 2 gb

molecule MOL {
0 1

H	 3.083659	 -1.378387	 0.000000
O	 2.179005	 -1.633391	 0.000000
C	 1.366950	 -0.558201	 0.000000
C	 1.841867	 0.728537	 -0.203565
C	 0.020063	 -0.770221	 0.212045
H	 2.891396	 0.891889	 -0.368598
C	 0.970350	 1.798740	 -0.194668
H	 -0.349821	 -1.762801	 0.369571
C	 -0.846389	 0.308006	 0.219376
H	 1.349175	 2.789778	 -0.353288
C	 -0.378458	 1.595176	 0.016749
C	 -2.299505	 0.093139	 0.446671
H	 -1.058562	 2.425412	 0.024214
O	 -2.804656	 -0.960771	 0.629747
H	 -2.903952	 1.005335	 0.434781

	symmetry c1
}
set optking {
	frozen_dihedral = ("
		4 3 2 1
	")
}

ee,wfn = optimize('scf', return_wfn=True)
oeprop( wfn, 'DIPOLE', 'QUADRUPOLE', 'MULLIKEN_CHARGES')
f=open( 'psi4out.xyz', 'w' )
f.write( "15  " )
f.write( str(ee) + "\n" )
f.write( MOL.save_string_xyz() )
f.close()
--------------------------------------------------------------------------

    Molecular point group: c1
  Charge       = 0
  Multiplicity = 1
  Basis Set: CC-PVTZ
  Basis Set:
  @DF-RHF Final Energy:  -418.43877032291033
    Total Energy =                       -418.4387703229099316
    Molecular point group: c1
  Basis Set: CC-PVTZ
  Basis Set:
  Basis Set: CC-PVTZ
  Basis Set:
  @DF-RHF Final Energy:  -418.43877520402833
    Total Energy =                       -418.4387752040283885
  Basis Set: CC-PVTZ
  Basis Set:
  Basis Set: CC-PVTZ
  Basis Set:
  @DF-RHF Final Energy:  -418.43878793962557
    Total Energy =                       -418.4387879396252856
  Basis Set: CC-PVTZ
  Basis Set:
  Basis Set: CC-PVTZ
  Basis Set:
  @DF-RHF Final Energy:  -418.43872141425726
    Total Energy =                       -418.4387214142570883
  Basis Set: CC-PVTZ
  Basis Set:
  Basis Set: CC-PVTZ
  Basis Set:
  @DF-RHF Final Energy:  -418.43878859751783
    Total Energy =                       -418.4387885975178278
  Basis Set: CC-PVTZ
  Basis Set:
  Charge       = 0
  Multiplicity = 1
  Basis Set: CC-PVTZ
  Basis Set:

    Orbital Energies (a.u.)
    -----------------------

    Doubly Occupied:

       1A    -20.595384     2A    -20.554378     3A    -11.327469
       4A    -11.311614     5A    -11.251050     6A    -11.250669
       7A    -11.247769     8A    -11.243378     9A    -11.237375
      10A     -1.427030    11A     -1.410140    12A     -1.174341
      13A     -1.052132    14A     -1.030975    15A     -0.902681
      16A     -0.850205    17A     -0.816732    18A     -0.740380
      19A     -0.706206    20A     -0.690016    21A     -0.644585
      22A     -0.640617    23A     -0.614974    24A     -0.609448
      25A     -0.577990    26A     -0.556857    27A     -0.545916
      28A     -0.516187    29A     -0.492711    30A     -0.426806
      31A     -0.358323    32A     -0.331267

  @DF-RHF Final Energy:  -418.43878883018817

   => Energetics <=

    Nuclear Repulsion Energy =            404.0887617466750044
    One-Electron Energy =               -1370.7838875122852187
    Two-Electron Energy =                 548.2563369354218139
    DFT Exchange-Correlation Energy =       0.0000000000000000
    Empirical Dispersion Energy =           0.0000000000000000
    PCM Polarization Energy =               0.0000000000000000
    EFP Energy =                            0.0000000000000000
    Total Energy =                       -418.4387888301884004
    Molecular point group: c1
  Basis Set: CC-PVTZ
  Basis Set:

  -Total Gradient:
     Atom            X                  Y                   Z
    ------   -----------------  -----------------  -----------------
       1        0.000019844789     0.000000262326     0.000814455407
       2       -0.000080154712    -0.000046224256    -0.001356538659
       3        0.000242433501     0.000178306397     0.001133050571
       4       -0.000072434581    -0.000175743352    -0.000575563621
       5       -0.000106268598     0.000045487539     0.000001076884
       6       -0.000000325925     0.000007388896     0.000003267514
       7       -0.000120405261     0.000031239004    -0.000047838716
       8        0.000008006830    -0.000004496806     0.000004503413
       9        0.000006357591    -0.000113299737    -0.000014426241
      10        0.000007539757    -0.000001863476     0.000005825842
      11        0.000096689268     0.000076384247     0.000034908260
      12        0.000008381018     0.000018051482    -0.000000268801
      13       -0.000004756421    -0.000003531936     0.000000011177
      14       -0.000003345426    -0.000012965723     0.000000837042
      15       -0.000001561832     0.000001005396    -0.000003300072

  **** Optimization is complete! (in 6 steps) ****
    Final optimized geometry and variables:
    Molecular point group: c1

    Geometry (in Angstrom), charge = 0, multiplicity = 1:

    H            3.074568453812    -1.385612071892    -0.149686927367
    O            2.169888751507    -1.640783753542    -0.136497612616
    C            1.358158985020    -0.565016161917    -0.126363944782
    C            1.832099340450     0.721168228387    -0.338556969514
    C            0.011668542381    -0.776859742834     0.085358936806
    H            2.880763586733     0.882927056861    -0.510617285145
    C            0.960860908634     1.791138391086    -0.330850050279
    H           -0.357950578513    -1.768966580407     0.246998033012
    C           -0.855712348870     0.301188108307     0.087218856057
    H            1.338924788417     2.781753961086    -0.493929083584
    C           -0.388266405654     1.587623350537    -0.118422332003
    C           -2.308928849532     0.086534927485     0.314841194037
    H           -1.068619321419     2.417741623466    -0.113661425835
    O           -2.813596095130    -0.966721781756     0.502185823666
    H           -2.913322989536     0.998932056918     0.298687998103

  Mulliken Charges: (a.u.)
   Center  Symbol    Alpha    Beta     Spin     Total
       1     H     0.38713  0.38713  0.00000  0.22573
       2     O     4.17029  4.17029  0.00000 -0.34058
       3     C     2.84277  2.84277  0.00000  0.31447
       4     C     3.12573  3.12573  0.00000 -0.25145
       5     C     3.11866  3.11866  0.00000 -0.23732
       6     H     0.43066  0.43066  0.00000  0.13869
       7     C     3.06299  3.06299  0.00000 -0.12597
       8     H     0.40480  0.40480  0.00000  0.19039
       9     C     2.97076  2.97076  0.00000  0.05847
      10     H     0.41937  0.41937  0.00000  0.16126
      11     C     3.10927  3.10927  0.00000 -0.21854
      12     C     2.90900  2.90900  0.00000  0.18199
      13     H     0.42324  0.42324  0.00000  0.15351
      14     O     4.16885  4.16885  0.00000 -0.33769
      15     H     0.45648  0.45648  0.00000  0.08704

   Total alpha = 32.00000, Total beta = 32.00000, Total charge = -0.00000

*** Psi4 exiting successfully. Buy a developer a beer!
