                              Psi4 1.0.54 Driver

  ==> Input File <==

--------------------------------------------------------------------------
set {
	reference rhf
	basis cc-pvtz
}

set_num_threads( 4 )
memory 2 gb

molecule MOL {
0 1

H	 -3.409525	 -0.219859	 -0.309654
O	 -2.658848	 -0.704215	 -0.000460
C	 -1.605397	 0.107680	 0.001145
C	 -0.310616	 -0.658853	 0.000791
O	 -1.718351	 1.284629	 -0.000627
C	 0.926581	 0.227233	 0.000178
H	 -0.327628	 -1.313681	 -0.864448
H	 -0.327041	 -1.313334	 0.866298
C	 2.220156	 -0.582071	 -0.000088
H	 0.899945	 0.878221	 -0.866390
H	 0.900542	 0.878581	 0.866486
C	 3.466689	 0.296012	 -0.000457
H	 2.239073	 -1.234095	 -0.869382
H	 2.239505	 -1.233985	 0.869270
H	 3.493549	 0.935857	 -0.875887
H	 4.368821	 -0.304526	 -0.001199
H	 3.494559	 0.935166	 0.875458

	symmetry c1
}
set optking {
	frozen_dihedral = ("
		1 2 3 5
	")
}

ee,wfn = optimize('scf', return_wfn=True)
oeprop( wfn, 'DIPOLE', 'QUADRUPOLE', 'MULLIKEN_CHARGES')
f=open( 'psi4out.xyz', 'w' )
f.write( "17  " )
f.write( str(ee) + "\n" )
f.write( MOL.save_string_xyz() )
f.close()
--------------------------------------------------------------------------

    Molecular point group: c1
  Charge       = 0
  Multiplicity = 1
  Basis Set: CC-PVTZ
  Basis Set:
  @DF-RHF Final Energy:  -345.04656396094822
    Total Energy =                       -345.0465639609480490
    Molecular point group: c1
  Basis Set: CC-PVTZ
  Basis Set:
  Basis Set: CC-PVTZ
  Basis Set:
  @DF-RHF Final Energy:  -345.04302472465179
    Total Energy =                       -345.0430247246517297
  Basis Set: CC-PVTZ
  Basis Set:
  Basis Set: CC-PVTZ
  Basis Set:
  @DF-RHF Final Energy:  -345.04674643345379
    Total Energy =                       -345.0467464334536771
  Basis Set: CC-PVTZ
  Basis Set:
  Basis Set: CC-PVTZ
  Basis Set:
  @DF-RHF Final Energy:  -345.04680576770215
    Total Energy =                       -345.0468057677026081
  Basis Set: CC-PVTZ
  Basis Set:
  Basis Set: CC-PVTZ
  Basis Set:
  @DF-RHF Final Energy:  -345.04681294966059
    Total Energy =                       -345.0468129496605911
  Basis Set: CC-PVTZ
  Basis Set:
  Basis Set: CC-PVTZ
  Basis Set:
  @DF-RHF Final Energy:  -345.04681693495394
    Total Energy =                       -345.0468169349539949
  Basis Set: CC-PVTZ
  Basis Set:
  Charge       = 0
  Multiplicity = 1
  Basis Set: CC-PVTZ
  Basis Set:

    Orbital Energies (a.u.)
    -----------------------

    Doubly Occupied:

       1A    -20.602473     2A    -20.541640     3A    -11.373802
       4A    -11.239251     5A    -11.221268     6A    -11.220644
       7A    -11.210692     8A     -1.475822     9A     -1.369582
      10A     -1.092797    11A     -1.019636    12A     -0.914507
      13A     -0.824902    14A     -0.791318    15A     -0.704491
      16A     -0.687291    17A     -0.670938    18A     -0.632773
      19A     -0.593053    20A     -0.585754    21A     -0.570865
      22A     -0.538694    23A     -0.509563    24A     -0.486882
      25A     -0.481726    26A     -0.478055    27A     -0.472693
      28A     -0.446138

  @DF-RHF Final Energy:  -345.04681653388798

   => Energetics <=

    Nuclear Repulsion Energy =            304.7138854721465577
    One-Electron Energy =               -1074.0069001428751108
    Two-Electron Energy =                 424.2461981368406896
    DFT Exchange-Correlation Energy =       0.0000000000000000
    Empirical Dispersion Energy =           0.0000000000000000
    PCM Polarization Energy =               0.0000000000000000
    EFP Energy =                            0.0000000000000000
    Total Energy =                       -345.0468165338878634
    Molecular point group: c1
  Basis Set: CC-PVTZ
  Basis Set:

  -Total Gradient:
     Atom            X                  Y                   Z
    ------   -----------------  -----------------  -----------------
       1        0.000904481617    -0.002111536105    -0.006485231795
       2       -0.001014301965     0.002680157308     0.011002616883
       3       -0.000333729147    -0.001087859227    -0.011000029174
       4        0.000025928557     0.000011550445     0.000043488128
       5        0.000458877430     0.000470932458     0.006357922976
       6       -0.000014395987     0.000017544330     0.000042318467
       7       -0.000012323959    -0.000010595018     0.000027004058
       8       -0.000005415761     0.000028847388     0.000035904071
       9       -0.000002647563    -0.000010156696    -0.000007551197
      10       -0.000002950533     0.000002232094    -0.000011388996
      11        0.000003745550     0.000008951071    -0.000002310335
      12       -0.000007677327     0.000005968751    -0.000000374476
      13        0.000003767064    -0.000003468797    -0.000001688774
      14       -0.000002171137    -0.000001346332     0.000000787691
      15        0.000002163005     0.000001578331    -0.000001563341
      16       -0.000002929978    -0.000003133850    -0.000000108763
      17       -0.000000419870     0.000000333858     0.000000204575

  **** Optimization is complete! (in 7 steps) ****
    Final optimized geometry and variables:
    Molecular point group: c1

    Geometry (in Angstrom), charge = 0, multiplicity = 1:

    H           -3.433147504850    -0.233780086345    -0.207537360697
    O           -2.659879650871    -0.700263024167     0.071089527258
    C           -1.605676335433     0.109348474005    -0.034042345000
    C           -0.311323547432    -0.657242312850    -0.016210701969
    O           -1.716085833036     1.284811341727    -0.081245336936
    C            0.926593007065     0.227354824813     0.006484220658
    H           -0.315471160275    -1.306583380517    -0.886204065483
    H           -0.342861872465    -1.317714384582     0.844054528297
    C            2.219311916102    -0.583195184551     0.019198137464
    H            0.912644764966     0.884276086686    -0.855725778745
    H            0.889078150116     0.872770166617     0.877035749406
    C            3.466472709398     0.293638613675     0.042543218661
    H            2.249978216775    -1.229179502397    -0.854286140054
    H            2.225743417580    -1.241082230875     0.884200758839
    H            3.506531135659     0.939145466592    -0.828224364252
    H            4.367979235725    -0.307788593832     0.050949717700
    H            3.482214935371     0.927034072894     0.922921190970

  Mulliken Charges: (a.u.)
   Center  Symbol    Alpha    Beta     Spin     Total
       1     H     0.38147  0.38147  0.00000  0.23705
       2     O     4.16265  4.16265  0.00000 -0.32530
       3     C     2.80507  2.80507  0.00000  0.38986
       4     C     3.11062  3.11062  0.00000 -0.22124
       5     O     4.18799  4.18799  0.00000 -0.37597
       6     C     3.08233  3.08233  0.00000 -0.16467
       7     H     0.43989  0.43989  0.00000  0.12022
       8     H     0.43745  0.43745  0.00000  0.12510
       9     C     3.08589  3.08589  0.00000 -0.17179
      10     H     0.44586  0.44586  0.00000  0.10827
      11     H     0.44653  0.44653  0.00000  0.10695
      12     C     3.14923  3.14923  0.00000 -0.29845
      13     H     0.45499  0.45499  0.00000  0.09002
      14     H     0.45468  0.45468  0.00000  0.09064
      15     H     0.45371  0.45371  0.00000  0.09259
      16     H     0.44802  0.44802  0.00000  0.10397
      17     H     0.45362  0.45362  0.00000  0.09276

   Total alpha = 28.00000, Total beta = 28.00000, Total charge =  0.00000

*** Psi4 exiting successfully. Buy a developer a beer!
