  ==> Input File <==

--------------------------------------------------------------------------
set {
	reference rhf
	basis 6-31G*
}

set_num_threads( 4 )
memory 2 gb

molecule MOL {
0 1

O	 -0.314731	 0.305757	 0.868785
C	 0.486307	 0.169203	 0.000779
C	 1.608116	 -0.841643	 0.000302
O	 0.500004	 0.904193	 -1.102494
C	 2.990107	 -0.200498	 -0.000684
H	 1.468623	 -1.481519	 -0.865924
H	 1.469683	 -1.481289	 0.866878
H	 3.129736	 0.423364	 -0.875135
H	 3.757882	 -0.966877	 -0.001197
H	 3.130964	 0.423383	 0.873533
C	 -0.504554	 1.903947	 -1.239440
C	 -0.275877	 2.598451	 -2.565216
H	 -0.431414	 2.593203	 -0.409282
H	 -1.477724	 1.434148	 -1.196779
H	 0.704998	 3.059111	 -2.594087
H	 -1.023018	 3.371908	 -2.710795
H	 -0.347078	 1.893801	 -3.385981

	symmetry c1
}
set optking {
	frozen_dihedral = ("
		4 2 3 6
	")
}

ee = optimize('scf')
oeprop('DIPOLE', 'QUADRUPOLE', 'MULLIKEN_CHARGES')
f=open( 'psi4out.xyz', 'w' )
f.write( "17  " )
f.write( str(ee) + "\n" )
f.write( MOL.save_string_xyz() )
f.close()
--------------------------------------------------------------------------

    Molecular point group: c1
  Charge       = 0
  Multiplicity = 1
  Basis Set: 6-31G*
  Basis Set:
  @DF-RHF Final Energy:  -344.91016158869405
    Total Energy =                       -344.9101615886944501
    Molecular point group: c1
  Basis Set: 6-31G*
  Basis Set:
  Basis Set: 6-31G*
  Basis Set:
  @DF-RHF Final Energy:  -344.91045164240035
    Total Energy =                       -344.9104516424000622
  Basis Set: 6-31G*
  Basis Set:
  Basis Set: 6-31G*
  Basis Set:
  @DF-RHF Final Energy:  -344.91044266416998
    Total Energy =                       -344.9104426641698069
  Basis Set: 6-31G*
  Basis Set:
  Basis Set: 6-31G*
  Basis Set:
  @DF-RHF Final Energy:  -344.91044535554011
    Total Energy =                       -344.9104453555402756
  Basis Set: 6-31G*
  Basis Set:
  Basis Set: 6-31G*
  Basis Set:
  @DF-RHF Final Energy:  -344.91046085822524
    Total Energy =                       -344.9104608582253491
  Basis Set: 6-31G*
  Basis Set:
  Charge       = 0
  Multiplicity = 1
  Basis Set: 6-31G*
  Basis Set:

    Orbital Energies (a.u.)
    -----------------------

    Doubly Occupied:

       1A    -20.601465     2A    -20.542845     3A    -11.370336
       4A    -11.284916     5A    -11.236636     6A    -11.225208
       7A    -11.222640     8A     -1.467123     9A     -1.360626
      10A     -1.073055    11A     -1.030439    12A     -0.907124
      13A     -0.856930    14A     -0.777561    15A     -0.692350
      16A     -0.679296    17A     -0.670629    18A     -0.620480
      19A     -0.592256    20A     -0.573273    21A     -0.553206
      22A     -0.542554    23A     -0.525776    24A     -0.509073
      25A     -0.504391    26A     -0.496032    27A     -0.451739
      28A     -0.431256

  @DF-RHF Final Energy:  -344.91046079950246

   => Energetics <=

    Nuclear Repulsion Energy =            317.1031517069279175
    One-Electron Energy =               -1098.4287921686939171
    Two-Electron Energy =                 436.4151796622638813
    DFT Exchange-Correlation Energy =       0.0000000000000000
    Empirical Dispersion Energy =           0.0000000000000000
    PCM Polarization Energy =               0.0000000000000000
    EFP Energy =                            0.0000000000000000
    Total Energy =                       -344.9104607995020615
    Molecular point group: c1
  Basis Set: 6-31G*
  Basis Set:

  -Total Gradient:
     Atom            X                  Y                   Z
    ------   -----------------  -----------------  -----------------
       1       -0.000003917864     0.000028358425    -0.000075144146
       2       -0.000060872872    -0.000105404568     0.000079443764
       3        0.000176228589     0.000163514800    -0.000076445962
       4        0.000036831275     0.000096067892     0.000067915929
       5       -0.000036270170    -0.000047544863    -0.000020528246
       6       -0.000061263655    -0.000101240088     0.000063725077
       7       -0.000017417662    -0.000030748471     0.000016936274
       8        0.000024828918     0.000014108499    -0.000018408904
       9       -0.000002807855     0.000014628475    -0.000001801931
      10       -0.000027766681    -0.000011460291     0.000000634188
      11       -0.000081507060    -0.000101556008    -0.000079258934
      12        0.000015841001     0.000041042989     0.000014078971
      13        0.000020992654     0.000007843339     0.000026729447
      14        0.000012784727     0.000027572692     0.000003936657
      15        0.000003511886     0.000006004982    -0.000013457981
      16        0.000003908794     0.000005016464    -0.000002515505
      17       -0.000003104027    -0.000006204267     0.000014161300

  **** Optimization is complete! (in 6 steps) ****
    Final optimized geometry and variables:
    Molecular point group: c1

    Geometry (in Angstrom), charge = 0, multiplicity = 1:

    O           -0.963727918798    -0.414363367643     1.445233627568
    C           -0.153788690404    -0.544080311350     0.584167840922
    C            0.967712195370    -1.554483804989     0.599998637227
    O           -0.136429662504     0.196496536229    -0.516014325477
    C            2.353395542750    -0.901609034895     0.569415490319
    H            0.847559050612    -2.200263827305    -0.264403559731
    H            0.842349530212    -2.155329794360     1.490634835626
    H            2.493193230421    -0.322996494295    -0.335068363728
    H            3.124024968128    -1.663392460851     0.608691111692
    H            2.492967873008    -0.243627851377     1.421024888662
    C           -1.141368869953     1.195842378879    -0.652554479974
    C           -0.901727108617     1.904287153640    -1.968980432055
    H           -1.077428251543     1.876470421099     0.185370118358
    H           -2.113723719887     0.723499752890    -0.623707597440
    H            0.078252432695     2.367712265569    -1.984012810482
    H           -1.649241512351     2.677521520367    -2.113800053727
    H           -0.963585907941     1.207947677059    -2.797546206745

  Mulliken Charges: (a.u.)
   Center  Symbol    Alpha    Beta     Spin     Total
       1     O     4.28585  4.28585  0.00000 -0.57171
       2     C     2.61254  2.61254  0.00000  0.77491
       3     C     3.19687  3.19687  0.00000 -0.39374
       4     O     4.30962  4.30962  0.00000 -0.61925
       5     C     3.24927  3.24927  0.00000 -0.49854
       6     H     0.40390  0.40390  0.00000  0.19221
       7     H     0.39824  0.39824  0.00000  0.20353
       8     H     0.40685  0.40685  0.00000  0.18630
       9     H     0.41283  0.41283  0.00000  0.17434
      10     H     0.41296  0.41296  0.00000  0.17407
      11     C     3.00206  3.00206  0.00000 -0.00412
      12     C     3.24867  3.24867  0.00000 -0.49735
      13     H     0.41007  0.41007  0.00000  0.17986
      14     H     0.41007  0.41007  0.00000  0.17987
      15     H     0.41218  0.41218  0.00000  0.17563
      16     H     0.41614  0.41614  0.00000  0.16772
      17     H     0.41187  0.41187  0.00000  0.17625

   Total alpha = 28.00000, Total beta = 28.00000, Total charge =  0.00000
