  ==> Input File <==

--------------------------------------------------------------------------
set {
	reference rhf
	basis 6-31G*
}

set_num_threads( 1 )
memory 2 gb

molecule MOL {
0 1

H	 -2.646374	 -0.642757	 1.268656
C	 -2.083525	 -0.384536	 0.393091
O	 -0.807605	 -0.127164	 0.768327
F	 -2.118945	 -1.383102	 -0.486752
F	 -2.621877	 0.670592	 -0.209486
C	 0.209196	 -0.744284	 0.062661
C	 1.181818	 -1.311441	 1.088575
Cl	 1.028617	 0.409330	 -1.002673
H	 -0.149222	 -1.554621	 -0.547802
F	 2.176067	 -1.929090	 0.486812
F	 0.545376	 -2.191572	 1.835401
F	 1.673777	 -0.381780	 1.870675

	symmetry c1
}
set optking {
	frozen_dihedral = ("
		10 7 6 9,
		9 6 3 2
	")
}

ee = energy('scf')
oeprop('DIPOLE', 'QUADRUPOLE', 'MULLIKEN_CHARGES')
f=open( 'psi4out.xyz', 'w' )
f.write( "12  " )
f.write( str(ee) + "\n" )
f.write( MOL.save_string_xyz() )
f.close()
--------------------------------------------------------------------------

    Molecular point group: c1

    Geometry (in Angstrom), charge = 0, multiplicity = 1:

       Center              X                  Y                   Z               Mass
    ------------   -----------------  -----------------  -----------------  -----------------
           H         -2.675500769504     0.000243057434     0.926667113538     1.007825032070
           C         -2.112651769504     0.258464057434     0.051102113538    12.000000000000
           O         -0.836731769504     0.515836057434     0.426338113538    15.994914619560
           F         -2.148071769504    -0.740101942566    -0.828740886462    18.998403224000
           F         -2.651003769504     1.313592057434    -0.551474886462    18.998403224000
           C          0.180069230496    -0.101283942566    -0.279327886462    12.000000000000
           C          1.152691230496    -0.668440942566     0.746586113538    12.000000000000
          CL          0.999490230496     1.052330057434    -1.344661886462    34.968852682000
           H         -0.178348769504    -0.911620942566    -0.889790886462     1.007825032070
           F          2.146940230496    -1.286089942566     0.144823113538    18.998403224000
           F          0.516249230496    -1.548571942566     1.493412113538    18.998403224000
           F          1.644650230496     0.261220057434     1.528686113538    18.998403224000

  Charge       = 0
  Multiplicity = 1
  Basis Set: 6-31G*
  Basis Set:

    Orbital Energies (a.u.)
    -----------------------

    Doubly Occupied:

       1A   -104.842280     2A    -26.362145     3A    -26.360827
       4A    -26.358455     5A    -26.357602     6A    -26.340022
       7A    -20.649547     8A    -11.527691     9A    -11.491504
      10A    -11.397795    11A    -10.577021    12A     -8.046372
      13A     -8.042860    14A     -8.042749    15A     -1.762447
      16A     -1.721905    17A     -1.659036    18A     -1.657706
      19A     -1.640800    20A     -1.486788    21A     -1.179003
      22A     -1.051544    23A     -0.987825    24A     -0.919984
      25A     -0.862715    26A     -0.853024    27A     -0.848110
      28A     -0.825417    29A     -0.820802    30A     -0.794188
      31A     -0.728937    32A     -0.727456    33A     -0.705317
      34A     -0.696563    35A     -0.680794    36A     -0.676122
      37A     -0.661434    38A     -0.659506    39A     -0.642216
      40A     -0.634014    41A     -0.602869    42A     -0.584684
      43A     -0.518022    44A     -0.474680    45A     -0.466992

  @DF-RHF Final Energy: -1146.30679055929522

   => Energetics <=

    Nuclear Repulsion Energy =            735.1609437918504000
    One-Electron Energy =               -3053.0796467587615552
    Two-Electron Energy =                1171.6119124076162734
    DFT Exchange-Correlation Energy =       0.0000000000000000
    Empirical Dispersion Energy =           0.0000000000000000
    PCM Polarization Energy =               0.0000000000000000
    EFP Energy =                            0.0000000000000000
    Total Energy =                      -1146.3067905592947682

  Mulliken Charges: (a.u.)
   Center  Symbol    Alpha    Beta     Spin     Total
       1     H     0.40743  0.40743  0.00000  0.18513
       2     C     2.56159  2.56159  0.00000  0.87682
       3     O     4.30328  4.30328  0.00000 -0.60657
       4     F     4.68619  4.68619  0.00000 -0.37237
       5     F     4.67691  4.67691  0.00000 -0.35382
       6     C     3.05139  3.05139  0.00000 -0.10279
       7     C     2.43300  2.43300  0.00000  1.13399
       8    CL     8.50150  8.50150  0.00000 -0.00299
       9     H     0.35774  0.35774  0.00000  0.28453
      10     F     4.67399  4.67399  0.00000 -0.34798
      11     F     4.67842  4.67842  0.00000 -0.35684
      12     F     4.66856  4.66856  0.00000 -0.33711

   Total alpha = 45.00000, Total beta = 45.00000, Total charge =  0.00000
