  ==> Input File <==

--------------------------------------------------------------------------
set {
	reference rhf
	basis 6-31G*
}

set_num_threads( 4 )
memory 2 gb

molecule MOL {
0 1

H	 3.463771	 0.168298	 -0.756243
C	 2.752674	 -0.045734	 0.033351
C	 1.322923	 0.120767	 -0.479465
H	 2.934561	 -1.059086	 0.377456
H	 2.958358	 0.631174	 0.856809
C	 0.306652	 -0.176050	 0.621399
H	 1.144658	 -0.551717	 -1.312180
H	 1.166477	 1.131798	 -0.836680
N	 -1.068537	 -0.011044	 0.085269
H	 0.372515	 -1.192590	 0.973735
H	 0.391664	 0.520566	 1.441230
O	 -1.949920	 0.154369	 0.870874
O	 -1.200619	 -0.087895	 -1.098231

	symmetry c1
}
set optking {
	frozen_dihedral = ("
		12 9 6 3
	")
}

ee = optimize('scf')
oeprop('DIPOLE', 'QUADRUPOLE', 'MULLIKEN_CHARGES')
f=open( 'psi4out.xyz', 'w' )
f.write( "13  " )
f.write( str(ee) + "\n" )
f.write( MOL.save_string_xyz() )
f.close()
--------------------------------------------------------------------------

    Molecular point group: c1
  Charge       = 0
  Multiplicity = 1
  Basis Set: 6-31G*
  Basis Set:
  @DF-RHF Final Energy:  -321.73342438051895
    Total Energy =                       -321.7334243805190681
    Molecular point group: c1
  Basis Set: 6-31G*
  Basis Set:
  Basis Set: 6-31G*
  Basis Set:
  @DF-RHF Final Energy:  -321.73433733388578
    Total Energy =                       -321.7343373338859465
  Basis Set: 6-31G*
  Basis Set:
  Basis Set: 6-31G*
  Basis Set:
  @DF-RHF Final Energy:  -321.73492384549684
    Total Energy =                       -321.7349238454969509
  Basis Set: 6-31G*
  Basis Set:
  Basis Set: 6-31G*
  Basis Set:
  @DF-RHF Final Energy:  -321.73218128844303
    Total Energy =                       -321.7321812884431438
  Basis Set: 6-31G*
  Basis Set:
  @DF-RHF Final Energy:  -321.73501401922283
    Total Energy =                       -321.7350140192227173
  Basis Set: 6-31G*
  Basis Set:
  @DF-RHF Final Energy:  -321.73506002069200
    Total Energy =                       -321.7350600206922309
  Basis Set: 6-31G*
  Basis Set:
  Basis Set: 6-31G*
  Basis Set:
  @DF-RHF Final Energy:  -321.73506894827608
    Total Energy =                       -321.7350689482759662
  Basis Set: 6-31G*
  Basis Set:
  Basis Set: 6-31G*
  Basis Set:
  @DF-RHF Final Energy:  -321.73507184608303
    Total Energy =                       -321.7350718460832013
  Basis Set: 6-31G*
  Basis Set:
  Charge       = 0
  Multiplicity = 1
  Basis Set: 6-31G*
  Basis Set:

    Orbital Energies (a.u.)
    -----------------------

    Doubly Occupied:

       1A    -20.603296     2A    -20.599433     3A    -15.848736
       4A    -11.301015     5A    -11.250323     6A    -11.237690
       7A     -1.631967     8A     -1.417247     9A     -1.133082
      10A     -1.027429    11A     -0.884733    12A     -0.826288
      13A     -0.760421    14A     -0.747569    15A     -0.725668
      16A     -0.657996    17A     -0.607193    18A     -0.578205
      19A     -0.552662    20A     -0.522915    21A     -0.510156
      22A     -0.484976    23A     -0.473108    24A     -0.449086

  @DF-RHF Final Energy:  -321.73507212193095

   => Energetics <=

    Nuclear Repulsion Energy =            247.0468142946287458
    One-Electron Energy =                -927.9013778643575279
    Two-Electron Energy =                 359.1194914477977136
    DFT Exchange-Correlation Energy =       0.0000000000000000
    Empirical Dispersion Energy =           0.0000000000000000
    PCM Polarization Energy =               0.0000000000000000
    EFP Energy =                            0.0000000000000000
    Total Energy =                       -321.7350721219310117
    Molecular point group: c1
  Basis Set: 6-31G*
  Basis Set:

  -Total Gradient:
     Atom            X                  Y                   Z
    ------   -----------------  -----------------  -----------------
       1       -0.000002036517     0.000005106259     0.000000336538
       2        0.000000631774     0.000011375442     0.000008437691
       3       -0.000014017211    -0.000168026947    -0.000045106096
       4        0.000000863035    -0.000002454808    -0.000005717129
       5       -0.000001694309    -0.000004775999     0.000002959426
       6       -0.000003004620     0.000106815046     0.000055132734
       7       -0.000010115500    -0.000008660302     0.000021100063
       8        0.000004177178     0.000010933967    -0.000015460110
       9        0.000059650395     0.000373120322    -0.000041035844
      10        0.000016797528    -0.000017625617     0.000010795639
      11       -0.000010421969    -0.000005461487    -0.000017850235
      12       -0.000043495034    -0.000262903409     0.000013671601
      13        0.000002665262    -0.000037442468     0.000012735727

  **** Optimization is complete! (in 9 steps) ****
    Final optimized geometry and variables:
    Molecular point group: c1

    Geometry (in Angstrom), charge = 0, multiplicity = 1:

    H            3.510528679174     0.168811918453    -0.732380624966
    C            2.775481323457    -0.034459504397     0.037839736729
    C            1.361199996864     0.117803788706    -0.524258359599
    H            2.951295957469    -1.041725573116     0.403701838223
    H            2.956210573458     0.654638897134     0.857229477292
    C            0.326860184894    -0.165348600655     0.552059626078
    H            1.212319091218    -0.558056497626    -1.355672681063
    H            1.218691962502     1.123152794156    -0.905017921994
    N           -1.078698255904    -0.001834766647     0.082113495485
    H            0.374930935137    -1.187945530809     0.905056684570
    H            0.413232989587     0.489846038611     1.404899197161
    O           -1.903013348616     0.155859673055     0.929526182524
    O           -1.297597879235    -0.070596893217    -1.087068179478

  Mulliken Charges: (a.u.)
   Center  Symbol    Alpha    Beta     Spin     Total
       1     H     0.40756  0.40756  0.00000  0.18487
       2     C     3.24999  3.24999  0.00000 -0.49999
       3     C     3.16624  3.16624  0.00000 -0.33248
       4     H     0.41641  0.41641  0.00000  0.16718
       5     H     0.41617  0.41617  0.00000  0.16766
       6     C     3.08862  3.08862  0.00000 -0.17725
       7     H     0.39743  0.39743  0.00000  0.20515
       8     H     0.40482  0.40482  0.00000  0.19037
       9     N     3.22409  3.22409  0.00000  0.55181
      10     H     0.38537  0.38537  0.00000  0.22927
      11     H     0.38604  0.38604  0.00000  0.22793
      12     O     4.22899  4.22899  0.00000 -0.45798
      13     O     4.22827  4.22827  0.00000 -0.45654

   Total alpha = 24.00000, Total beta = 24.00000, Total charge = -0.00000
