  ==> Input File <==

--------------------------------------------------------------------------
set {
	reference rhf
	basis 6-31G*
}

set_num_threads( 4 )
memory 2 gb

molecule MOL {
0 1

H	 2.556984	 -0.744720	 -1.339800
O	 1.837737	 -1.063965	 -0.803560
C	 0.867098	 -0.151320	 -0.827404
C	 -0.318135	 -0.576402	 0.000164
O	 0.966238	 0.861356	 -1.440311
C	 -1.454360	 0.441875	 -0.000474
H	 -0.650709	 -1.538573	 -0.380133
H	 0.041401	 -0.765316	 1.008156
C	 -2.826123	 -0.230780	 0.000056
H	 -1.357605	 1.085198	 -0.868380
H	 -1.357504	 1.086451	 0.866496
H	 -2.959731	 -0.858053	 -0.876869
H	 -3.619374	 0.509403	 -0.000080
H	 -2.959371	 -0.857318	 0.877556

	symmetry c1
}
set optking {
	frozen_dihedral = ("
		7 4 6 10
	")
}

ee = optimize('scf')
oeprop('DIPOLE', 'QUADRUPOLE', 'MULLIKEN_CHARGES')
f=open( 'psi4out.xyz', 'w' )
f.write( "14  " )
f.write( str(ee) + "\n" )
f.write( MOL.save_string_xyz() )
f.close()
--------------------------------------------------------------------------

    Molecular point group: c1
  Charge       = 0
  Multiplicity = 1
  Basis Set: 6-31G*
  Basis Set:
  @DF-RHF Final Energy:  -305.87735211658651
    Total Energy =                       -305.8773521165865077
    Molecular point group: c1
  Basis Set: 6-31G*
  Basis Set:
  Basis Set: 6-31G*
  Basis Set:
  @DF-RHF Final Energy:  -305.87763014402049
    Total Energy =                       -305.8776301440203724
  Basis Set: 6-31G*
  Basis Set:
  Basis Set: 6-31G*
  Basis Set:
  @DF-RHF Final Energy:  -305.87759285234836
    Total Energy =                       -305.8775928523485845
  Basis Set: 6-31G*
  Basis Set:
  Basis Set: 6-31G*
  Basis Set:
  @DF-RHF Final Energy:  -305.87770051695844
    Total Energy =                       -305.8777005169586118
  Basis Set: 6-31G*
  Basis Set:
  Basis Set: 6-31G*
  Basis Set:
  @DF-RHF Final Energy:  -305.87770818167121
    Total Energy =                       -305.8777081816714372
  Basis Set: 6-31G*
  Basis Set:
  Basis Set: 6-31G*
  Basis Set:
  @DF-RHF Final Energy:  -305.87770943388432
    Total Energy =                       -305.8777094338841493
  Basis Set: 6-31G*
  Basis Set:
  Charge       = 0
  Multiplicity = 1
  Basis Set: 6-31G*
  Basis Set:

    Orbital Energies (a.u.)
    -----------------------

    Doubly Occupied:

       1A    -20.613361     2A    -20.552803     3A    -11.382656
       4A    -11.241076     5A    -11.224366     6A    -11.216949
       7A     -1.475710     8A     -1.366690     9A     -1.080847
      10A     -0.980042    11A     -0.857934    12A     -0.791140
      13A     -0.700873    14A     -0.691778    15A     -0.662234
      16A     -0.613942    17A     -0.595379    18A     -0.571165
      19A     -0.549346    20A     -0.501923    21A     -0.491604
      22A     -0.480251    23A     -0.477225    24A     -0.446391

  @DF-RHF Final Energy:  -305.87770945878788

   => Energetics <=

    Nuclear Repulsion Energy =            239.9097083819580973
    One-Electron Energy =                -892.4434600315717034
    Two-Electron Energy =                 346.6560421908257581
    DFT Exchange-Correlation Energy =       0.0000000000000000
    Empirical Dispersion Energy =           0.0000000000000000
    PCM Polarization Energy =               0.0000000000000000
    EFP Energy =                            0.0000000000000000
    Total Energy =                       -305.8777094587878196
    Molecular point group: c1
  Basis Set: 6-31G*
  Basis Set:

  -Total Gradient:
     Atom            X                  Y                   Z
    ------   -----------------  -----------------  -----------------
       1       -0.000008616975     0.000004870735     0.000001658313
       2       -0.000003122974    -0.000009820629     0.000012751109
       3        0.000003916532    -0.000000208730    -0.000022030670
       4        0.001615158710     0.001851821939    -0.003825337475
       5       -0.000002155015     0.000009097383     0.000005471401
       6       -0.002758895580    -0.003108685347    -0.001498796383
       7       -0.000892505019    -0.001041394991     0.003403718416
       8        0.000001734162    -0.000001921344    -0.000001654728
       9       -0.000000071843    -0.000004843792     0.000006711722
      10        0.002046554796     0.002297240703     0.001922158478
      11        0.000000030765     0.000004230434    -0.000001703100
      12       -0.000006951769     0.000004755349    -0.000005579414
      13        0.000004764915     0.000000658121     0.000006040527
      14        0.000000159291    -0.000005799830    -0.000003408197

  **** Optimization is complete! (in 7 steps) ****
    Final optimized geometry and variables:
    Molecular point group: c1

    Geometry (in Angstrom), charge = 0, multiplicity = 1:

    H            2.701686280843    -0.611929822848    -0.756650083069
    O            1.965492354150    -0.930138863056    -0.243366296576
    C            0.996308890242    -0.017437615031    -0.300675734013
    C           -0.211710783257    -0.447739571672     0.490557097739
    O            1.118089125010     0.994288503205    -0.911000783756
    C           -1.362090992355     0.566408219099     0.498672423962
    H           -0.531880870755    -1.413938655788     0.110303982474
    H            0.133433869322    -0.655783783162     1.499545277086
    C           -2.735798690443    -0.098469383881     0.552539821514
    H           -1.278000712130     1.213344976893    -0.365429961163
    H           -1.246178517559     1.220854841094     1.357772922112
    H           -2.909247463898    -0.712069549688    -0.326860057563
    H           -3.524244699702     0.645486479501     0.598229451779
    H           -2.833448487994    -0.736948303180     1.426242751560

  Mulliken Charges: (a.u.)
   Center  Symbol    Alpha    Beta     Spin     Total
       1     H     0.26756  0.26756  0.00000  0.46489
       2     O     4.34982  4.34982  0.00000 -0.69963
       3     C     2.62703  2.62703  0.00000  0.74595
       4     C     3.21251  3.21251  0.00000 -0.42502
       5     O     4.27845  4.27845  0.00000 -0.55690
       6     C     3.15801  3.15801  0.00000 -0.31601
       7     H     0.39709  0.39709  0.00000  0.20582
       8     H     0.39661  0.39661  0.00000  0.20678
       9     C     3.24332  3.24332  0.00000 -0.48664
      10     H     0.39739  0.39739  0.00000  0.20522
      11     H     0.41610  0.41610  0.00000  0.16781
      12     H     0.41961  0.41961  0.00000  0.16078
      13     H     0.41532  0.41532  0.00000  0.16935
      14     H     0.42119  0.42119  0.00000  0.15761

   Total alpha = 24.00000, Total beta = 24.00000, Total charge =  0.00000
