                              Psi4 1.0.54 Driver

  ==> Input File <==

--------------------------------------------------------------------------
set {
	reference rhf
	basis cc-pvtz
}

set_num_threads( 4 )
memory 2 gb

molecule MOL {
0 1

H	 0.825702	 1.405809	 -0.689976
O	 0.057669	 1.301365	 -0.158528
C	 0.004145	 -0.005141	 0.363049
C	 1.199168	 -0.827145	 -0.096690
C	 -1.316386	 -0.602081	 -0.083515
H	 0.012026	 0.043363	 1.450619
H	 1.216685	 -0.896776	 -1.178167
H	 2.129940	 -0.372354	 0.228035
H	 1.160783	 -1.829622	 0.314294
H	 -1.357882	 -0.655920	 -1.165207
H	 -2.140147	 0.011735	 0.257253
H	 -1.440790	 -1.601175	 0.317669

	symmetry c1
}
set optking {
	frozen_dihedral = ("
		1 2 3 4
	")
}

ee,wfn = optimize('scf', return_wfn=True)
oeprop( wfn, 'DIPOLE', 'QUADRUPOLE', 'MULLIKEN_CHARGES')
f=open( 'psi4out.xyz', 'w' )
f.write( "12  " )
f.write( str(ee) + "\n" )
f.write( MOL.save_string_xyz() )
f.close()
--------------------------------------------------------------------------

    Molecular point group: c1
  Charge       = 0
  Multiplicity = 1
  Basis Set: CC-PVTZ
  Basis Set:
  @DF-RHF Final Energy:  -193.19339994839328
    Total Energy =                       -193.1933999483932780
    Molecular point group: c1
  Basis Set: CC-PVTZ
  Basis Set:
  Basis Set: CC-PVTZ
  Basis Set:
  @DF-RHF Final Energy:  -193.18589555001500
    Total Energy =                       -193.1858955500149193
  Basis Set: CC-PVTZ
  Basis Set:
  Basis Set: CC-PVTZ
  Basis Set:
  @DF-RHF Final Energy:  -193.19381576715369
    Total Energy =                       -193.1938157671536089
  Basis Set: CC-PVTZ
  Basis Set:
  Basis Set: CC-PVTZ
  Basis Set:
  @DF-RHF Final Energy:  -193.19390329561421
    Total Energy =                       -193.1939032956140636
  Basis Set: CC-PVTZ
  Basis Set:
  Charge       = 0
  Multiplicity = 1
  Basis Set: CC-PVTZ
  Basis Set:

    Orbital Energies (a.u.)
    -----------------------

    Doubly Occupied:

       1A    -20.542069     2A    -11.274059     3A    -11.218065
       4A    -11.204916     5A     -1.362721     6A     -1.044201
       7A     -0.943854     8A     -0.813533     9A     -0.673037
      10A     -0.649080    11A     -0.608525    12A     -0.554624
      13A     -0.545650    14A     -0.519312    15A     -0.515691
      16A     -0.468480    17A     -0.430941

  @DF-RHF Final Energy:  -193.19390388625067

   => Energetics <=

    Nuclear Repulsion Energy =            135.6610222281595384
    One-Electron Energy =                -530.9723350451132546
    Two-Electron Energy =                 202.1174089307030499
    DFT Exchange-Correlation Energy =       0.0000000000000000
    Empirical Dispersion Energy =           0.0000000000000000
    PCM Polarization Energy =               0.0000000000000000
    EFP Energy =                            0.0000000000000000
    Total Energy =                       -193.1939038862506663
    Molecular point group: c1
  Basis Set: CC-PVTZ
  Basis Set:

  -Total Gradient:
     Atom            X                  Y                   Z
    ------   -----------------  -----------------  -----------------
       1       -0.000165660855    -0.000208462334    -0.000324915584
       2        0.000226918209     0.000258391807     0.000495906265
       3       -0.000231971535    -0.000243776152    -0.000348095447
       4        0.000189790039     0.000153692412     0.000199872410
       5       -0.000035756993     0.000051315377    -0.000037962310
       6        0.000022849610    -0.000001058040     0.000010797034
       7       -0.000015467667     0.000013366717     0.000011280468
       8        0.000044967472    -0.000010687209    -0.000016360952
       9       -0.000012235311    -0.000016981541     0.000022694168
      10       -0.000001244797    -0.000008686589    -0.000022802617
      11       -0.000040916933     0.000014600244    -0.000004145714
      12        0.000018728760    -0.000001714690     0.000013732279

  **** Optimization is complete! (in 5 steps) ****
    Final optimized geometry and variables:
    Molecular point group: c1

    Geometry (in Angstrom), charge = 0, multiplicity = 1:

    H            0.990839412906     1.190270274073    -0.904029983814
    O            0.185010275924     1.244945569517    -0.426540884391
    C           -0.016818645120     0.084600493672     0.350091910834
    C            1.126746723488    -0.902794629547     0.181667222408
    C           -1.363647045220    -0.516775339211    -0.012776515607
    H           -0.047318070193     0.397311684759     1.389924434617
    H            1.194379412321    -1.240236660272    -0.848377622242
    H            2.072256565727    -0.447861256496     0.457812491214
    H            0.980188642260    -1.772845889537     0.809908090947
    H           -1.361755260117    -0.864464406022    -1.040058224782
    H           -2.142525294202     0.228101392433     0.089355534067
    H           -1.601324474148    -1.353211924114     0.635541530380

  Mulliken Charges: (a.u.)
   Center  Symbol    Alpha    Beta     Spin     Total
       1     H     0.39168  0.39168  0.00000  0.21665
       2     O     4.21099  4.21099  0.00000 -0.42197
       3     C     2.91991  2.91991  0.00000  0.16018
       4     C     3.15999  3.15999  0.00000 -0.31998
       5     C     3.13672  3.13672  0.00000 -0.27344
       6     H     0.46177  0.46177  0.00000  0.07645
       7     H     0.45386  0.45386  0.00000  0.09227
       8     H     0.44864  0.44864  0.00000  0.10272
       9     H     0.45099  0.45099  0.00000  0.09803
      10     H     0.45878  0.45878  0.00000  0.08244
      11     H     0.44656  0.44656  0.00000  0.10689
      12     H     0.46012  0.46012  0.00000  0.07976

   Total alpha = 17.00000, Total beta = 17.00000, Total charge =  0.00000

*** Psi4 exiting successfully. Buy a developer a beer!
