                              Psi4 1.0.54 Driver

  ==> Input File <==

--------------------------------------------------------------------------
set {
	reference rhf
	basis cc-pvtz
}

set_num_threads( 4 )
memory 2 gb

molecule MOL {
0 1

O	 1.256685	 1.237252	 -0.381623
C	 1.121787	 0.124983	 0.000110
C	 -0.170912	 -0.649867	 -0.000147
O	 2.115803	 -0.598695	 0.488577
C	 -1.413045	 0.229353	 0.001137
H	 -0.152877	 -1.303435	 -0.866175
H	 -0.152278	 -1.305116	 0.864586
C	 -2.702562	 -0.586401	 0.000228
H	 -1.390744	 0.882001	 -0.864365
H	 -1.390549	 0.879837	 0.868264
C	 -3.953810	 0.284959	 -0.000782
H	 -2.717793	 -1.238567	 -0.869075
H	 -2.719108	 -1.238472	 0.869576
H	 -3.983727	 0.924403	 -0.876454
H	 -4.852989	 -0.320147	 -0.001515
H	 -3.985140	 0.924399	 0.874841
C	 3.391369	 0.006915	 0.547627
H	 3.726102	 0.288081	 -0.439859
H	 4.052912	 -0.732937	 0.968158
H	 3.367685	 0.885529	 1.175083

	symmetry c1
}
set optking {
	frozen_dihedral = ("
		1 2 3 6
	")
}

ee,wfn = optimize('scf', return_wfn=True)
oeprop( wfn, 'DIPOLE', 'QUADRUPOLE', 'MULLIKEN_CHARGES')
f=open( 'psi4out.xyz', 'w' )
f.write( "20  " )
f.write( str(ee) + "\n" )
f.write( MOL.save_string_xyz() )
f.close()
--------------------------------------------------------------------------

    Molecular point group: c1
  Charge       = 0
  Multiplicity = 1
  Basis Set: CC-PVTZ
  Basis Set:
  @DF-RHF Final Energy:  -384.08271214549745
    Total Energy =                       -384.0827121454976805
    Molecular point group: c1
  Basis Set: CC-PVTZ
  Basis Set:
  Basis Set: CC-PVTZ
  Basis Set:
  @DF-RHF Final Energy:  -384.08191830579182
    Total Energy =                       -384.0819183057922146
  Basis Set: CC-PVTZ
  Basis Set:
  Basis Set: CC-PVTZ
  Basis Set:
  @DF-RHF Final Energy:  -384.08284585809167
    Total Energy =                       -384.0828458580913320
  Basis Set: CC-PVTZ
  Basis Set:
  Basis Set: CC-PVTZ
  Basis Set:
  @DF-RHF Final Energy:  -384.08293490504872
    Total Energy =                       -384.0829349050486599
  Basis Set: CC-PVTZ
  Basis Set:
  Basis Set: CC-PVTZ
  Basis Set:
  @DF-RHF Final Energy:  -384.08293708778666
    Total Energy =                       -384.0829370877867177
  Basis Set: CC-PVTZ
  Basis Set:
  Charge       = 0
  Multiplicity = 1
  Basis Set: CC-PVTZ
  Basis Set:

    Orbital Energies (a.u.)
    -----------------------

    Doubly Occupied:

       1A    -20.597168     2A    -20.533511     3A    -11.364740
       4A    -11.278594     5A    -11.233763     6A    -11.218773
       7A    -11.218047     8A    -11.208996     9A     -1.472521
      10A     -1.365676    11A     -1.090138    12A     -1.025385
      13A     -0.970147    14A     -0.886682    15A     -0.804704
      16A     -0.770371    17A     -0.698810    18A     -0.686445
      19A     -0.675880    20A     -0.647474    21A     -0.598941
      22A     -0.593141    23A     -0.579124    24A     -0.544216
      25A     -0.536345    26A     -0.524423    27A     -0.501500
      28A     -0.478601    29A     -0.475924    30A     -0.471044
      31A     -0.460085    32A     -0.439183

  @DF-RHF Final Energy:  -384.08293744236295

   => Energetics <=

    Nuclear Repulsion Energy =            381.7391055309532817
    One-Electron Energy =               -1279.7433796935961254
    Two-Electron Energy =                 513.9213367202796690
    DFT Exchange-Correlation Energy =       0.0000000000000000
    Empirical Dispersion Energy =           0.0000000000000000
    PCM Polarization Energy =               0.0000000000000000
    EFP Energy =                            0.0000000000000000
    Total Energy =                       -384.0829374423631180
    Molecular point group: c1
  Basis Set: CC-PVTZ
  Basis Set:

  -Total Gradient:
     Atom            X                  Y                   Z
    ------   -----------------  -----------------  -----------------
       1        0.000195857197    -0.000332165255    -0.000759422833
       2       -0.000401907893     0.000628505228     0.000993942223
       3        0.000493093393    -0.000811710708     0.000181901353
       4        0.000031026957    -0.000047453821     0.000019832464
       5        0.000005631820     0.000005783586     0.000002310661
       6       -0.000329914036     0.000561588853    -0.000437258967
       7        0.000004276045    -0.000002172430     0.000001527849
       8        0.000005680531    -0.000003846715     0.000000158098
       9       -0.000004562439     0.000003073324     0.000000119387
      10        0.000004472550    -0.000005565894    -0.000002398344
      11        0.000001014740     0.000002517834    -0.000002882558
      12        0.000000058260    -0.000000615690     0.000003035811
      13        0.000001172499     0.000002504490    -0.000001268700
      14       -0.000001145212    -0.000000088957     0.000001917214
      15        0.000001040651     0.000001153693    -0.000000693864
      16        0.000000596503    -0.000002192786    -0.000002117972
      17        0.000008409365     0.000009323043    -0.000003700387
      18       -0.000008986128    -0.000004973152     0.000014169283
      19       -0.000001920704     0.000002255441    -0.000003205287
      20       -0.000003894098    -0.000005920078    -0.000005965430

  **** Optimization is complete! (in 6 steps) ****
    Final optimized geometry and variables:
    Molecular point group: c1

    Geometry (in Angstrom), charge = 0, multiplicity = 1:

    O            1.257718709416     1.232127697929    -0.375199704721
    C            1.126218037690     0.118343221925     0.003976253220
    C           -0.159761728662    -0.667486166346    -0.036377494360
    O            2.123012445145    -0.603473863851     0.488432580146
    C           -1.403675915450     0.207322648750    -0.126468859784
    H           -0.091395380888    -1.314589424505    -0.906861934281
    H           -0.191226314335    -1.319184839982     0.827477976508
    C           -2.686928910436    -0.613531089025    -0.212871083979
    H           -1.321115245565     0.856451374621    -0.989510657549
    H           -1.446506390511     0.859763777284     0.740078936651
    C           -3.938755185145     0.252806180527    -0.298627699779
    H           -2.640078783672    -1.264920510685    -1.081613379360
    H           -2.759675153792    -1.266272259241     0.652985979571
    H           -3.911281423364     0.893079940688    -1.173699792134
    H           -4.833235479134    -0.355987265171    -0.361202856685
    H           -4.032796175880     0.891059524897     0.573433420505
    C            3.400839601473    -0.000625919041     0.527183262915
    H            3.723934255890     0.272287442277    -0.466491189042
    H            4.065619866657    -0.739034942860     0.945117182121
    H            3.386669339290     0.882692732402     1.148085077986

  Mulliken Charges: (a.u.)
   Center  Symbol    Alpha    Beta     Spin     Total
       1     O     4.19825  4.19825  0.00000 -0.39649
       2     C     2.81058  2.81058  0.00000  0.37885
       3     C     3.09479  3.09479  0.00000 -0.18958
       4     O     4.14543  4.14543  0.00000 -0.29087
       5     C     3.08378  3.08378  0.00000 -0.16756
       6     H     0.44351  0.44351  0.00000  0.11298
       7     H     0.43830  0.43830  0.00000  0.12340
       8     C     3.08708  3.08708  0.00000 -0.17416
       9     H     0.44208  0.44208  0.00000  0.11584
      10     H     0.45060  0.45060  0.00000  0.09879
      11     C     3.14914  3.14914  0.00000 -0.29827
      12     H     0.45474  0.45474  0.00000  0.09051
      13     H     0.45526  0.45526  0.00000  0.08948
      14     H     0.45348  0.45348  0.00000  0.09304
      15     H     0.44835  0.44835  0.00000  0.10330
      16     H     0.45424  0.45424  0.00000  0.09152
      17     C     3.03655  3.03655  0.00000 -0.07311
      18     H     0.45440  0.45440  0.00000  0.09119
      19     H     0.44517  0.44517  0.00000  0.10967
      20     H     0.45428  0.45428  0.00000  0.09144

   Total alpha = 32.00000, Total beta = 32.00000, Total charge = -0.00000

*** Psi4 exiting successfully. Buy a developer a beer!
