                              Psi4 1.0.54 Driver

  ==> Input File <==

--------------------------------------------------------------------------
set {
	reference rhf
	basis cc-pvtz
}

set_num_threads( 4 )
memory 2 gb

molecule MOL {
0 1

H	 -2.644180	 -0.653737	 1.272255
C	 -2.092774	 -0.380414	 0.391915
O	 -0.808934	 -0.154049	 0.752536
F	 -2.163230	 -1.351640	 -0.507133
F	 -2.627232	 0.691260	 -0.169301
C	 0.085006	 0.250800	 -0.215074
C	 -0.615240	 0.124731	 -1.566014
Cl	 1.550193	 -0.748343	 -0.193156
H	 0.392407	 1.274486	 -0.091716
F	 0.179690	 0.509870	 -2.531817
F	 -1.669695	 0.905346	 -1.574914
F	 -1.007583	 -1.095810	 -1.808088

	symmetry c1
}
set optking {
	frozen_dihedral = ("
		9 6 3 2
	")
}

ee,wfn = optimize('scf', return_wfn=True)
oeprop( wfn, 'DIPOLE', 'QUADRUPOLE', 'MULLIKEN_CHARGES')
f=open( 'psi4out.xyz', 'w' )
f.write( "12  " )
f.write( str(ee) + "\n" )
f.write( MOL.save_string_xyz() )
f.close()
--------------------------------------------------------------------------

    Molecular point group: c1
  Charge       = 0
  Multiplicity = 1
  Basis Set: CC-PVTZ
  Basis Set:
  @DF-RHF Final Energy: -1146.43238091159742
    Total Energy =                      -1146.4323809115985568
    Molecular point group: c1
  Basis Set: CC-PVTZ
  Basis Set:
  Basis Set: CC-PVTZ
  Basis Set:
  @DF-RHF Final Energy: -1146.51387892497178
    Total Energy =                      -1146.5138789249715501
  Basis Set: CC-PVTZ
  Basis Set:
  Basis Set: CC-PVTZ
  Basis Set:
  @DF-RHF Final Energy: -1146.55914117304042
    Total Energy =                      -1146.5591411730406435
  Basis Set: CC-PVTZ
  Basis Set:
  Basis Set: CC-PVTZ
  Basis Set:
  @DF-RHF Final Energy: -1146.58110310535858
    Total Energy =                      -1146.5811031053592615
  Basis Set: CC-PVTZ
  Basis Set:
  @DF-RHF Final Energy: -1146.59355351110662
    Total Energy =                      -1146.5935535111070749
  @DF-RHF Final Energy: -1146.60007037949549
    Total Energy =                      -1146.6000703794952642
  @DF-RHF Final Energy: -1146.60283844179344
    Total Energy =                      -1146.6028384417927555
  @DF-RHF Final Energy: -1146.60371248591969
    Total Energy =                      -1146.6037124859192318
  Basis Set: CC-PVTZ
  Basis Set:
  @DF-RHF Final Energy: -1146.60397153298140
    Total Energy =                      -1146.6039715329825412
  Basis Set: CC-PVTZ
  Basis Set:
  Basis Set: CC-PVTZ
  Basis Set:
  @DF-RHF Final Energy: -1146.60401453738496
    Total Energy =                      -1146.6040145373858650
  Basis Set: CC-PVTZ
  Basis Set:
  Basis Set: CC-PVTZ
  Basis Set:
  @DF-RHF Final Energy: -1146.60401873977116
    Total Energy =                      -1146.6040187397711634
  Basis Set: CC-PVTZ
  Basis Set:
  Charge       = 0
  Multiplicity = 1
  Basis Set: CC-PVTZ
  Basis Set:

    Orbital Energies (a.u.)
    -----------------------

    Doubly Occupied:

       1A   -104.856293     2A    -26.356742     3A    -26.354957
       4A    -26.353845     5A    -26.339457     6A    -26.334391
       7A    -20.634578     8A    -11.525159     9A    -11.482251
      10A    -11.406003    11A    -10.581843    12A     -8.048632
      13A     -8.046638    14A     -8.046558    15A     -1.770688
      16A     -1.718793    17A     -1.665080    18A     -1.662848
      19A     -1.640313    20A     -1.476630    21A     -1.179565
      22A     -1.044431    23A     -1.001470    24A     -0.922748
      25A     -0.864650    26A     -0.860403    27A     -0.855668
      28A     -0.832457    29A     -0.818113    30A     -0.764843
      31A     -0.737268    32A     -0.735415    33A     -0.713815
      34A     -0.694603    35A     -0.685478    36A     -0.680573
      37A     -0.666691    38A     -0.665083    39A     -0.657131
      40A     -0.647005    41A     -0.586880    42A     -0.553763
      43A     -0.526562    44A     -0.478841    45A     -0.468177

  @DF-RHF Final Energy: -1146.60401945105218

   => Energetics <=

    Nuclear Repulsion Energy =            753.7580844303838603
    One-Electron Energy =               -3090.8375472986253953
    Two-Electron Energy =                1190.4754434171895809
    DFT Exchange-Correlation Energy =       0.0000000000000000
    Empirical Dispersion Energy =           0.0000000000000000
    PCM Polarization Energy =               0.0000000000000000
    EFP Energy =                            0.0000000000000000
    Total Energy =                      -1146.6040194510519541
    Molecular point group: c1
  Basis Set: CC-PVTZ
  Basis Set:

  -Total Gradient:
     Atom            X                  Y                   Z
    ------   -----------------  -----------------  -----------------
       1       -0.000016085697    -0.000008233065    -0.000023593808
       2       -0.000139779048    -0.002144528390    -0.000920058993
       3        0.000635096127     0.003167275048     0.001601794335
       4       -0.000029373896     0.000008318752     0.000168533567
       5        0.000031752689     0.000015978779    -0.000117722975
       6       -0.002575046734     0.000104199883    -0.001134173311
       7        0.000005758729     0.000008190015     0.000002055878
       8       -0.000000740533    -0.000010514111     0.000028478347
       9        0.002033791664    -0.001155725909     0.000385929614
      10        0.000003900395    -0.000002418365    -0.000031590029
      11       -0.000048280469    -0.000051410381     0.000156682920
      12        0.000099006873     0.000068867714    -0.000116335553

  **** Optimization is complete! (in 12 steps) ****
    Final optimized geometry and variables:
    Molecular point group: c1

    Geometry (in Angstrom), charge = 0, multiplicity = 1:

    H           -0.948098700960    -0.942173841642     2.674106598768
    C           -0.950709340752    -0.386250824661     1.754302404771
    O            0.341268036673    -0.262148771655     1.372638635346
    F           -1.680550716345    -1.016318539520     0.854463195343
    F           -1.508977398763     0.795897527511     1.958291795974
    C            0.860306215028     0.244029650839     0.192594346064
    C           -0.068215178525     0.489409170706    -1.008424812820
    CL           2.155691008796    -0.857988639743    -0.322547895800
    H            1.342434932496     1.181807867750     0.406241775341
    F            0.625081565466     1.128461290468    -1.920969809129
    F           -1.070931636487     1.258721163447    -0.665205545086
    F           -0.540477845680    -0.598831754218    -1.544702170064

  Mulliken Charges: (a.u.)
   Center  Symbol    Alpha    Beta     Spin     Total
       1     H     0.44655  0.44655  0.00000  0.10690
       2     C     2.74341  2.74341  0.00000  0.51318
       3     O     4.16074  4.16074  0.00000 -0.32149
       4     F     4.61497  4.61497  0.00000 -0.22993
       5     F     4.61666  4.61666  0.00000 -0.23333
       6     C     2.93332  2.93332  0.00000  0.13337
       7     C     2.68440  2.68440  0.00000  0.63120
       8    CL     8.57229  8.57229  0.00000 -0.14459
       9     H     0.42470  0.42470  0.00000  0.15059
      10     F     4.60238  4.60238  0.00000 -0.20477
      11     F     4.60269  4.60269  0.00000 -0.20539
      12     F     4.59788  4.59788  0.00000 -0.19576

   Total alpha = 45.00000, Total beta = 45.00000, Total charge = -0.00000

*** Psi4 exiting successfully. Buy a developer a beer!
