                              Psi4 1.0.54 Driver

  ==> Input File <==

--------------------------------------------------------------------------
set {
	reference rhf
	basis cc-pvtz
}

set_num_threads( 4 )
memory 2 gb

molecule MOL {
0 1

H	 -4.024094	 -0.454727	 0.000004
C	 -2.962215	 -0.297920	 0.000004
C	 -2.454736	 0.988978	 0.000025
C	 -2.105837	 -1.382632	 -0.000016
H	 -3.120052	 1.830438	 0.000041
C	 -1.090106	 1.189676	 0.000026
H	 -2.500390	 -2.380229	 -0.000033
C	 -0.739175	 -1.183302	 -0.000016
H	 -0.680214	 2.179144	 0.000042
C	 -0.227341	 0.104540	 0.000006
H	 -0.073209	 -2.021168	 -0.000032
C	 1.238974	 0.374429	 0.000004
O	 1.968286	 -0.725612	 -0.000016
O	 1.709187	 1.462583	 -0.000019
C	 3.373556	 -0.568203	 0.000023
H	 3.695418	 -0.031596	 -0.879655
H	 3.782700	 -1.565294	 -0.000130
H	 3.695404	 -0.031842	 0.879870

	symmetry c1
}
set optking {
	frozen_dihedral = ("
		13 12 10 6
	")
}

ee,wfn = optimize('scf', return_wfn=True)
oeprop( wfn, 'DIPOLE', 'QUADRUPOLE', 'MULLIKEN_CHARGES')
f=open( 'psi4out.xyz', 'w' )
f.write( "18  " )
f.write( str(ee) + "\n" )
f.write( MOL.save_string_xyz() )
f.close()
--------------------------------------------------------------------------

    Molecular point group: c1
  Charge       = 0
  Multiplicity = 1
  Basis Set: CC-PVTZ
  Basis Set:

    Orbital Energies (a.u.)
    -----------------------

    Doubly Occupied:

       1A    -20.600980     2A    -20.534497     3A    -11.371746
       4A    -11.281259     5A    -11.244994     6A    -11.243526
       7A    -11.242723     8A    -11.240096     9A    -11.236084
      10A    -11.235331    11A     -1.476970    12A     -1.368435
      13A     -1.170854    14A     -1.051908    15A     -1.029118
      16A     -0.980491    17A     -0.863304    18A     -0.838533
      19A     -0.781253    20A     -0.745068    21A     -0.687883
      22A     -0.681769    23A     -0.676390    24A     -0.634113
      25A     -0.630114    26A     -0.601358    27A     -0.587560
      28A     -0.565014    29A     -0.531988    30A     -0.520385
      31A     -0.509514    32A     -0.502279    33A     -0.464220
      34A     -0.449513    35A     -0.350246    36A     -0.346310

  @DF-RHF Final Energy:  -457.51024308885047

   => Energetics <=

    Nuclear Repulsion Energy =            494.0499212035600181
    One-Electron Energy =               -1602.5686728359855806
    Two-Electron Energy =                 651.0085085435744077
    DFT Exchange-Correlation Energy =       0.0000000000000000
    Empirical Dispersion Energy =           0.0000000000000000
    PCM Polarization Energy =               0.0000000000000000
    EFP Energy =                            0.0000000000000000
    Total Energy =                       -457.5102430888512117
    Molecular point group: c1
  Basis Set: CC-PVTZ
  Basis Set:

  -Total Gradient:
     Atom            X                  Y                   Z
    ------   -----------------  -----------------  -----------------
       1        0.000029125053    -0.000006418485     0.000000020691
       2        0.000011163352     0.000061218790    -0.000000116126
       3       -0.000041234694    -0.000029567409    -0.000000048840
       4        0.000078689901    -0.000024012228     0.000000292822
       5        0.000021933170    -0.000033418700     0.000000011529
       6       -0.000000826466     0.000012658574    -0.000000026948
       7       -0.000007419301     0.000026469253    -0.000000018502
       8       -0.000096351740    -0.000089494525    -0.000000441495
       9        0.000000390886    -0.000046619809     0.000000035601
      10        0.000189823993     0.000142616520    -0.000001133249
      11       -0.000006020474     0.000045343805    -0.000000021833
      12       -0.000186626263     0.000042851405     0.000006947263
      13       -0.000101042047    -0.000198545408    -0.000003648296
      14       -0.000033902216     0.000055979136    -0.000003514363
      15        0.000283413622     0.000093805113    -0.000001306087
      16       -0.000039727627    -0.000028145926     0.000032801341
      17       -0.000063982217    -0.000001480288    -0.000002234448
      18       -0.000037406930    -0.000023239819    -0.000027599060

  **** Optimization is complete! (in 1 steps) ****
    Final optimized geometry and variables:
    Molecular point group: c1

    Geometry (in Angstrom), charge = 0, multiplicity = 1:

    H           -4.024093547646    -0.454726537852     0.000002382864
    C           -2.962214547646    -0.297919537852     0.000002382864
    C           -2.454735547646     0.988978462148     0.000023382864
    C           -2.105836547646    -1.382631537852    -0.000017617136
    H           -3.120051547646     1.830438462148     0.000039382864
    C           -1.090105547646     1.189676462148     0.000024382864
    H           -2.500389547646    -2.380228537852    -0.000034617136
    C           -0.739174547646    -1.183301537852    -0.000017617136
    H           -0.680213547646     2.179144462148     0.000040382864
    C           -0.227340547646     0.104540462148     0.000004382864
    H           -0.073208547646    -2.021167537852    -0.000033617136
    C            1.238974452354     0.374429462148     0.000002382864
    O            1.968286452354    -0.725611537852    -0.000017617136
    O            1.709187452354     1.462583462148    -0.000020617136
    C            3.373556452354    -0.568202537852     0.000021382864
    H            3.695418452354    -0.031595537852    -0.879656617136
    H            3.782700452354    -1.565293537852    -0.000131617136
    H            3.695404452354    -0.031841537852     0.879868382864

  Mulliken Charges: (a.u.)
   Center  Symbol    Alpha    Beta     Spin     Total
       1     H     0.42028  0.42028  0.00000  0.15944
       2     C     3.06972  3.06972  0.00000 -0.13943
       3     C     3.07554  3.07554  0.00000 -0.15107
       4     C     3.07495  3.07495  0.00000 -0.14991
       5     H     0.42037  0.42037  0.00000  0.15927
       6     C     3.07587  3.07587  0.00000 -0.15174
       7     H     0.42187  0.42187  0.00000  0.15625
       8     C     3.08209  3.08209  0.00000 -0.16417
       9     H     0.40667  0.40667  0.00000  0.18666
      10     C     3.01230  3.01230  0.00000 -0.02461
      11     H     0.41101  0.41101  0.00000  0.17797
      12     C     2.78241  2.78241  0.00000  0.43518
      13     O     4.14849  4.14849  0.00000 -0.29698
      14     O     4.21127  4.21127  0.00000 -0.42254
      15     C     3.03660  3.03660  0.00000 -0.07320
      16     H     0.45264  0.45264  0.00000  0.09473
      17     H     0.44528  0.44528  0.00000  0.10943
      18     H     0.45264  0.45264  0.00000  0.09472

   Total alpha = 36.00000, Total beta = 36.00000, Total charge = -0.00000

*** Psi4 exiting successfully. Buy a developer a beer!
