                              Psi4 1.0.54 Driver

  ==> Input File <==

--------------------------------------------------------------------------
set {
	reference rhf
	basis cc-pvtz
}

set_num_threads( 4 )
memory 2 gb

molecule MOL {
0 1

H	 -0.042927	 -6.063659	 0.966529
C	 0.301261	 -5.056697	 0.762393
C	 -0.870444	 -4.086324	 0.661709
H	 0.978171	 -4.771674	 1.560887
H	 0.872092	 -5.083922	 -0.159793
C	 -0.431676	 -2.658048	 0.374518
H	 -1.442108	 -4.095098	 1.583060
H	 -1.545392	 -4.417493	 -0.124007
N	 -1.563270	 -1.758689	 0.308305
H	 0.222773	 -2.317213	 1.171197
H	 0.164338	 -2.639662	 -0.542821
C	 -1.215959	 -0.382435	 0.027143
H	 -2.215652	 -2.087468	 -0.372592
C	 -2.451944	 0.502410	 -0.038737
H	 -0.565330	 -0.030513	 0.822134
H	 -0.648318	 -0.281711	 -0.902757
C	 -3.752217	 -0.292550	 0.005776
H	 -2.407325	 1.093801	 -0.946480
H	 -2.431979	 1.206234	 0.790023
H	 -3.817783	 -0.982946	 -0.828547
H	 -4.612613	 0.364348	 -0.042306
H	 -3.830160	 -0.871666	 0.919868

	symmetry c1
}
set optking {
	frozen_dihedral = ("
		15 12 14 18
	")
}

ee,wfn = optimize('scf', return_wfn=True)
oeprop( wfn, 'DIPOLE', 'QUADRUPOLE', 'MULLIKEN_CHARGES')
f=open( 'psi4out.xyz', 'w' )
f.write( "22  " )
f.write( str(ee) + "\n" )
f.write( MOL.save_string_xyz() )
f.close()
--------------------------------------------------------------------------

    Molecular point group: c1
  Charge       = 0
  Multiplicity = 1
  Basis Set: CC-PVTZ
  Basis Set:
  @DF-RHF Final Energy:  -290.47741521502627
    Total Energy =                       -290.4774152150263262
    Molecular point group: c1
  Basis Set: CC-PVTZ
  Basis Set:
  Basis Set: CC-PVTZ
  Basis Set:
  @DF-RHF Final Energy:  -290.47734652118726
    Total Energy =                       -290.4773465211874282
  Basis Set: CC-PVTZ
  Basis Set:
  Basis Set: CC-PVTZ
  Basis Set:
  @DF-RHF Final Energy:  -290.48037092563948
    Total Energy =                       -290.4803709256391357
  Basis Set: CC-PVTZ
  Basis Set:
  Basis Set: CC-PVTZ
  Basis Set:
  @DF-RHF Final Energy:  -290.48063750885638
    Total Energy =                       -290.4806375088563755
  Basis Set: CC-PVTZ
  Basis Set:
  Basis Set: CC-PVTZ
  Basis Set:
  @DF-RHF Final Energy:  -290.48065832292025
    Total Energy =                       -290.4806583229204762
  Basis Set: CC-PVTZ
  Basis Set:
  Basis Set: CC-PVTZ
  Basis Set:
  @DF-RHF Final Energy:  -290.48066409346603
    Total Energy =                       -290.4806640934659754
  Basis Set: CC-PVTZ
  Basis Set:
  Charge       = 0
  Multiplicity = 1
  Basis Set: CC-PVTZ
  Basis Set:

    Orbital Energies (a.u.)
    -----------------------

    Doubly Occupied:

       1A    -15.527690     2A    -11.237057     3A    -11.236140
       4A    -11.212392     5A    -11.211977     6A    -11.207669
       7A    -11.203331     8A     -1.206717     9A     -1.056706
      10A     -1.021596    11A     -0.927568    12A     -0.881514
      13A     -0.805198    14A     -0.786057    15A     -0.668939
      16A     -0.628593    17A     -0.624723    18A     -0.597460
      19A     -0.575444    20A     -0.567721    21A     -0.535341
      22A     -0.529290    23A     -0.504230    24A     -0.486456
      25A     -0.483532    26A     -0.471901    27A     -0.461572
      28A     -0.451233    29A     -0.358968

  @DF-RHF Final Energy:  -290.48066591298709

   => Energetics <=

    Nuclear Repulsion Energy =            318.5403752376354305
    One-Electron Energy =               -1023.1080481058467058
    Two-Electron Energy =                 414.0870069552239556
    DFT Exchange-Correlation Energy =       0.0000000000000000
    Empirical Dispersion Energy =           0.0000000000000000
    PCM Polarization Energy =               0.0000000000000000
    EFP Energy =                            0.0000000000000000
    Total Energy =                       -290.4806659129873196
    Molecular point group: c1
  Basis Set: CC-PVTZ
  Basis Set:

  -Total Gradient:
     Atom            X                  Y                   Z
    ------   -----------------  -----------------  -----------------
       1        0.000003512147    -0.000001759237    -0.000000269022
       2       -0.000001781115    -0.000006759083     0.000002152000
       3        0.000003814689     0.000005552136     0.000001364961
       4       -0.000001471156     0.000000122803    -0.000001416524
       5       -0.000003275383     0.000001044098     0.000001931111
       6       -0.000001087506     0.000005873289     0.000000525738
       7        0.000002906908    -0.000001601877    -0.000001561154
       8        0.000001789424     0.000001983619     0.000000998665
       9        0.000004914366     0.000031131984    -0.000020257573
      10        0.000002879477    -0.000003806405    -0.000001578915
      11       -0.000001084400    -0.000000218989     0.000003298274
      12        0.001096548645     0.001742252252    -0.002325923260
      13       -0.000011166091    -0.000001554133    -0.000005194036
      14        0.001312085514     0.001888178993     0.002083633238
      15       -0.001124140966    -0.001770926331     0.001659135375
      16       -0.000005028233    -0.000007201226    -0.000000543415
      17        0.000024680474     0.000025850430     0.000033596335
      18       -0.001278421263    -0.001877687413    -0.001404966720
      19        0.000001568341    -0.000007893137     0.000000105165
      20       -0.000000411520    -0.000026226450    -0.000042994279
      21       -0.000024646083     0.000017187453    -0.000006801339
      22       -0.000002186269    -0.000013542773     0.000024765372

  **** Optimization is complete! (in 7 steps) ****
    Final optimized geometry and variables:
    Molecular point group: c1

    Geometry (in Angstrom), charge = 0, multiplicity = 1:

    H            1.801345066789    -4.007397543687     0.454976138958
    C            2.039481226988    -2.959093894153     0.318978474546
    C            0.772484100793    -2.114947906057     0.236501251773
    H            2.661236972217    -2.651492527127     1.153136991349
    H            2.632778334027    -2.870229149188    -0.584950512663
    C            1.061677059621    -0.633289487695     0.045951826500
    H            0.182017248275    -2.240595722566     1.137266410713
    H            0.157986529678    -2.468462273670    -0.588103931488
    N           -0.158431557017     0.143021802093    -0.003390366089
    H            1.656801371685    -0.274247753436     0.880248614033
    H            1.674486330509    -0.496548032055    -0.850311569598
    C            0.064164327223     1.560616913768    -0.214621459840
    H           -0.753881443455    -0.222929954712    -0.715116232330
    C           -1.224663586719     2.417838100240    -0.174171799523
    H            0.722845338423     1.884997976671     0.582263546690
    H            0.593915678314     1.745546619304    -1.150923682227
    C           -2.547572794896     1.652008664688    -0.164834815791
    H           -1.230270828867     3.072114192246    -1.039141583491
    H           -1.197043636373     3.059003021034     0.698903122873
    H           -2.676590556185     1.055462061324    -1.062358784686
    H           -3.374764569470     2.351649922179    -0.125437533030
    H           -2.620975879071     0.991183603555     0.687468119839

  Mulliken Charges: (a.u.)
   Center  Symbol    Alpha    Beta     Spin     Total
       1     H     0.44766  0.44766  0.00000  0.10469
       2     C     3.15357  3.15357  0.00000 -0.30713
       3     C     3.08145  3.08145  0.00000 -0.16289
       4     H     0.45468  0.45468  0.00000  0.09065
       5     H     0.45609  0.45609  0.00000  0.08783
       6     C     3.02136  3.02136  0.00000 -0.04272
       7     H     0.44891  0.44891  0.00000  0.10217
       8     H     0.45994  0.45994  0.00000  0.08012
       9     N     3.64119  3.64119  0.00000 -0.28237
      10     H     0.45895  0.45895  0.00000  0.08209
      11     H     0.47502  0.47502  0.00000  0.04995
      12     C     3.03478  3.03478  0.00000 -0.06957
      13     H     0.44060  0.44060  0.00000  0.11880
      14     C     3.08825  3.08825  0.00000 -0.17651
      15     H     0.45791  0.45791  0.00000  0.08417
      16     H     0.46777  0.46777  0.00000  0.06447
      17     C     3.15418  3.15418  0.00000 -0.30837
      18     H     0.45268  0.45268  0.00000  0.09464
      19     H     0.45181  0.45181  0.00000  0.09638
      20     H     0.46026  0.46026  0.00000  0.07948
      21     H     0.44860  0.44860  0.00000  0.10280
      22     H     0.44435  0.44435  0.00000  0.11130

   Total alpha = 29.00000, Total beta = 29.00000, Total charge = -0.00000

*** Psi4 exiting successfully. Buy a developer a beer!
