                              Psi4 1.0.54 Driver

  ==> Input File <==

--------------------------------------------------------------------------
set {
	reference rhf
	basis cc-pvtz
}

set_num_threads( 4 )
memory 2 gb

molecule MOL {
0 1

H	 -1.801642	 -0.953422	 -0.063223
O	 -2.041679	 -0.058866	 0.103463
C	 -0.959304	 0.780994	 -0.094939
C	 0.354905	 0.037902	 -0.006215
H	 -0.985899	 1.279578	 -1.057596
H	 -0.969809	 1.529522	 0.682889
F	 0.412060	 -0.931028	 -0.902708
F	 1.359641	 0.856111	 -0.239961
F	 0.545380	 -0.506387	 1.171682

	symmetry c1
}
set optking {
	frozen_dihedral = ("
		1 2 3 5
	")
}

ee,wfn = optimize('scf', return_wfn=True)
oeprop( wfn, 'DIPOLE', 'QUADRUPOLE', 'MULLIKEN_CHARGES')
f=open( 'psi4out.xyz', 'w' )
f.write( "9  " )
f.write( str(ee) + "\n" )
f.write( MOL.save_string_xyz() )
f.close()
--------------------------------------------------------------------------

    Molecular point group: c1
  Charge       = 0
  Multiplicity = 1
  Basis Set: CC-PVTZ
  Basis Set:
  @DF-RHF Final Energy:  -450.84401149243809
    Total Energy =                       -450.8440114924381987
    Molecular point group: c1
  Basis Set: CC-PVTZ
  Basis Set:
  Basis Set: CC-PVTZ
  Basis Set:
  @DF-RHF Final Energy:  -450.84423834458119
    Total Energy =                       -450.8442383445809583
  Basis Set: CC-PVTZ
  Basis Set:
  Basis Set: CC-PVTZ
  Basis Set:
  @DF-RHF Final Energy:  -450.84431415917857
    Total Energy =                       -450.8443141591785093
  Basis Set: CC-PVTZ
  Basis Set:
  Basis Set: CC-PVTZ
  Basis Set:
  @DF-RHF Final Energy:  -450.84431679331578
    Total Energy =                       -450.8443167933154996
  Basis Set: CC-PVTZ
  Basis Set:
  Charge       = 0
  Multiplicity = 1
  Basis Set: CC-PVTZ
  Basis Set:

    Orbital Energies (a.u.)
    -----------------------

    Doubly Occupied:

       1A    -26.346004     2A    -26.345726     3A    -26.342550
       4A    -20.581069     5A    -11.501422     6A    -11.309804
       7A     -1.754597     8A     -1.652013     9A     -1.648851
      10A     -1.404036    11A     -1.053786    12A     -0.934737
      13A     -0.843884    14A     -0.843020    15A     -0.821668
      16A     -0.727844    17A     -0.725429    18A     -0.689774
      19A     -0.677522    20A     -0.675403    21A     -0.655812
      22A     -0.644172    23A     -0.626422    24A     -0.529249
      25A     -0.481765

  @DF-RHF Final Energy:  -450.84431734123228

   => Energetics <=

    Nuclear Repulsion Energy =            277.9454561702581827
    One-Electron Energy =               -1177.9464361783861932
    Two-Electron Energy =                 449.1566626668956133
    DFT Exchange-Correlation Energy =       0.0000000000000000
    Empirical Dispersion Energy =           0.0000000000000000
    PCM Polarization Energy =               0.0000000000000000
    EFP Energy =                            0.0000000000000000
    Total Energy =                       -450.8443173412323404
    Molecular point group: c1
  Basis Set: CC-PVTZ
  Basis Set:

  -Total Gradient:
     Atom            X                  Y                   Z
    ------   -----------------  -----------------  -----------------
       1        0.000758202241    -0.000383875916     0.002779668728
       2       -0.001328545127     0.000990440455    -0.003156115571
       3        0.001824926468    -0.002513966782    -0.000706171156
       4       -0.000066704988    -0.000054406989     0.000106445283
       5       -0.001239736507     0.001902996378     0.001076982365
       6        0.000011539359     0.000002938589     0.000005271070
       7        0.000009275370    -0.000018481205    -0.000009150200
       8        0.000040843896     0.000039752956    -0.000011527896
       9       -0.000009800700     0.000034602510    -0.000085402628

  **** Optimization is complete! (in 5 steps) ****
    Final optimized geometry and variables:
    Molecular point group: c1

    Geometry (in Angstrom), charge = 0, multiplicity = 1:

    H           -1.849145411740    -0.956111810038    -0.095128890942
    O           -2.058747667518    -0.057230267325     0.086489208999
    C           -0.962701650239     0.774602105457    -0.095973375620
    C            0.355568617832     0.044039716341    -0.013077262270
    H           -1.005211350457     1.282164396139    -1.052498106074
    H           -0.962599398041     1.525353714264     0.682250314291
    F            0.414097788157    -0.940640575728    -0.892430000756
    F            1.352065525230     0.862973491851    -0.259235049328
    F            0.553079677677    -0.489443852188     1.172416184100

  Mulliken Charges: (a.u.)
   Center  Symbol    Alpha    Beta     Spin     Total
       1     H     0.38654  0.38654  0.00000  0.22692
       2     O     4.19513  4.19513  0.00000 -0.39026
       3     C     2.97194  2.97194  0.00000  0.05613
       4     C     2.68908  2.68908  0.00000  0.62183
       5     H     0.46499  0.46499  0.00000  0.07002
       6     H     0.45767  0.45767  0.00000  0.08466
       7     F     4.61676  4.61676  0.00000 -0.23351
       8     F     4.60792  4.60792  0.00000 -0.21585
       9     F     4.60997  4.60997  0.00000 -0.21993

   Total alpha = 25.00000, Total beta = 25.00000, Total charge =  0.00000

*** Psi4 exiting successfully. Buy a developer a beer!
