  ==> Input File <==

--------------------------------------------------------------------------
set {
	reference rhf
	basis 6-31G*
}

set_num_threads( 4 )
memory 2 gb

molecule MOL {
0 1

O	 3.225979	 0.970355	 -0.599647
C	 2.701189	 0.057885	 -0.047330
C	 1.245376	 -0.013843	 0.345420
O	 3.347903	 -1.046386	 0.304773
C	 0.455112	 1.231400	 -0.050772
H	 0.838542	 -0.913825	 -0.103701
H	 1.208210	 -0.175333	 1.419774
C	 -0.998893	 1.219485	 0.433193
H	 0.482531	 1.345121	 -1.130325
H	 0.957290	 2.103070	 0.354729
C	 -1.650275	 2.600165	 0.553756
H	 -1.025690	 0.736530	 1.407236
H	 -1.596417	 0.594949	 -0.229326
C	 -3.060777	 2.543071	 1.143861
H	 -1.025165	 3.237331	 1.177515
H	 -1.696988	 3.078882	 -0.421754
C	 -3.723527	 3.916542	 1.264163
H	 -3.020879	 2.076929	 2.126894
H	 -3.683525	 1.897475	 0.526536
C	 -5.130279	 3.851149	 1.857857
H	 -3.102032	 4.563259	 1.879909
H	 -3.768258	 4.382228	 0.281861
H	 -5.573447	 4.839563	 1.930296
H	 -5.115112	 3.421666	 2.855609
H	 -5.786214	 3.238726	 1.245516
C	 4.728119	 -1.109107	 -0.004993
H	 4.882018	 -1.033965	 -1.071845
H	 5.068212	 -2.067527	 0.355250
H	 5.265056	 -0.311663	 0.488280

	symmetry c1
}
set optking {
	frozen_dihedral = ("
		11 8 5 9
	")
}

ee = optimize('scf')
oeprop('DIPOLE', 'QUADRUPOLE', 'MULLIKEN_CHARGES')
f=open( 'psi4out.xyz', 'w' )
f.write( "29  " )
f.write( str(ee) + "\n" )
f.write( MOL.save_string_xyz() )
f.close()
--------------------------------------------------------------------------

    Molecular point group: c1
  Charge       = 0
  Multiplicity = 1
  Basis Set: 6-31G*
  Basis Set:
  @DF-RHF Final Energy:  -501.04342076969124
    Total Energy =                       -501.0434207696905560
    Molecular point group: c1
  Basis Set: 6-31G*
  Basis Set:
  Basis Set: 6-31G*
  Basis Set:
  @DF-RHF Final Energy:  -501.04415692898567
    Total Energy =                       -501.0441569289854442
  Basis Set: 6-31G*
  Basis Set:
  Basis Set: 6-31G*
  Basis Set:
  @DF-RHF Final Energy:  -501.04406429610424
    Total Energy =                       -501.0440642961038975
  Basis Set: 6-31G*
  Basis Set:
  Basis Set: 6-31G*
  Basis Set:
  @DF-RHF Final Energy:  -501.04412182246085
    Total Energy =                       -501.0441218224605109
  Basis Set: 6-31G*
  Basis Set:
  Basis Set: 6-31G*
  Basis Set:
  @DF-RHF Final Energy:  -501.04421296530984
    Total Energy =                       -501.0442129653104075
  Basis Set: 6-31G*
  Basis Set:
  Basis Set: 6-31G*
  Basis Set:
  @DF-RHF Final Energy:  -501.04421610120426
    Total Energy =                       -501.0442161012044835
  Basis Set: 6-31G*
  Basis Set:
  Charge       = 0
  Multiplicity = 1
  Basis Set: 6-31G*
  Basis Set:

    Orbital Energies (a.u.)
    -----------------------

    Doubly Occupied:

       1A    -20.603395     2A    -20.545219     3A    -11.371904
       4A    -11.280683     5A    -11.235152     6A    -11.219028
       7A    -11.217460     8A    -11.214567     9A    -11.214269
      10A    -11.213105    11A    -11.208121    12A     -1.469069
      13A     -1.362509    14A     -1.096912    15A     -1.067039
      16A     -1.020076    17A     -0.977390    18A     -0.926608
      19A     -0.855617    20A     -0.801354    21A     -0.790080
      22A     -0.766617    23A     -0.697078    24A     -0.683389
      25A     -0.671428    26A     -0.656409    27A     -0.630473
      28A     -0.597699    29A     -0.592385    30A     -0.583802
      31A     -0.565926    32A     -0.549850    33A     -0.529878
      34A     -0.524109    35A     -0.514919    36A     -0.514194
      37A     -0.491624    38A     -0.480384    39A     -0.468993
      40A     -0.462277    41A     -0.460488    42A     -0.455491
      43A     -0.446069    44A     -0.430710

  @DF-RHF Final Energy:  -501.04421665976895

   => Energetics <=

    Nuclear Repulsion Energy =            601.9891664288637685
    One-Electron Energy =               -1875.1392748915304765
    Two-Electron Energy =                 772.1058918028973039
    DFT Exchange-Correlation Energy =       0.0000000000000000
    Empirical Dispersion Energy =           0.0000000000000000
    PCM Polarization Energy =               0.0000000000000000
    EFP Energy =                            0.0000000000000000
    Total Energy =                       -501.0442166597692903
    Molecular point group: c1
  Basis Set: 6-31G*
  Basis Set:

  -Total Gradient:
     Atom            X                  Y                   Z
    ------   -----------------  -----------------  -----------------
       1        0.000007263999    -0.000000278572     0.000017102381
       2       -0.000008543543    -0.000014649246    -0.000005454068
       3        0.000001277094    -0.000012297540    -0.000026330235
       4        0.000013506551    -0.000005236074    -0.000015145825
       5        0.000263911914     0.004694397667     0.001384703401
       6        0.000000132027     0.000008110753     0.000014475914
       7        0.000006567110     0.000009560035     0.000010135234
       8       -0.001209467934    -0.001269896726    -0.003608310483
       9        0.000056478449    -0.003683650718    -0.000312113708
      10        0.000000638398    -0.000004839321    -0.000001300939
      11        0.000867922740     0.000267181322     0.002525093177
      12       -0.000003865261     0.000005706580    -0.000003933594
      13        0.000003514374    -0.000008267693     0.000000339298
      14        0.000006064572     0.000013110642     0.000012958305
      15        0.000003789634    -0.000002034104    -0.000004092657
      16        0.000002875442     0.000000167683    -0.000000080904
      17       -0.000006048494    -0.000002691544     0.000007213958
      18       -0.000004582236     0.000003279415     0.000005277805
      19        0.000004200129    -0.000001362623     0.000003354234
      20       -0.000006451039     0.000002654518    -0.000014493023
      21        0.000004803990    -0.000007301565     0.000001252238
      22       -0.000002204262     0.000004839153     0.000002415682
      23       -0.000002168912    -0.000000465370    -0.000002618140
      24        0.000004079501     0.000003657135     0.000000758355
      25       -0.000003167052    -0.000003509442     0.000002586132
      26        0.000002083599     0.000004609975     0.000008127582
      27       -0.000002318893    -0.000000208057    -0.000001736220
      28       -0.000001730398    -0.000000105715    -0.000000131766
      29        0.000001438500    -0.000000480563    -0.000000052132

  **** Optimization is complete! (in 7 steps) ****
    Final optimized geometry and variables:
    Molecular point group: c1

    Geometry (in Angstrom), charge = 0, multiplicity = 1:

    O            3.047699869625    -0.351200009834    -1.194207928532
    C            2.558248382382    -1.217733113225    -0.543978813638
    C            1.147657550908    -1.223075888828    -0.007253870791
    O            3.209396021641    -2.320671513371    -0.196328609683
    C            0.350026107081     0.024408838709    -0.381522415097
    H            0.663184163217    -2.124017073012    -0.374335759540
    H            1.211493329388    -1.340838972555     1.070950794000
    C           -1.095119795988    -0.043797564213     0.126904831299
    H            0.355828185933     0.115832326594    -1.462609965461
    H            0.851709701221     0.901367687561     0.013312470334
    C           -1.766352220999     1.328416983769     0.212833416109
    H           -1.111612845625    -0.495483148091     1.117817641040
    H           -1.676328841204    -0.702963602121    -0.514351574311
    C           -3.223162315453     1.261318657278     0.673635123300
    H           -1.199388611034     1.956246277891     0.897363791528
    H           -1.718129612657     1.817630496848    -0.758778099822
    C           -3.889789370546     2.634409433115     0.776105057375
    H           -3.272524649333     0.765893408101     1.642178909045
    H           -3.790752060037     0.638099147810    -0.015536227272
    C           -5.345651108268     2.559309369988     1.234924356281
    H           -3.325719427889     3.257600396602     1.466814120819
    H           -3.841554873542     3.130765988000    -0.190757488744
    H           -5.790424935941     3.547713049868     1.297142867834
    H           -5.424415913592     2.098975448048     2.215852832020
    H           -5.944134811607     1.970261435780     0.545621321982
    C            4.550009833134    -2.441015686168    -0.635852230576
    H            4.598890779473    -2.426713408358    -1.715174076052
    H            4.900429005879    -3.388958357977    -0.258236550902
    H            5.152829609671    -1.635221272737    -0.242358129936

  Mulliken Charges: (a.u.)
   Center  Symbol    Alpha    Beta     Spin     Total
       1     O     4.28616  4.28616  0.00000 -0.57232
       2     C     2.60506  2.60506  0.00000  0.78988
       3     C     3.20933  3.20933  0.00000 -0.41866
       4     O     4.30735  4.30735  0.00000 -0.61470
       5     C     3.15261  3.15261  0.00000 -0.30521
       6     H     0.40076  0.40076  0.00000  0.19849
       7     H     0.40077  0.40077  0.00000  0.19846
       8     C     3.15519  3.15519  0.00000 -0.31037
       9     H     0.41052  0.41052  0.00000  0.17896
      10     H     0.41136  0.41136  0.00000  0.17727
      11     C     3.15256  3.15256  0.00000 -0.30511
      12     H     0.42458  0.42458  0.00000  0.15084
      13     H     0.42130  0.42130  0.00000  0.15740
      14     C     3.15103  3.15103  0.00000 -0.30206
      15     H     0.42252  0.42252  0.00000  0.15495
      16     H     0.42175  0.42175  0.00000  0.15650
      17     C     3.15147  3.15147  0.00000 -0.30294
      18     H     0.42448  0.42448  0.00000  0.15104
      19     H     0.42407  0.42407  0.00000  0.15187
      20     C     3.23928  3.23928  0.00000 -0.47856
      21     H     0.42295  0.42295  0.00000  0.15409
      22     H     0.42260  0.42260  0.00000  0.15480
      23     H     0.41925  0.41925  0.00000  0.16150
      24     H     0.42203  0.42203  0.00000  0.15593
      25     H     0.42190  0.42190  0.00000  0.15620
      26     C     3.09241  3.09241  0.00000 -0.18483
      27     H     0.40911  0.40911  0.00000  0.18178
      28     H     0.40848  0.40848  0.00000  0.18305
      29     H     0.40912  0.40912  0.00000  0.18176

   Total alpha = 44.00000, Total beta = 44.00000, Total charge =  0.00000
