  ==> Input File <==

--------------------------------------------------------------------------
set {
	reference rhf
	basis cc-pvtz
}

set_num_threads( 4 )
memory 2 gb

molecule MOL {
0 1

H	 2.649487	 0.012967	 0.948555
O	 1.804584	 -0.408871	 0.992469
C	 1.050374	 0.054877	 0.000135
C	 -0.318151	 -0.570512	 0.000144
O	 1.447090	 0.861630	 -0.767807
C	 -1.454884	 0.441630	 -0.000560
H	 -0.371613	 -1.223646	 -0.864985
H	 -0.371920	 -1.222758	 0.865929
C	 -2.822577	 -0.232186	 0.000063
H	 -1.359760	 1.084704	 -0.867077
H	 -1.359641	 1.085996	 0.864983
H	 -2.954352	 -0.858985	 -0.875745
H	 -3.615886	 0.505352	 0.000019
H	 -2.953878	 -0.858359	 0.876394

	symmetry c1
}
set optking {
	frozen_dihedral = ("
		2 3 4 7
	")
}

ee = optimize('scf')
oeprop('DIPOLE', 'QUADRUPOLE', 'MULLIKEN_CHARGES')
f=open( 'psi4out.xyz', 'w' )
f.write( "14  " )
f.write( str(ee) + "\n" )
f.write( MOL.save_string_xyz() )
f.close()
--------------------------------------------------------------------------

    Molecular point group: c1
  Charge       = 0
  Multiplicity = 1
  Basis Set: CC-PVTZ
  Basis Set:
  @DF-RHF Final Energy:  -305.99891792180631
    Total Energy =                       -305.9989179218063100
    Molecular point group: c1
  Basis Set: CC-PVTZ
  Basis Set:
  Basis Set: CC-PVTZ
  Basis Set:
  @DF-RHF Final Energy:  -305.99951533552382
    Total Energy =                       -305.9995153355237107
  Basis Set: CC-PVTZ
  Basis Set:
  Basis Set: CC-PVTZ
  Basis Set:
  @DF-RHF Final Energy:  -305.99907096638464
    Total Energy =                       -305.9990709663845792
  Basis Set: CC-PVTZ
  Basis Set:
  Basis Set: CC-PVTZ
  Basis Set:
  @DF-RHF Final Energy:  -305.99956079419400
    Total Energy =                       -305.9995607941941103
  Basis Set: CC-PVTZ
  Basis Set:
  Basis Set: CC-PVTZ
  Basis Set:
  @DF-RHF Final Energy:  -305.99956226936649
    Total Energy =                       -305.9995622693664359
  Basis Set: CC-PVTZ
  Basis Set:
  Charge       = 0
  Multiplicity = 1
  Basis Set: CC-PVTZ
  Basis Set:

    Orbital Energies (a.u.)
    -----------------------

    Doubly Occupied:

       1A    -20.606620     2A    -20.538464     3A    -11.373859
       4A    -11.238739     5A    -11.228897     6A    -11.217051
       7A     -1.478602     8A     -1.368767     9A     -1.085261
      10A     -0.980283    11A     -0.857676    12A     -0.801035
      13A     -0.706191    14A     -0.690987    15A     -0.656868
      16A     -0.627674    17A     -0.596553    18A     -0.572993
      19A     -0.550488    20A     -0.512060    21A     -0.495129
      22A     -0.487646    23A     -0.476108    24A     -0.444896

  @DF-RHF Final Energy:  -305.99956244178316

   => Energetics <=

    Nuclear Repulsion Energy =            240.4633369540259480
    One-Electron Energy =                -893.7401043258021218
    Two-Electron Energy =                 347.2772049299929904
    DFT Exchange-Correlation Energy =       0.0000000000000000
    Empirical Dispersion Energy =           0.0000000000000000
    PCM Polarization Energy =               0.0000000000000000
    EFP Energy =                            0.0000000000000000
    Total Energy =                       -305.9995624417831550
    Molecular point group: c1
  Basis Set: CC-PVTZ
  Basis Set:

  -Total Gradient:
     Atom            X                  Y                   Z
    ------   -----------------  -----------------  -----------------
       1       -0.000004063513     0.000000083934    -0.000004761790
       2       -0.000186683637     0.000385798945     0.000380885967
       3        0.000176546564    -0.000383893885    -0.000615634745
       4        0.000251913904    -0.000506839008     0.000562494377
       5        0.000004245639    -0.000015857991     0.000017807367
       6        0.000001416809     0.000020227529     0.000003826719
       7       -0.000253616813     0.000524223335    -0.000335342273
       8       -0.000005050569    -0.000013213381     0.000003658598
       9        0.000008159815    -0.000010453401    -0.000008814710
      10       -0.000006142943     0.000004593086    -0.000001955377
      11        0.000004383927    -0.000010136559    -0.000003091738
      12       -0.000000530325    -0.000003543841     0.000001919040
      13        0.000005277886     0.000005917611    -0.000001683686
      14        0.000004143257     0.000003093626     0.000000692251

  **** Optimization is complete! (in 6 steps) ****
    Final optimized geometry and variables:
    Molecular point group: c1

    Geometry (in Angstrom), charge = 0, multiplicity = 1:

    H            2.704260839264     0.009543061456     0.816254468522
    O            1.870471752005    -0.427817686268     0.906632334897
    C            1.055140612573     0.027923465979    -0.037550693836
    C           -0.304601141498    -0.620438075433    -0.006363961442
    O            1.391966595177     0.854996044968    -0.813753464927
    C           -1.434424303157     0.409397849424    -0.039069471570
    H           -0.363724823251    -1.249837408976    -0.888625625227
    H           -0.381058578459    -1.259719761938     0.861749849766
    C           -2.808919592784    -0.247836384069    -0.078873596118
    H           -1.301027826783     1.048578309229    -0.901937193231
    H           -1.361932312769     1.047997966786     0.835697418130
    H           -2.921259898635    -0.866644661525    -0.962749244386
    H           -3.593006606296     0.499401288534    -0.096511335267
    H           -2.971290943496    -0.877664084358     0.789278773211

  Mulliken Charges: (a.u.)
   Center  Symbol    Alpha    Beta     Spin     Total
       1     H     0.38059  0.38059  0.00000  0.23882
       2     O     4.15754  4.15754  0.00000 -0.31508
       3     C     2.80909  2.80909  0.00000  0.38183
       4     C     3.09163  3.09163  0.00000 -0.18326
       5     O     4.19777  4.19777  0.00000 -0.39554
       6     C     3.08753  3.08753  0.00000 -0.17506
       7     H     0.44386  0.44386  0.00000  0.11229
       8     H     0.43780  0.43780  0.00000  0.12439
       9     C     3.14990  3.14990  0.00000 -0.29980
      10     H     0.43924  0.43924  0.00000  0.12153
      11     H     0.45083  0.45083  0.00000  0.09833
      12     H     0.45384  0.45384  0.00000  0.09232
      13     H     0.44547  0.44547  0.00000  0.10905
      14     H     0.45491  0.45491  0.00000  0.09019

   Total alpha = 24.00000, Total beta = 24.00000, Total charge =  0.00000
