  ==> Input File <==

--------------------------------------------------------------------------
set {
	reference rhf
	basis 6-31G*
}

set_num_threads( 1 )
memory 2 gb

molecule MOL {
0 1

O	 1.214711	 1.306902	 -0.000018
C	 1.122059	 0.121804	 -0.000188
C	 -0.170150	 -0.657997	 -0.000612
O	 2.172624	 -0.688929	 0.000216
C	 -1.412532	 0.227344	 -0.000452
H	 -0.153702	 -1.313099	 -0.867402
H	 -0.153924	 -1.313811	 0.865644
C	 -2.572146	 -0.398251	 0.776266
H	 -1.716445	 0.418594	 -1.024935
H	 -1.163446	 1.194290	 0.425546
C	 -3.820631	 0.482800	 0.782592
H	 -2.817125	 -1.367164	 0.345835
H	 -2.261420	 -0.590176	 1.801295
H	 -4.176460	 0.664763	 -0.227323
H	 -4.627384	 0.016377	 1.339256
H	 -3.616948	 1.447044	 1.239085
C	 3.452279	 -0.082609	 0.000533
H	 3.583069	 0.529321	 -0.880332
H	 4.163299	 -0.894027	 0.001117
H	 3.582335	 0.529955	 0.881077

	symmetry c1
}
set optking {
	frozen_dihedral = ("
		9 5 8 12,
		1 2 3 6,
		1 2 4 17
	")
}

ee = energy('scf')
oeprop('DIPOLE', 'QUADRUPOLE', 'MULLIKEN_CHARGES')
f=open( 'psi4out.xyz', 'w' )
f.write( "20  " )
f.write( str(ee) + "\n" )
f.write( MOL.save_string_xyz() )
f.close()
--------------------------------------------------------------------------

    Molecular point group: c1

    Geometry (in Angstrom), charge = 0, multiplicity = 1:

       Center              X                  Y                   Z               Mass
    ------------   -----------------  -----------------  -----------------  -----------------
           O          1.180810441378     1.259364937376    -0.194965274647    15.994914619560
           C          1.088158441378     0.074266937376    -0.195135274647    12.000000000000
           C         -0.204050558622    -0.705534062624    -0.195559274647    12.000000000000
           O          2.138723441378    -0.736466062624    -0.194731274647    15.994914619560
           C         -1.446432558622     0.179806937376    -0.195399274647    12.000000000000
           H         -0.187602558622    -1.360636062624    -1.062349274647     1.007825032070
           H         -0.187824558622    -1.361348062624     0.670696725353     1.007825032070
           C         -2.606046558622    -0.445788062624     0.581318725353    12.000000000000
           H         -1.750345558622     0.371056937376    -1.219882274647     1.007825032070
           H         -1.197346558622     1.146752937376     0.230598725353     1.007825032070
           C         -3.854531558622     0.435262937376     0.587644725353    12.000000000000
           H         -2.851025558622    -1.414701062624     0.150887725353     1.007825032070
           H         -2.295320558622    -0.637713062624     1.606347725353     1.007825032070
           H         -4.210360558622     0.617225937376    -0.422270274647     1.007825032070
           H         -4.661284558622    -0.031160062624     1.144308725353     1.007825032070
           H         -3.650848558622     1.399506937376     1.044137725353     1.007825032070
           C          3.418378441378    -0.130146062624    -0.194414274647    12.000000000000
           H          3.549168441378     0.481783937376    -1.075279274647     1.007825032070
           H          4.129398441378    -0.941564062624    -0.193830274647     1.007825032070
           H          3.548434441378     0.482417937376     0.686129725353     1.007825032070

  Charge       = 0
  Multiplicity = 1
  Basis Set: 6-31G*
  Basis Set:

    Orbital Energies (a.u.)
    -----------------------

    Doubly Occupied:

       1A    -20.604171     2A    -20.546096     3A    -11.372848
       4A    -11.281152     5A    -11.234797     6A    -11.219495
       7A    -11.216757     8A    -11.209703     9A     -1.469895
      10A     -1.363565    11A     -1.088066    12A     -1.023884
      13A     -0.969026    14A     -0.885171    15A     -0.804299
      16A     -0.767349    17A     -0.699947    18A     -0.682396
      19A     -0.672744    20A     -0.641785    21A     -0.599564
      22A     -0.592182    23A     -0.578839    24A     -0.543663
      25A     -0.531371    26A     -0.521643    27A     -0.502746
      28A     -0.478540    29A     -0.469269    30A     -0.467379
      31A     -0.456728    32A     -0.438540

  @DF-RHF Final Energy:  -383.93866514393511

   => Energetics <=

    Nuclear Repulsion Energy =            381.9599837328731269
    One-Electron Energy =               -1279.9301836844088029
    Two-Electron Energy =                 514.0315348075997690
    DFT Exchange-Correlation Energy =       0.0000000000000000
    Empirical Dispersion Energy =           0.0000000000000000
    PCM Polarization Energy =               0.0000000000000000
    EFP Energy =                            0.0000000000000000
    Total Energy =                       -383.9386651439359639

  Mulliken Charges: (a.u.)
   Center  Symbol    Alpha    Beta     Spin     Total
       1     O     4.28496  4.28496  0.00000 -0.56991
       2     C     2.60933  2.60933  0.00000  0.78134
       3     C     3.20948  3.20948  0.00000 -0.41896
       4     O     4.30615  4.30615  0.00000 -0.61230
       5     C     3.15677  3.15677  0.00000 -0.31355
       6     H     0.39855  0.39855  0.00000  0.20290
       7     H     0.39941  0.39941  0.00000  0.20118
       8     C     3.15573  3.15573  0.00000 -0.31146
       9     H     0.41753  0.41753  0.00000  0.16494
      10     H     0.39896  0.39896  0.00000  0.20209
      11     C     3.23986  3.23986  0.00000 -0.47971
      12     H     0.42345  0.42345  0.00000  0.15310
      13     H     0.42204  0.42204  0.00000  0.15592
      14     H     0.42090  0.42090  0.00000  0.15821
      15     H     0.41897  0.41897  0.00000  0.16206
      16     H     0.41917  0.41917  0.00000  0.16166
      17     C     3.09232  3.09232  0.00000 -0.18465
      18     H     0.40899  0.40899  0.00000  0.18201
      19     H     0.40838  0.40838  0.00000  0.18323
      20     H     0.40905  0.40905  0.00000  0.18190

   Total alpha = 32.00000, Total beta = 32.00000, Total charge =  0.00000
