  ==> Input File <==

--------------------------------------------------------------------------
set {
	reference rhf
	basis 6-31G*
}

set_num_threads( 4 )
memory 2 gb

molecule MOL {
0 1

H	 1.560076	 0.073503	 -2.983108
C	 1.517351	 0.185980	 -1.903405
C	 0.125980	 -0.167171	 -1.387176
H	 1.757749	 1.213399	 -1.653641
H	 2.287087	 -0.448892	 -1.477990
N	 -0.000257	 -0.000071	 0.054619
H	 -0.587484	 0.488222	 -1.870709
H	 -0.140803	 -1.183499	 -1.691467
C	 -1.363055	 0.315058	 0.462241
C	 0.558585	 -1.122238	 0.796976
C	 -2.412078	 -0.285320	 -0.468531
H	 -1.482241	 1.391144	 0.451970
H	 -1.549931	 -0.001174	 1.492681
C	 1.067882	 -0.722294	 2.178244
H	 1.393171	 -1.521642	 0.234751
H	 -0.165849	 -1.937237	 0.885077
H	 -2.262839	 0.075384	 -1.480151
H	 -2.369300	 -1.368867	 -0.491760
H	 -3.410332	 -0.003975	 -0.144961
H	 1.829422	 0.044118	 2.087114
H	 0.277677	 -0.332751	 2.811002
H	 1.500051	 -1.580494	 2.685244

	symmetry c1
}
set optking {
	frozen_dihedral = ("
		3 6 9 11
	")
}

ee = optimize('scf')
oeprop('DIPOLE', 'QUADRUPOLE', 'MULLIKEN_CHARGES')
f=open( 'psi4out.xyz', 'w' )
f.write( "22  " )
f.write( str(ee) + "\n" )
f.write( MOL.save_string_xyz() )
f.close()
--------------------------------------------------------------------------

    Molecular point group: c1
  Charge       = 0
  Multiplicity = 1
  Basis Set: 6-31G*
  Basis Set:
  @DF-RHF Final Energy:  -290.35976115037954
    Total Energy =                       -290.3597611503795406
    Molecular point group: c1
  Basis Set: 6-31G*
  Basis Set:
  Basis Set: 6-31G*
  Basis Set:
  @DF-RHF Final Energy:  -290.35806843236833
    Total Energy =                       -290.3580684323685546
  Basis Set: 6-31G*
  Basis Set:
  Basis Set: 6-31G*
  Basis Set:
  @DF-RHF Final Energy:  -290.36469817983857
    Total Energy =                       -290.3646981798380011
  Basis Set: 6-31G*
  Basis Set:
  Basis Set: 6-31G*
  Basis Set:
  @DF-RHF Final Energy:  -290.36550099968804
    Total Energy =                       -290.3655009996881518
  Basis Set: 6-31G*
  Basis Set:
  Basis Set: 6-31G*
  Basis Set:
  @DF-RHF Final Energy:  -290.36555158756642
    Total Energy =                       -290.3655515875663014
  Basis Set: 6-31G*
  Basis Set:
  Basis Set: 6-31G*
  Basis Set:
  @DF-RHF Final Energy:  -290.36558651498274
    Total Energy =                       -290.3655865149827378
  Basis Set: 6-31G*
  Basis Set:
  Basis Set: 6-31G*
  Basis Set:
  @DF-RHF Final Energy:  -290.36561927543534
    Total Energy =                       -290.3656192754354493
  Basis Set: 6-31G*
  Basis Set:
  Charge       = 0
  Multiplicity = 1
  Basis Set: 6-31G*
  Basis Set:

    Orbital Energies (a.u.)
    -----------------------

    Doubly Occupied:

       1A    -15.535637     2A    -11.240450     3A    -11.239924
       4A    -11.238632     5A    -11.209646     6A    -11.204475
       7A    -11.203431     8A     -1.219051     9A     -1.022669
      10A     -1.021336    11A     -0.955482    12A     -0.856780
      13A     -0.845508    14A     -0.759218    15A     -0.657410
      16A     -0.641126    17A     -0.617412    18A     -0.597625
      19A     -0.577250    20A     -0.545894    21A     -0.541719
      22A     -0.515965    23A     -0.511449    24A     -0.505527
      25A     -0.491891    26A     -0.491407    27A     -0.464870
      28A     -0.456658    29A     -0.335481

  @DF-RHF Final Energy:  -290.36561946562921

   => Energetics <=

    Nuclear Repulsion Energy =            337.9330929997572071
    One-Electron Energy =               -1061.5895835603080286
    Two-Electron Energy =                 433.2908710949216697
    DFT Exchange-Correlation Energy =       0.0000000000000000
    Empirical Dispersion Energy =           0.0000000000000000
    PCM Polarization Energy =               0.0000000000000000
    EFP Energy =                            0.0000000000000000
    Total Energy =                       -290.3656194656290950
    Molecular point group: c1
  Basis Set: 6-31G*
  Basis Set:

  -Total Gradient:
     Atom            X                  Y                   Z
    ------   -----------------  -----------------  -----------------
       1       -0.000014836310     0.000001216970    -0.000001802386
       2       -0.000004292163    -0.000007106699     0.000035455937
       3       -0.001063675977    -0.005908546064     0.000479431082
       4        0.000002155705    -0.000001398361     0.000001536081
       5        0.000004777375    -0.000000507988     0.000005816109
       6        0.001545776232     0.010725478295    -0.002185622747
       7       -0.000007807418     0.000011939085     0.000013609608
       8        0.000009770876     0.000005171415     0.000001005376
       9       -0.000512740903    -0.009693772060     0.004914323078
      10        0.000016038825    -0.000028433386    -0.000027996619
      11        0.000025092836     0.004848547309    -0.003185019130
      12        0.000000563596     0.000004974526     0.000011477464
      13        0.000032905357    -0.000002682726    -0.000019117974
      14       -0.000024540885     0.000030376731    -0.000013742463
      15        0.000013020132    -0.000002756910    -0.000013941066
      16       -0.000010806018     0.000009837887    -0.000003017183
      17       -0.000005257046    -0.000000510339    -0.000009426730
      18       -0.000007227307    -0.000001671155     0.000004264741
      19        0.000001828330     0.000003079215     0.000000880646
      20        0.000004917795     0.000007122566     0.000003859566
      21       -0.000000220272     0.000002723100     0.000012557456
      22       -0.000005442759    -0.000003081409    -0.000024530846

  **** Optimization is complete! (in 8 steps) ****
    Final optimized geometry and variables:
    Molecular point group: c1

    Geometry (in Angstrom), charge = 0, multiplicity = 1:

    H            1.759046288218     0.358145096303    -2.889139481118
    C            1.679467972203     0.413971027615    -1.807036899657
    C            0.249894507556     0.101175995977    -1.370340319242
    H            1.953285150411     1.414922519480    -1.492646920110
    H            2.405497372542    -0.276739602098    -1.393068095937
    N            0.057852319205     0.254241931366     0.064667321959
    H           -0.397953629572     0.808720091544    -1.872953348891
    H           -0.037959757961    -0.891770587579    -1.723549175553
    C           -1.318837251746     0.538315357346     0.482980543629
    C            0.642539458298    -0.844693557016     0.827742887392
    C           -2.457460764517    -0.018090774638    -0.380490067901
    H           -1.444420943884     1.617828505104     0.534776235312
    H           -1.442735310804     0.176280829346     1.495107040281
    C            1.154516739807    -0.399921676717     2.194357100279
    H            1.478290438824    -1.248785695527     0.272003837180
    H           -0.066313872673    -1.668647116209     0.945813381486
    H           -2.488189633683     0.430618644422    -1.365366481884
    H           -2.388775440717    -1.095238711147    -0.503402832171
    H           -3.406077053755     0.197172665032     0.102810106460
    H            1.907741475594     0.371333716236     2.076929761610
    H            0.361996336356     0.002859999590     2.816215831381
    H            1.596652931402    -1.237798776807     2.726482574245

  Mulliken Charges: (a.u.)
   Center  Symbol    Alpha    Beta     Spin     Total
       1     H     0.42338  0.42338  0.00000  0.15324
       2     C     3.23642  3.23642  0.00000 -0.47283
       3     C     3.05765  3.05765  0.00000 -0.11529
       4     H     0.41472  0.41472  0.00000  0.17057
       5     H     0.42153  0.42153  0.00000  0.15694
       6     N     3.78782  3.78782  0.00000 -0.57565
       7     H     0.41866  0.41866  0.00000  0.16267
       8     H     0.43165  0.43165  0.00000  0.13670
       9     C     3.05277  3.05277  0.00000 -0.10553
      10     C     3.06248  3.06248  0.00000 -0.12495
      11     C     3.25208  3.25208  0.00000 -0.50417
      12     H     0.41912  0.41912  0.00000  0.16176
      13     H     0.41940  0.41940  0.00000  0.16120
      14     C     3.23340  3.23340  0.00000 -0.46680
      15     H     0.41900  0.41900  0.00000  0.16199
      16     H     0.43197  0.43197  0.00000  0.13607
      17     H     0.41802  0.41802  0.00000  0.16395
      18     H     0.41962  0.41962  0.00000  0.16077
      19     H     0.41852  0.41852  0.00000  0.16296
      20     H     0.41566  0.41566  0.00000  0.16869
      21     H     0.42145  0.42145  0.00000  0.15710
      22     H     0.42469  0.42469  0.00000  0.15061

   Total alpha = 29.00000, Total beta = 29.00000, Total charge = -0.00000
