  ==> Input File <==

--------------------------------------------------------------------------
set {
	reference rhf
	basis cc-pvtz
}

set_num_threads( 4 )
memory 2 gb

molecule MOL {
0 1

H	 -2.642241	 0.708167	 0.202964
O	 -2.313989	 -0.142475	 -0.025864
C	 -0.943808	 -0.065018	 -0.330000
H	 -0.812293	 -0.225641	 -1.398673
C	 -0.231030	 -1.182113	 0.407592
C	 -0.353797	 1.300461	 0.050970
H	 -0.312800	 -0.992012	 1.473041
H	 -0.738841	 -2.119564	 0.220514
C	 1.246176	 -1.268044	 -0.015480
H	 -0.539537	 2.008579	 -0.751815
H	 -0.889989	 1.662858	 0.920677
C	 1.153605	 1.231851	 0.356834
H	 1.823096	 -1.684665	 0.802361
H	 1.352335	 -1.958223	 -0.845114
C	 1.826409	 0.100723	 -0.416008
H	 1.622968	 2.181508	 0.128734
H	 1.301983	 1.066493	 1.419367
H	 2.897299	 0.112407	 -0.249665
H	 1.683458	 0.265621	 -1.480024

	symmetry c1
}
set optking {
	frozen_dihedral = ("
		1 2 3 4
	")
}

ee = optimize('scf')
oeprop('DIPOLE', 'QUADRUPOLE', 'MULLIKEN_CHARGES')
f=open( 'psi4out.xyz', 'w' )
f.write( "19  " )
f.write( str(ee) + "\n" )
f.write( MOL.save_string_xyz() )
f.close()
--------------------------------------------------------------------------

    Molecular point group: c1
  Charge       = 0
  Multiplicity = 1
  Basis Set: CC-PVTZ
  Basis Set:
  @DF-RHF Final Energy:  -309.16152454307957
    Total Energy =                       -309.1615245430799632
    Molecular point group: c1
  Basis Set: CC-PVTZ
  Basis Set:
  Basis Set: CC-PVTZ
  Basis Set:
  @DF-RHF Final Energy:  -309.16174843121428
    Total Energy =                       -309.1617484312140505
  Basis Set: CC-PVTZ
  Basis Set:
  Basis Set: CC-PVTZ
  Basis Set:
  @DF-RHF Final Energy:  -309.16181594434937
    Total Energy =                       -309.1618159443493710
  Basis Set: CC-PVTZ
  Basis Set:
  Charge       = 0
  Multiplicity = 1
  Basis Set: CC-PVTZ
  Basis Set:

    Orbital Energies (a.u.)
    -----------------------

    Doubly Occupied:

       1A    -20.541180     2A    -11.267131     3A    -11.219500
       4A    -11.218451     5A    -11.215141     6A    -11.213615
       7A    -11.206150     8A     -1.361609     9A     -1.111863
      10A     -1.005696    11A     -0.990208    12A     -0.847395
      13A     -0.840838    14A     -0.744002    15A     -0.679830
      16A     -0.670025    17A     -0.624586    18A     -0.602610
      19A     -0.582814    20A     -0.552285    21A     -0.529322
      22A     -0.521519    23A     -0.502576    24A     -0.486897
      25A     -0.469726    26A     -0.450407    27A     -0.427904
      28A     -0.413694

  @DF-RHF Final Energy:  -309.16181699418371

   => Energetics <=

    Nuclear Repulsion Energy =            332.0072642992427063
    One-Electron Energy =               -1077.7442049529367978
    Two-Electron Energy =                 436.5751236595109503
    DFT Exchange-Correlation Energy =       0.0000000000000000
    Empirical Dispersion Energy =           0.0000000000000000
    PCM Polarization Energy =               0.0000000000000000
    EFP Energy =                            0.0000000000000000
    Total Energy =                       -309.1618169941831411
    Molecular point group: c1
  Basis Set: CC-PVTZ
  Basis Set:

  -Total Gradient:
     Atom            X                  Y                   Z
    ------   -----------------  -----------------  -----------------
       1        0.000232213773    -0.000230892304     0.001110197379
       2       -0.000310852416     0.000013468944    -0.001335564047
       3       -0.000101991714     0.001124956548     0.000122303882
       4        0.000121874317    -0.000972568983     0.000204348745
       5       -0.000013039748    -0.000043325984    -0.000070896223
       6        0.000075359603     0.000015111903    -0.000029407074
       7       -0.000007547760     0.000017383616    -0.000033912910
       8       -0.000024719890    -0.000016605165     0.000014355788
       9       -0.000010611070     0.000017045002     0.000002632862
      10        0.000009509931     0.000011091881     0.000010253104
      11        0.000011960042    -0.000000853311    -0.000000442661
      12       -0.000011894351     0.000047480219    -0.000023541426
      13        0.000006195819    -0.000002432379     0.000007722403
      14       -0.000000265206     0.000000936821     0.000016480173
      15        0.000011333611    -0.000012667827     0.000001905181
      16        0.000013001877     0.000016498252     0.000019551010
      17       -0.000000362304    -0.000003062743    -0.000004939807
      18       -0.000005373343     0.000005104068    -0.000008174393
      19        0.000005208824     0.000013331440    -0.000002871986

  **** Optimization is complete! (in 4 steps) ****
    Final optimized geometry and variables:
    Molecular point group: c1

    Geometry (in Angstrom), charge = 0, multiplicity = 1:

    H           -2.668219467149     0.705325338099     0.149188149660
    O           -2.325135333551    -0.139846386701    -0.070826199485
    C           -0.942513801057    -0.065306157939    -0.323563513289
    H           -0.798946224842    -0.225340226136    -1.389116449340
    C           -0.227814133234    -1.183455465821     0.414709002472
    C           -0.354831816698     1.297321585106     0.061369241349
    H           -0.303157186385    -0.993973149605     1.481278254437
    H           -0.739039061918    -2.119882376655     0.230874086825
    C            1.246506031287    -1.272079707596    -0.018093489363
    H           -0.556047259439     2.010767505069    -0.731400849623
    H           -0.871133082643     1.656637866813     0.947543850815
    C            1.156249189010     1.229290859670     0.350839710422
    H            1.830017400745    -1.687244964931     0.795848090843
    H            1.346786918042    -1.963065349679    -0.847657510210
    C            1.823059351191     0.096645285565    -0.425318224041
    H            1.621291921467     2.179113318002     0.115261553625
    H            1.315708009215     1.066736407429     1.412043144313
    H            2.894814383848     0.110808150614    -0.265249306858
    H            1.673274420178     0.260126604835    -1.488277619123

  Mulliken Charges: (a.u.)
   Center  Symbol    Alpha    Beta     Spin     Total
       1     H     0.39228  0.39228  0.00000  0.21543
       2     O     4.20776  4.20776  0.00000 -0.41551
       3     C     2.92304  2.92304  0.00000  0.15392
       4     H     0.45711  0.45711  0.00000  0.08578
       5     C     3.09489  3.09489  0.00000 -0.18979
       6     C     3.12536  3.12536  0.00000 -0.25072
       7     H     0.45825  0.45825  0.00000  0.08349
       8     H     0.44115  0.44115  0.00000  0.11771
       9     C     3.11409  3.11409  0.00000 -0.22818
      10     H     0.44399  0.44399  0.00000  0.11201
      11     H     0.45496  0.45496  0.00000  0.09008
      12     C     3.10032  3.10032  0.00000 -0.20064
      13     H     0.44716  0.44716  0.00000  0.10567
      14     H     0.44695  0.44695  0.00000  0.10609
      15     C     3.10254  3.10254  0.00000 -0.20509
      16     H     0.44186  0.44186  0.00000  0.11627
      17     H     0.45242  0.45242  0.00000  0.09516
      18     H     0.44268  0.44268  0.00000  0.11464
      19     H     0.45317  0.45317  0.00000  0.09366

   Total alpha = 28.00000, Total beta = 28.00000, Total charge = -0.00000
