  ==> Input File <==

--------------------------------------------------------------------------
set {
	reference rhf
	basis 6-31G*
}

set_num_threads( 1 )
memory 2 gb

molecule MOL {
0 1

O	 2.151022	 0.765797	 0.733206
C	 2.701189	 0.057885	 -0.047330
C	 2.765372	 0.275230	 -1.539788
O	 3.347903	 -1.046386	 0.304773
C	 2.044470	 1.542936	 -1.992929
H	 3.814740	 0.283401	 -1.815380
H	 2.341006	 -0.606532	 -2.013186
C	 2.010285	 1.723092	 -3.514398
H	 2.513016	 2.406608	 -1.530700
H	 1.027977	 1.516250	 -1.615499
C	 3.374876	 1.962888	 -4.166700
H	 1.364516	 2.568831	 -3.738970
H	 1.539063	 0.854361	 -3.971855
C	 3.275636	 2.245626	 -5.667103
H	 3.864169	 2.801950	 -3.674372
H	 4.019923	 1.100603	 -4.013888
C	 4.633677	 2.481639	 -6.330544
H	 2.641922	 3.116115	 -5.828006
H	 2.776816	 1.411695	 -6.158465
C	 4.525479	 2.767061	 -7.828051
H	 5.133933	 3.314007	 -5.840086
H	 5.267023	 1.610828	 -6.174526
H	 5.503823	 2.929883	 -8.269572
H	 3.926284	 3.653564	 -8.015863
H	 4.059837	 1.937476	 -8.352685
C	 4.728119	 -1.109107	 -0.004993
H	 4.882018	 -1.033965	 -1.071845
H	 5.068212	 -2.067527	 0.355250
H	 5.265056	 -0.311663	 0.488280

	symmetry c1
}
set optking {
	frozen_dihedral = ("
		21 17 14 11,
		17 14 11 15,
		15 11 8 5,
		6 3 5 9,
		11 8 5 9,
		2 4 26 27,
		6 3 2 1
	")
}

ee = energy('scf')
oeprop('DIPOLE', 'QUADRUPOLE', 'MULLIKEN_CHARGES')
f=open( 'psi4out.xyz', 'w' )
f.write( "29  " )
f.write( str(ee) + "\n" )
f.write( MOL.save_string_xyz() )
f.close()
--------------------------------------------------------------------------

    Molecular point group: c1

    Geometry (in Angstrom), charge = 0, multiplicity = 1:

       Center              X                  Y                   Z               Mass
    ------------   -----------------  -----------------  -----------------  -----------------
           O         -1.100605746082    -0.274888564372     3.441715702259    15.994914619560
           C         -0.550438746082    -0.982800564372     2.661179702259    12.000000000000
           C         -0.486255746082    -0.765455564372     1.168721702259    12.000000000000
           O          0.096275253918    -2.087071564372     3.013282702259    15.994914619560
           C         -1.207157746082     0.502250435628     0.715580702259    12.000000000000
           H          0.563112253918    -0.757284564372     0.893129702259     1.007825032070
           H         -0.910621746082    -1.647217564372     0.695323702259     1.007825032070
           C         -1.241342746082     0.682406435628    -0.805888297741    12.000000000000
           H         -0.738611746082     1.365922435628     1.177809702259     1.007825032070
           H         -2.223650746082     0.475564435628     1.093010702259     1.007825032070
           C          0.123248253918     0.922202435628    -1.458190297741    12.000000000000
           H         -1.887111746082     1.528145435628    -1.030460297741     1.007825032070
           H         -1.712564746082    -0.186324564372    -1.263345297741     1.007825032070
           C          0.024008253918     1.204940435628    -2.958593297741    12.000000000000
           H          0.612541253918     1.761264435628    -0.965862297741     1.007825032070
           H          0.768295253918     0.059917435628    -1.305378297741     1.007825032070
           C          1.382049253918     1.440953435628    -3.622034297741    12.000000000000
           H         -0.609705746082     2.075429435628    -3.119496297741     1.007825032070
           H         -0.474811746082     0.371009435628    -3.449955297741     1.007825032070
           C          1.273851253918     1.726375435628    -5.119541297741    12.000000000000
           H          1.882305253918     2.273321435628    -3.131576297741     1.007825032070
           H          2.015395253918     0.570142435628    -3.466016297741     1.007825032070
           H          2.252195253918     1.889197435628    -5.561062297741     1.007825032070
           H          0.674656253918     2.612878435628    -5.307353297741     1.007825032070
           H          0.808209253918     0.896790435628    -5.644175297741     1.007825032070
           C          1.476491253918    -2.149792564372     2.703516702259    12.000000000000
           H          1.630390253918    -2.074650564372     1.636664702259     1.007825032070
           H          1.816584253918    -3.108212564372     3.063759702259     1.007825032070
           H          2.013428253918    -1.352348564372     3.196789702259     1.007825032070

  Charge       = 0
  Multiplicity = 1
  Basis Set: 6-31G*
  Basis Set:

    Orbital Energies (a.u.)
    -----------------------

    Doubly Occupied:

       1A    -20.592573     2A    -20.552667     3A    -11.373785
       4A    -11.297018     5A    -11.237539     6A    -11.221488
       7A    -11.220337     8A    -11.219754     9A    -11.219022
      10A    -11.217638    11A    -11.211644    12A     -1.464576
      13A     -1.368922    14A     -1.100728    15A     -1.068084
      16A     -1.015383    17A     -0.984428    18A     -0.944455
      19A     -0.870026    20A     -0.805267    21A     -0.794545
      22A     -0.764095    23A     -0.700989    24A     -0.683008
      25A     -0.678423    26A     -0.653605    27A     -0.635946
      28A     -0.615076    29A     -0.596976    30A     -0.591545
      31A     -0.569026    32A     -0.556262    33A     -0.548845
      34A     -0.532161    35A     -0.523369    36A     -0.506252
      37A     -0.487739    38A     -0.481050    39A     -0.474362
      40A     -0.465656    41A     -0.465166    42A     -0.457161
      43A     -0.442391    44A     -0.430516

  @DF-RHF Final Energy:  -501.01839301062944

   => Energetics <=

    Nuclear Repulsion Energy =            617.4245345641351150
    One-Electron Energy =               -1905.6064535345906279
    Two-Electron Energy =                 787.1635259598251650
    DFT Exchange-Correlation Energy =       0.0000000000000000
    Empirical Dispersion Energy =           0.0000000000000000
    PCM Polarization Energy =               0.0000000000000000
    EFP Energy =                            0.0000000000000000
    Total Energy =                       -501.0183930106304615

  Mulliken Charges: (a.u.)
   Center  Symbol    Alpha    Beta     Spin     Total
       1     O     4.26017  4.26017  0.00000 -0.52033
       2     C     2.60701  2.60701  0.00000  0.78597
       3     C     3.22634  3.22634  0.00000 -0.45267
       4     O     4.30555  4.30555  0.00000 -0.61111
       5     C     3.15269  3.15269  0.00000 -0.30537
       6     H     0.40550  0.40550  0.00000  0.18899
       7     H     0.39930  0.39930  0.00000  0.20139
       8     C     3.15642  3.15642  0.00000 -0.31284
       9     H     0.41373  0.41373  0.00000  0.17254
      10     H     0.40687  0.40687  0.00000  0.18625
      11     C     3.15447  3.15447  0.00000 -0.30893
      12     H     0.41765  0.41765  0.00000  0.16469
      13     H     0.42376  0.42376  0.00000  0.15248
      14     C     3.15023  3.15023  0.00000 -0.30047
      15     H     0.42268  0.42268  0.00000  0.15464
      16     H     0.42665  0.42665  0.00000  0.14671
      17     C     3.15144  3.15144  0.00000 -0.30288
      18     H     0.42252  0.42252  0.00000  0.15497
      19     H     0.42370  0.42370  0.00000  0.15260
      20     C     3.23941  3.23941  0.00000 -0.47883
      21     H     0.42274  0.42274  0.00000  0.15452
      22     H     0.42433  0.42433  0.00000  0.15133
      23     H     0.41903  0.41903  0.00000  0.16194
      24     H     0.42108  0.42108  0.00000  0.15784
      25     H     0.42163  0.42163  0.00000  0.15675
      26     C     3.09793  3.09793  0.00000 -0.19586
      27     H     0.41769  0.41769  0.00000  0.16463
      28     H     0.39873  0.39873  0.00000  0.20255
      29     H     0.41075  0.41075  0.00000  0.17849

   Total alpha = 44.00000, Total beta = 44.00000, Total charge =  0.00000
