  ==> Input File <==

--------------------------------------------------------------------------
set {
	reference rhf
	basis cc-pvtz
}

set_num_threads( 4 )
memory 2 gb

molecule MOL {
0 1

H	 -0.000342	 -0.223902	 -3.352295
C	 -0.027146	 0.371068	 -2.446756
C	 0.024493	 -0.518541	 -1.216015
H	 -0.932586	 0.964979	 -2.449855
H	 0.819708	 1.049865	 -2.473332
N	 -0.042516	 0.263377	 -0.000000
H	 -0.822211	 -1.197105	 -1.225584
H	 0.921114	 -1.142847	 -1.255206
C	 0.024493	 -0.518541	 1.216015
H	 0.682568	 0.950412	 -0.000000
C	 0.392466	 -1.963289	 0.922602
H	 0.780069	 -0.076974	 1.857553
H	 -0.913264	 -0.488273	 1.777192
H	 1.343106	 -2.017136	 0.406902
H	 0.463564	 -2.535635	 1.840248
H	 -0.356757	 -2.437186	 0.295929

	symmetry c1
}
set optking {
	frozen_dihedral = ("
		12 9 6 3
	")
}

ee = optimize('scf')
oeprop('DIPOLE', 'QUADRUPOLE', 'MULLIKEN_CHARGES')
f=open( 'psi4out.xyz', 'w' )
f.write( "16  " )
f.write( str(ee) + "\n" )
f.write( MOL.save_string_xyz() )
f.close()
--------------------------------------------------------------------------

    Molecular point group: c1
  Charge       = 0
  Multiplicity = 1
  Basis Set: CC-PVTZ
  Basis Set:
  @DF-RHF Final Energy:  -212.37538305608052
    Total Energy =                       -212.3753830560805227
    Molecular point group: c1
  Basis Set: CC-PVTZ
  Basis Set:
  Basis Set: CC-PVTZ
  Basis Set:
  @DF-RHF Final Energy:  -212.37477904729423
    Total Energy =                       -212.3747790472941119
  Basis Set: CC-PVTZ
  Basis Set:
  Basis Set: CC-PVTZ
  Basis Set:
  @DF-RHF Final Energy:  -212.38220014664648
    Total Energy =                       -212.3822001466464258
  Basis Set: CC-PVTZ
  Basis Set:
  Basis Set: CC-PVTZ
  Basis Set:
  @DF-RHF Final Energy:  -212.38369789669528
    Total Energy =                       -212.3836978966951961
  Basis Set: CC-PVTZ
  Basis Set:
  Basis Set: CC-PVTZ
  Basis Set:
  @DF-RHF Final Energy:  -212.38395309730012
    Total Energy =                       -212.3839530973001501
  Basis Set: CC-PVTZ
  Basis Set:
  Basis Set: CC-PVTZ
  Basis Set:
  @DF-RHF Final Energy:  -212.38406033942763
    Total Energy =                       -212.3840603394278332
  Basis Set: CC-PVTZ
  Basis Set:
  Basis Set: CC-PVTZ
  Basis Set:
  @DF-RHF Final Energy:  -212.38406950756783
    Total Energy =                       -212.3840695075676308
  Basis Set: CC-PVTZ
  Basis Set:
  Charge       = 0
  Multiplicity = 1
  Basis Set: CC-PVTZ
  Basis Set:

    Orbital Energies (a.u.)
    -----------------------

    Doubly Occupied:

       1A    -15.524195     2A    -11.240023     3A    -11.237801
       4A    -11.207787     5A    -11.205215     6A     -1.198044
       7A     -1.024719     8A     -0.969152     9A     -0.853987
      10A     -0.794040    11A     -0.662408    12A     -0.629222
      13A     -0.600107    14A     -0.595135    15A     -0.538118
      16A     -0.528405    17A     -0.509757    18A     -0.494496
      19A     -0.481755    20A     -0.473141    21A     -0.351334

  @DF-RHF Final Energy:  -212.38406994315133

   => Energetics <=

    Nuclear Repulsion Energy =            191.6539603987694989
    One-Electron Energy =                -665.8383725863426434
    Two-Electron Energy =                 261.8003422444216994
    DFT Exchange-Correlation Energy =       0.0000000000000000
    Empirical Dispersion Energy =           0.0000000000000000
    PCM Polarization Energy =               0.0000000000000000
    EFP Energy =                            0.0000000000000000
    Total Energy =                       -212.3840699431514167
    Molecular point group: c1
  Basis Set: CC-PVTZ
  Basis Set:

  -Total Gradient:
     Atom            X                  Y                   Z
    ------   -----------------  -----------------  -----------------
       1       -0.000000615778     0.000002791269    -0.000000619551
       2        0.000010959262     0.000001128956    -0.000011040939
       3        0.002906838605     0.000285919457     0.000015055709
       4       -0.000001305079    -0.000002137468    -0.000000744109
       5        0.000000845416     0.000002784025    -0.000002410933
       6       -0.003750912591    -0.000928848841    -0.000307180631
       7       -0.000005590035    -0.000006633987    -0.000007116984
       8        0.000003589785    -0.000005997016     0.000004657193
       9       -0.001626181894     0.002786923516     0.001716069337
      10       -0.000013656834     0.000014208102    -0.000007667764
      11       -0.000009774498    -0.000008853736     0.000008629958
      12        0.002475460161    -0.002142667084    -0.001417305212
      13        0.000003093389    -0.000007313924     0.000021307443
      14        0.000003872297     0.000003446475    -0.000011241161
      15        0.000002383810     0.000004333191    -0.000005075725
      16        0.000000993986     0.000000917064     0.000004683365

  **** Optimization is complete! (in 8 steps) ****
    Final optimized geometry and variables:
    Molecular point group: c1

    Geometry (in Angstrom), charge = 0, multiplicity = 1:

    H           -0.133181696788     0.453542295145    -3.110093813381
    C           -0.152213514617     0.970253288631    -2.157385233882
    C           -0.059644985801    -0.019565990652    -1.007062075890
    H           -1.066823478035     1.546187854153    -2.092972853514
    H            0.682890274403     1.664177926625    -2.142634426646
    N           -0.111734613489     0.683129113395     0.258644204332
    H           -0.899354579526    -0.702685242245    -1.065148712657
    H            0.840955199000    -0.621150624451    -1.129684231236
    C           -0.041292998396    -0.064136134851     1.515294437741
    H            0.574530124564     1.403692682369     0.259189032036
    C            0.306898842832    -1.548238445379     1.419773849114
    H            0.715744314718     0.396559155311     2.140933226329
    H           -0.987040724106     0.030677734900     2.039754686527
    H            1.284359065360    -1.708593558753     0.980714739930
    H            0.319595042426    -1.971751778124     2.417735439785
    H           -0.419154102521    -2.103694512995     0.839690472464

  Mulliken Charges: (a.u.)
   Center  Symbol    Alpha    Beta     Spin     Total
       1     H     0.45422  0.45422  0.00000  0.09156
       2     C     3.14402  3.14402  0.00000 -0.28803
       3     C     3.02141  3.02141  0.00000 -0.04282
       4     H     0.44949  0.44949  0.00000  0.10102
       5     H     0.46034  0.46034  0.00000  0.07932
       6     N     3.64298  3.64298  0.00000 -0.28596
       7     H     0.45838  0.45838  0.00000  0.08325
       8     H     0.47047  0.47047  0.00000  0.05905
       9     C     3.02369  3.02369  0.00000 -0.04738
      10     H     0.44331  0.44331  0.00000  0.11338
      11     C     3.16053  3.16053  0.00000 -0.32106
      12     H     0.46257  0.46257  0.00000  0.07486
      13     H     0.45818  0.45818  0.00000  0.08364
      14     H     0.45353  0.45353  0.00000  0.09294
      15     H     0.44581  0.44581  0.00000  0.10837
      16     H     0.45107  0.45107  0.00000  0.09786

   Total alpha = 21.00000, Total beta = 21.00000, Total charge = -0.00000
