  ==> Input File <==

--------------------------------------------------------------------------
set {
	reference rhf
	basis 6-31G*
}

set_num_threads( 4 )
memory 2 gb

molecule MOL {
0 1

O	 -2.821601	 1.309235	 -0.001213
C	 -2.668563	 0.129746	 -0.000350
C	 -3.801572	 -0.864014	 -0.000442
O	 -1.481751	 -0.454642	 0.000584
H	 -4.417280	 -0.689587	 -0.874708
H	 -3.443784	 -1.883046	 -0.000565
H	 -4.417179	 -0.689832	 0.873954
C	 -0.334255	 0.388708	 0.000906
C	 0.891947	 -0.504646	 0.000751
H	 -0.365390	 1.025305	 -0.873475
H	 -0.365484	 1.024911	 0.875569
C	 2.191998	 0.301789	 0.000897
H	 0.855148	 -1.151283	 -0.871571
H	 0.855132	 -1.151660	 0.872805
C	 2.528751	 0.889162	 1.372727
H	 3.013436	 -0.332245	 -0.328234
H	 2.119450	 1.108998	 -0.725898
C	 3.827947	 1.693498	 1.373125
H	 2.601975	 0.083836	 2.100163
H	 1.709947	 1.524869	 1.702131
H	 4.671943	 1.075565	 1.080135
H	 4.039635	 2.096496	 2.358527
H	 3.773098	 2.527603	 0.679389

	symmetry c1
}
set optking {
	frozen_dihedral = ("
		16 12 9 13
	")
}

ee = optimize('scf')
oeprop('DIPOLE', 'QUADRUPOLE', 'MULLIKEN_CHARGES')
f=open( 'psi4out.xyz', 'w' )
f.write( "23  " )
f.write( str(ee) + "\n" )
f.write( MOL.save_string_xyz() )
f.close()
--------------------------------------------------------------------------

    Molecular point group: c1
  Charge       = 0
  Multiplicity = 1
  Basis Set: 6-31G*
  Basis Set:
  @DF-RHF Final Energy:  -422.97731119611859
    Total Energy =                       -422.9773111961179666
    Molecular point group: c1
  Basis Set: 6-31G*
  Basis Set:
  Basis Set: 6-31G*
  Basis Set:
  @DF-RHF Final Energy:  -422.97756948140920
    Total Energy =                       -422.9775694814087501
  Basis Set: 6-31G*
  Basis Set:
  Basis Set: 6-31G*
  Basis Set:
  @DF-RHF Final Energy:  -422.97760950897089
    Total Energy =                       -422.9776095089706587
  Basis Set: 6-31G*
  Basis Set:
  Basis Set: 6-31G*
  Basis Set:
  @DF-RHF Final Energy:  -422.97754556191393
    Total Energy =                       -422.9775455619131890
  Basis Set: 6-31G*
  Basis Set:
  Basis Set: 6-31G*
  Basis Set:
  @DF-RHF Final Energy:  -422.97761721220280
    Total Energy =                       -422.9776172122031994
  Basis Set: 6-31G*
  Basis Set:
  Charge       = 0
  Multiplicity = 1
  Basis Set: 6-31G*
  Basis Set:

    Orbital Energies (a.u.)
    -----------------------

    Doubly Occupied:

       1A    -20.603007     2A    -20.540586     3A    -11.374135
       4A    -11.281250     5A    -11.232409     6A    -11.224491
       7A    -11.223876     8A    -11.221686     9A    -11.212966
      10A     -1.467988    11A     -1.360749    12A     -1.093687
      13A     -1.040821    14A     -1.002758    15A     -0.931278
      16A     -0.848257    17A     -0.793765    18A     -0.779859
      19A     -0.688443    20A     -0.684597    21A     -0.672031
      22A     -0.634163    23A     -0.615237    24A     -0.587193
      25A     -0.577783    26A     -0.572959    27A     -0.561736
      28A     -0.529534    29A     -0.527289    30A     -0.507940
      31A     -0.494972    32A     -0.476762    33A     -0.469218
      34A     -0.462573    35A     -0.449196    36A     -0.435796

  @DF-RHF Final Energy:  -422.97761782772267

   => Energetics <=

    Nuclear Repulsion Energy =            454.9773218994794775
    One-Electron Energy =               -1477.5479000674931740
    Two-Electron Energy =                 599.5929603402912562
    DFT Exchange-Correlation Energy =       0.0000000000000000
    Empirical Dispersion Energy =           0.0000000000000000
    PCM Polarization Energy =               0.0000000000000000
    EFP Energy =                            0.0000000000000000
    Total Energy =                       -422.9776178277224972
    Molecular point group: c1
  Basis Set: 6-31G*
  Basis Set:

  -Total Gradient:
     Atom            X                  Y                   Z
    ------   -----------------  -----------------  -----------------
       1        0.000013796507    -0.000003276215     0.000087555731
       2       -0.000018535160     0.000001638763    -0.000232408146
       3       -0.000004370343    -0.000003271966     0.000074775939
       4       -0.000016047836     0.000074565592     0.000069116113
       5        0.000011310373     0.000008682986    -0.000000137979
       6       -0.000000914801    -0.000000587071     0.000003218721
       7       -0.000012364960    -0.000009663235    -0.000000798870
       8        0.000026665163    -0.000097094665    -0.000054999805
       9       -0.000810816000     0.001427638666    -0.001177006935
      10       -0.000043478323     0.000008623803    -0.000003863653
      11       -0.000002041338    -0.000032841891    -0.000001683364
      12        0.000371474647    -0.000723687451     0.001798810528
      13        0.000599124586    -0.001056727654     0.000753570500
      14       -0.000023114440    -0.000012655133     0.000012882641
      15        0.000064780236    -0.000068437156    -0.000045092362
      16       -0.000198096661     0.000412353401    -0.001346199410
      17        0.000022720883     0.000027056951    -0.000009061089
      18       -0.000011155035     0.000031025641     0.000061471933
      19        0.000016439847     0.000016950733     0.000015142851
      20        0.000016502538    -0.000012899701    -0.000020844400
      21       -0.000026899401    -0.000002530749     0.000010729753
      22        0.000033796451     0.000031496413     0.000009188593
      23       -0.000008776924    -0.000016360061    -0.000004367288

  **** Optimization is complete! (in 6 steps) ****
    Final optimized geometry and variables:
    Molecular point group: c1

    Geometry (in Angstrom), charge = 0, multiplicity = 1:

    O           -2.650028517791     0.963987737545    -0.295111564772
    C           -2.481816357600    -0.213331765828    -0.314578605017
    C           -3.602003874366    -1.221218800809    -0.338717134140
    O           -1.287682008405    -0.782465447094    -0.315771910353
    H           -4.214810074097    -1.039419977659    -1.213513816206
    H           -3.231195414976    -2.235466207057    -0.354345620775
    H           -4.224852194402    -1.070113259258     0.534844815021
    C           -0.151150608484     0.075775381208    -0.293201827394
    C            1.083882086019    -0.807077828158    -0.292543482413
    H           -0.178530692322     0.717768245543    -1.163979602637
    H           -0.207631817776     0.704293994241     0.584269824073
    C            2.396250844227    -0.011984136826    -0.280719171977
    H            1.050939840548    -1.447705282426    -1.168544212285
    H            1.043355294785    -1.468159773313     0.569134864157
    C            2.764460813155     0.589865096583     1.078375040012
    H            3.199910467828    -0.666337594878    -0.608493692914
    H            2.345090259598     0.782223694919    -1.024463557133
    C            4.090405960827     1.349100237381     1.045912025734
    H            2.822338016255    -0.206703303439     1.816862422838
    H            1.979174077501     1.261764718534     1.415017783642
    H            4.907651852887     0.697394370476     0.750169613925
    H            4.331419210909     1.760570879164     2.020975261996
    H            4.053123470888     2.173204814044     0.339232397952

  Mulliken Charges: (a.u.)
   Center  Symbol    Alpha    Beta     Spin     Total
       1     O     4.28403  4.28403  0.00000 -0.56807
       2     C     2.61536  2.61536  0.00000  0.76929
       3     C     3.28779  3.28779  0.00000 -0.57557
       4     O     4.31244  4.31244  0.00000 -0.62488
       5     H     0.39751  0.39751  0.00000  0.20499
       6     H     0.39985  0.39985  0.00000  0.20031
       7     H     0.39750  0.39750  0.00000  0.20501
       8     C     2.99725  2.99725  0.00000  0.00550
       9     C     3.16631  3.16631  0.00000 -0.33262
      10     H     0.41094  0.41094  0.00000  0.17812
      11     H     0.40923  0.40923  0.00000  0.18155
      12     C     3.16261  3.16261  0.00000 -0.32521
      13     H     0.41209  0.41209  0.00000  0.17583
      14     H     0.41440  0.41440  0.00000  0.17120
      15     C     3.15381  3.15381  0.00000 -0.30761
      16     H     0.41684  0.41684  0.00000  0.16633
      17     H     0.42129  0.42129  0.00000  0.15741
      18     C     3.23970  3.23970  0.00000 -0.47939
      19     H     0.42111  0.42111  0.00000  0.15778
      20     H     0.42077  0.42077  0.00000  0.15845
      21     H     0.42111  0.42111  0.00000  0.15778
      22     H     0.41763  0.41763  0.00000  0.16474
      23     H     0.42047  0.42047  0.00000  0.15907

   Total alpha = 36.00000, Total beta = 36.00000, Total charge = -0.00000
