  ==> Input File <==

--------------------------------------------------------------------------
set {
	reference rhf
	basis 6-31G*
}

set_num_threads( 4 )
memory 2 gb

molecule MOL {
0 1

O	 0.984954	 4.301527	 0.807960
C	 -0.050786	 4.703609	 1.241931
C	 -1.315485	 3.863819	 1.226816
C	 -0.170295	 6.090067	 1.840770
C	 -1.135157	 2.479259	 0.611422
H	 -1.675747	 3.785602	 2.251746
H	 -2.081898	 4.425128	 0.693950
C	 -2.429063	 1.663438	 0.614077
H	 -0.361521	 1.946332	 1.155118
H	 -0.768354	 2.586512	 -0.404501
C	 -2.259874	 0.272531	 0.000494
H	 -2.793192	 1.562708	 1.635502
H	 -3.201029	 2.204357	 0.068602
C	 -3.549786	 -0.549746	 -0.000374
H	 -1.488902	 -0.269365	 0.545443
H	 -1.896730	 0.372019	 -1.020890
C	 -4.809590	 0.315458	 -0.000369
H	 -3.560515	 -1.202009	 -0.871156
H	 -3.561123	 -1.202955	 0.869711
H	 -4.844746	 0.956611	 -0.876632
H	 -5.706986	 -0.295590	 -0.001609
H	 -4.845960	 0.954827	 0.877144
H	 -0.502339	 6.029695	 2.873107
H	 0.787566	 6.589601	 1.798313
H	 -0.908125	 6.674360	 1.298697

	symmetry c1
}
set optking {
	frozen_dihedral = ("
		15 11 14 18
	")
}

ee = optimize('scf')
oeprop('DIPOLE', 'QUADRUPOLE', 'MULLIKEN_CHARGES')
f=open( 'psi4out.xyz', 'w' )
f.write( "25  " )
f.write( str(ee) + "\n" )
f.write( MOL.save_string_xyz() )
f.close()
--------------------------------------------------------------------------

    Molecular point group: c1
  Charge       = 0
  Multiplicity = 1
  Basis Set: 6-31G*
  Basis Set:
  @DF-RHF Final Energy:  -387.12707434472077
    Total Energy =                       -387.1270743447206542
    Molecular point group: c1
  Basis Set: 6-31G*
  Basis Set:
  Basis Set: 6-31G*
  Basis Set:
  @DF-RHF Final Energy:  -387.12767988951271
    Total Energy =                       -387.1276798895121374
  Basis Set: 6-31G*
  Basis Set:
  Basis Set: 6-31G*
  Basis Set:
  @DF-RHF Final Energy:  -387.12975238981477
    Total Energy =                       -387.1297523898147119
  Basis Set: 6-31G*
  Basis Set:
  Basis Set: 6-31G*
  Basis Set:
  @DF-RHF Final Energy:  -387.12995879927161
    Total Energy =                       -387.1299587992718898
  Basis Set: 6-31G*
  Basis Set:
  @DF-RHF Final Energy:  -387.12993809285683
    Total Energy =                       -387.1299380928566052
  @DF-RHF Final Energy:  -387.12982213652697
    Total Energy =                       -387.1298221365263998
  @DF-RHF Final Energy:  -387.12997569787711
    Total Energy =                       -387.1299756978768301
  Basis Set: 6-31G*
  Basis Set:
  @DF-RHF Final Energy:  -387.12997258797577
    Total Energy =                       -387.1299725879761127
  Basis Set: 6-31G*
  Basis Set:
  Basis Set: 6-31G*
  Basis Set:
  @DF-RHF Final Energy:  -387.12997960576371
    Total Energy =                       -387.1299796057645608
  Basis Set: 6-31G*
  Basis Set:
  Basis Set: 6-31G*
  Basis Set:
  @DF-RHF Final Energy:  -387.12998129352451
    Total Energy =                       -387.1299812935247928
  Basis Set: 6-31G*
  Basis Set:
  Charge       = 0
  Multiplicity = 1
  Basis Set: 6-31G*
  Basis Set:

    Orbital Energies (a.u.)
    -----------------------

    Doubly Occupied:

       1A    -20.550374     2A    -11.326207     3A    -11.231726
       4A    -11.228278     5A    -11.216641     6A    -11.216124
       7A    -11.215884     8A    -11.214139     9A    -11.208773
      10A     -1.395672    11A     -1.092763    12A     -1.054129
      13A     -1.012979    14A     -0.966432    15A     -0.896694
      16A     -0.826208    17A     -0.772708    18A     -0.729121
      19A     -0.660657    20A     -0.651740    21A     -0.629804
      22A     -0.623766    23A     -0.600735    24A     -0.592895
      25A     -0.562267    26A     -0.556160    27A     -0.546376
      28A     -0.522387    29A     -0.510470    30A     -0.493553
      31A     -0.490323    32A     -0.477768    33A     -0.456668
      34A     -0.454149    35A     -0.450534    36A     -0.399317

  @DF-RHF Final Energy:  -387.12998144785638

   => Energetics <=

    Nuclear Repulsion Energy =            443.5654941040977519
    One-Electron Energy =               -1403.7221003847653265
    Two-Electron Energy =                 573.0266248328107395
    DFT Exchange-Correlation Energy =       0.0000000000000000
    Empirical Dispersion Energy =           0.0000000000000000
    PCM Polarization Energy =               0.0000000000000000
    EFP Energy =                            0.0000000000000000
    Total Energy =                       -387.1299814478568351
    Molecular point group: c1
  Basis Set: 6-31G*
  Basis Set:

  -Total Gradient:
     Atom            X                  Y                   Z
    ------   -----------------  -----------------  -----------------
       1        0.000004361348    -0.000006368285     0.000008884450
       2       -0.000010024980     0.000014859344    -0.000037292444
       3        0.000002035714    -0.000000646032     0.000008201841
       4        0.000000845861    -0.000005179378     0.000011332012
       5       -0.000001813708     0.000000263182     0.000020168150
       6       -0.000003046672    -0.000003898986     0.000000545431
       7        0.000002783971     0.000002415359     0.000000831181
       8       -0.000003161145     0.000007629049    -0.000007353710
       9       -0.000001025060    -0.000000856906     0.000001221761
      10       -0.000005238823    -0.000002762704    -0.000000869738
      11        0.001569704800    -0.002540815368    -0.007115847758
      12        0.000007877078     0.000007364004    -0.000001061083
      13        0.000000386547     0.000007350281     0.000007050424
      14        0.003439663491    -0.004495188719     0.005246660133
      15       -0.001841994726     0.002822204042     0.005234276922
      16       -0.000008204163    -0.000008283394    -0.000002142753
      17       -0.000007795900     0.000004529614    -0.000005095721
      18       -0.003142446833     0.004189171081    -0.003372585032
      19        0.000009234507     0.000001626623    -0.000000454009
      20       -0.000008842288    -0.000004368328     0.000000780657
      21       -0.000002800386     0.000005798876     0.000004835706
      22       -0.000000182319     0.000006315236    -0.000003045665
      23       -0.000000760957     0.000004003770     0.000002772510
      24       -0.000000253339    -0.000001457436    -0.000000521488
      25        0.000000697976    -0.000003704928    -0.000001291778

  **** Optimization is complete! (in 11 steps) ****
    Final optimized geometry and variables:
    Molecular point group: c1

    Geometry (in Angstrom), charge = 0, multiplicity = 1:

    O            2.662818494902     1.703079790180     0.116955728097
    C            1.635540662493     2.129474703368     0.547832099748
    C            0.350766530535     1.320841309905     0.526560587640
    C            1.547684993443     3.517324383739     1.148965645123
    C            0.499433440588    -0.066548526670    -0.091030189518
    H           -0.014835476506     1.249423839681     1.550121573797
    H           -0.399737471190     1.901941767904    -0.007674945657
    C           -0.814569660736    -0.850529177992    -0.094098825721
    H            1.259347207959    -0.618235666978     0.453238820421
    H            0.871455757868     0.034166790600    -1.105899127780
    C           -0.657013483599    -2.239532449772    -0.725609530989
    H           -1.173982654369    -0.955055518055     0.928712806964
    H           -1.570201047568    -0.278759213322    -0.626472105522
    C           -1.909560985740    -3.142865255243    -0.679559580146
    H            0.139981090872    -2.735329010204    -0.177158734605
    H           -0.321600883181    -2.122247682239    -1.752302534997
    C           -3.257063778277    -2.415272457788    -0.748863863441
    H           -1.878823020404    -3.809441164572    -1.537064055449
    H           -1.888061982154    -3.759832182820     0.213708115811
    H           -3.329877349415    -1.798762469963    -1.640519585803
    H           -4.068859360116    -3.135534566481    -0.783315713625
    H           -3.425375635988    -1.775974298915     0.110959262930
    H            1.210595549490     3.463137813865     2.180013302758
    H            2.517569109255     3.993451438585     1.110880984806
    H            0.826240673265     4.120447300913     0.605453966831

  Mulliken Charges: (a.u.)
   Center  Symbol    Alpha    Beta     Spin     Total
       1     O     4.26119  4.26119  0.00000 -0.52238
       2     C     2.73573  2.73573  0.00000  0.52855
       3     C     3.21058  3.21058  0.00000 -0.42116
       4     C     3.28664  3.28664  0.00000 -0.57329
       5     C     3.14779  3.14779  0.00000 -0.29559
       6     H     0.41012  0.41012  0.00000  0.17976
       7     H     0.41008  0.41008  0.00000  0.17984
       8     C     3.15747  3.15747  0.00000 -0.31495
       9     H     0.41239  0.41239  0.00000  0.17522
      10     H     0.41243  0.41243  0.00000  0.17515
      11     C     3.15382  3.15382  0.00000 -0.30764
      12     H     0.42517  0.42517  0.00000  0.14966
      13     H     0.42227  0.42227  0.00000  0.15547
      14     C     3.15307  3.15307  0.00000 -0.30614
      15     H     0.42028  0.42028  0.00000  0.15945
      16     H     0.42061  0.42061  0.00000  0.15877
      17     C     3.24288  3.24288  0.00000 -0.48576
      18     H     0.42020  0.42020  0.00000  0.15960
      19     H     0.42106  0.42106  0.00000  0.15787
      20     H     0.42229  0.42229  0.00000  0.15542
      21     H     0.41932  0.41932  0.00000  0.16137
      22     H     0.42067  0.42067  0.00000  0.15866
      23     H     0.40876  0.40876  0.00000  0.18248
      24     H     0.39647  0.39647  0.00000  0.20705
      25     H     0.40871  0.40871  0.00000  0.18258

   Total alpha = 36.00000, Total beta = 36.00000, Total charge =  0.00000
