  ==> Input File <==

--------------------------------------------------------------------------
set {
	reference rhf
	basis cc-pvtz
}

set_num_threads( 4 )
memory 2 gb

molecule MOL {
0 1

H	 -2.816458	 -0.841657	 -0.064679
N	 -1.878861	 -0.711874	 0.250184
C	 -1.341419	 0.551458	 -0.220231
H	 -1.333674	 -1.468530	 -0.105118
C	 0.082190	 0.731516	 0.254705
H	 -1.357065	 0.652078	 -1.304747
H	 -1.939897	 1.357530	 0.189797
O	 0.833839	 -0.373729	 -0.146746
H	 0.500964	 1.642836	 -0.169909
H	 0.097202	 0.822141	 1.338444
C	 2.152506	 -0.362816	 0.289394
H	 2.632552	 -1.257129	 -0.080937
H	 2.689563	 0.504157	 -0.089582
H	 2.212404	 -0.356747	 1.375184

	symmetry c1
}
set optking {
	frozen_dihedral = ("
		8 5 3 6
	")
}

ee = optimize('scf')
oeprop('DIPOLE', 'QUADRUPOLE', 'MULLIKEN_CHARGES')
f=open( 'psi4out.xyz', 'w' )
f.write( "14  " )
f.write( str(ee) + "\n" )
f.write( MOL.save_string_xyz() )
f.close()
--------------------------------------------------------------------------

    Molecular point group: c1
  Charge       = 0
  Multiplicity = 1
  Basis Set: CC-PVTZ
  Basis Set:
  @DF-RHF Final Energy:  -248.22548721342920
    Total Energy =                       -248.2254872134294033
    Molecular point group: c1
  Basis Set: CC-PVTZ
  Basis Set:
  Basis Set: CC-PVTZ
  Basis Set:
  @DF-RHF Final Energy:  -248.22560433202392
    Total Energy =                       -248.2256043320238064
  Basis Set: CC-PVTZ
  Basis Set:
  Basis Set: CC-PVTZ
  Basis Set:
  @DF-RHF Final Energy:  -248.22562841210302
    Total Energy =                       -248.2256284121031058
  Basis Set: CC-PVTZ
  Basis Set:
  Charge       = 0
  Multiplicity = 1
  Basis Set: CC-PVTZ
  Basis Set:

    Orbital Energies (a.u.)
    -----------------------

    Doubly Occupied:

       1A    -20.550779     2A    -15.522779     3A    -11.264523
       4A    -11.263743     5A    -11.240075     6A     -1.384963
       7A     -1.175681     8A     -1.000322     9A     -0.908701
      10A     -0.814832    11A     -0.685703    12A     -0.676825
      13A     -0.647446    14A     -0.610874    15A     -0.608866
      16A     -0.542943    17A     -0.529841    18A     -0.496879
      19A     -0.474801    20A     -0.420427    21A     -0.382505

  @DF-RHF Final Energy:  -248.22562907705512

   => Energetics <=

    Nuclear Repulsion Energy =            195.0068717921630252
    One-Electron Energy =                -724.0579879447030862
    Two-Electron Energy =                 280.8254870754851709
    DFT Exchange-Correlation Energy =       0.0000000000000000
    Empirical Dispersion Energy =           0.0000000000000000
    PCM Polarization Energy =               0.0000000000000000
    EFP Energy =                            0.0000000000000000
    Total Energy =                       -248.2256290770549185
    Molecular point group: c1
  Basis Set: CC-PVTZ
  Basis Set:

  -Total Gradient:
     Atom            X                  Y                   Z
    ------   -----------------  -----------------  -----------------
       1       -0.000021172250    -0.000006054741    -0.000002649571
       2       -0.000032545164     0.000004863707     0.000010264138
       3        0.000552789025    -0.004435732063     0.000230550875
       4        0.000003275403     0.000046006534    -0.000013409606
       5        0.000630180188     0.002371227529    -0.002797405757
       6       -0.000555642390     0.003253858507     0.000358354026
       7       -0.000033941178    -0.000010375533     0.000000155132
       8       -0.000597873393    -0.001193502377     0.002213895796
       9        0.000032192577    -0.000023754540    -0.000004283534
      10        0.000008805222    -0.000007872144    -0.000000087957
      11       -0.000001818447     0.000007097120    -0.000000283495
      12        0.000005260384    -0.000000441847     0.000000366922
      13        0.000005030628    -0.000005097079     0.000001685299
      14        0.000005459398    -0.000000223069     0.000002847732

  **** Optimization is complete! (in 4 steps) ****
    Final optimized geometry and variables:
    Molecular point group: c1

    Geometry (in Angstrom), charge = 0, multiplicity = 1:

    H           -2.809778607480    -0.779096437377    -0.150838099635
    N           -1.875899671735    -0.652058070868     0.175205754244
    C           -1.319890376890     0.594814183549    -0.308538446157
    H           -1.330082348846    -1.421303184466    -0.149005120921
    C            0.103083512157     0.772837053661     0.174525574920
    H           -1.340554953378     0.706252346236    -1.392603827632
    H           -1.906606832709     1.414396929949     0.094047158871
    O            0.864258447927    -0.322755528380    -0.233033911033
    H            0.517780366865     1.695228934400    -0.228822541154
    H            0.112174632741     0.842442288373     1.260319117069
    C            2.181400671111    -0.304820902489     0.207027805940
    H            2.668027549740    -1.195255314616    -0.163990028460
    H            2.714722046568     0.566319643317    -0.167514113129
    H            2.237063306447    -0.301636235926     1.293078294269

  Mulliken Charges: (a.u.)
   Center  Symbol    Alpha    Beta     Spin     Total
       1     H     0.43031  0.43031  0.00000  0.13937
       2     N     3.69333  3.69333  0.00000 -0.38666
       3     C     3.02185  3.02185  0.00000 -0.04370
       4     H     0.42131  0.42131  0.00000  0.15739
       5     C     2.96613  2.96613  0.00000  0.06774
       6     H     0.46671  0.46671  0.00000  0.06659
       7     H     0.45990  0.45990  0.00000  0.08020
       8     O     4.18029  4.18029  0.00000 -0.36058
       9     H     0.47017  0.47017  0.00000  0.05966
      10     H     0.47032  0.47032  0.00000  0.05936
      11     C     3.03108  3.03108  0.00000 -0.06216
      12     H     0.44756  0.44756  0.00000  0.10489
      13     H     0.47110  0.47110  0.00000  0.05780
      14     H     0.46995  0.46995  0.00000  0.06011

   Total alpha = 21.00000, Total beta = 21.00000, Total charge = -0.00000
