  ==> Input File <==

--------------------------------------------------------------------------
set {
	reference rhf
	basis cc-pvtz
}

set_num_threads( 4 )
memory 2 gb

molecule MOL {
0 1

H	 2.713501	 -0.127116	 0.812112
O	 1.871562	 -0.555439	 0.849715
C	 1.050374	 0.054877	 0.000135
C	 -0.318151	 -0.570512	 0.000144
O	 1.395257	 0.975056	 -0.657356
C	 -1.454884	 0.441630	 -0.000560
H	 -0.371613	 -1.223646	 -0.864985
H	 -0.371920	 -1.222758	 0.865929
C	 -2.822577	 -0.232186	 0.000063
H	 -1.359760	 1.084704	 -0.867077
H	 -1.359641	 1.085996	 0.864983
H	 -2.954352	 -0.858985	 -0.875745
H	 -3.615886	 0.505352	 0.000019
H	 -2.953878	 -0.858359	 0.876394

	symmetry c1
}
set optking {
	frozen_dihedral = ("
		2 3 4 7
	")
}

ee = optimize('scf')
oeprop('DIPOLE', 'QUADRUPOLE', 'MULLIKEN_CHARGES')
f=open( 'psi4out.xyz', 'w' )
f.write( "14  " )
f.write( str(ee) + "\n" )
f.write( MOL.save_string_xyz() )
f.close()
--------------------------------------------------------------------------

    Molecular point group: c1
  Charge       = 0
  Multiplicity = 1
  Basis Set: CC-PVTZ
  Basis Set:
  @DF-RHF Final Energy:  -305.99934644016713
    Total Energy =                       -305.9993464401671872
    Molecular point group: c1
  Basis Set: CC-PVTZ
  Basis Set:
  Basis Set: CC-PVTZ
  Basis Set:
  @DF-RHF Final Energy:  -305.99975394057998
    Total Energy =                       -305.9997539405799216
  Basis Set: CC-PVTZ
  Basis Set:
  Basis Set: CC-PVTZ
  Basis Set:
  @DF-RHF Final Energy:  -305.99899533513872
    Total Energy =                       -305.9989953351390000
  Basis Set: CC-PVTZ
  Basis Set:
  Basis Set: CC-PVTZ
  Basis Set:
  @DF-RHF Final Energy:  -305.99985033369296
    Total Energy =                       -305.9998503336930185
  Basis Set: CC-PVTZ
  Basis Set:
  Basis Set: CC-PVTZ
  Basis Set:
  @DF-RHF Final Energy:  -305.99985232079121
    Total Energy =                       -305.9998523207912058
  Basis Set: CC-PVTZ
  Basis Set:
  Charge       = 0
  Multiplicity = 1
  Basis Set: CC-PVTZ
  Basis Set:

    Orbital Energies (a.u.)
    -----------------------

    Doubly Occupied:

       1A    -20.606307     2A    -20.538991     3A    -11.374040
       4A    -11.239104     5A    -11.227262     6A    -11.216487
       7A     -1.478610     8A     -1.369006     9A     -1.084863
      10A     -0.980372    11A     -0.858255    12A     -0.798700
      13A     -0.705953    14A     -0.691357    15A     -0.660373
      16A     -0.624900    17A     -0.596564    18A     -0.573499
      19A     -0.549408    20A     -0.510410    21A     -0.493857
      22A     -0.486747    23A     -0.478010    24A     -0.445537

  @DF-RHF Final Energy:  -305.99985245512607

   => Energetics <=

    Nuclear Repulsion Energy =            240.4260186313134966
    One-Electron Energy =                -893.6745250726628456
    Two-Electron Energy =                 347.2486539862231893
    DFT Exchange-Correlation Energy =       0.0000000000000000
    Empirical Dispersion Energy =           0.0000000000000000
    PCM Polarization Energy =               0.0000000000000000
    EFP Energy =                            0.0000000000000000
    Total Energy =                       -305.9998524551261880
    Molecular point group: c1
  Basis Set: CC-PVTZ
  Basis Set:

  -Total Gradient:
     Atom            X                  Y                   Z
    ------   -----------------  -----------------  -----------------
       1        0.000003571958     0.000001988089     0.000000759628
       2       -0.000209245230     0.000491762152     0.000656853181
       3        0.000200312559    -0.000473700055    -0.001025113639
       4        0.000371508647    -0.000742192366     0.000838402693
       5       -0.000007618513    -0.000044864989     0.000038413807
       6       -0.000001735632     0.000021268751     0.000032161084
       7       -0.000361340333     0.000749418896    -0.000515718467
       8        0.000003580629     0.000007683834    -0.000010824200
       9       -0.000001804715    -0.000010042892    -0.000016179639
      10       -0.000001997072    -0.000004398799     0.000003931419
      11        0.000003965743     0.000004016935    -0.000000458214
      12       -0.000006423157    -0.000008834682    -0.000000050388
      13        0.000004336975     0.000002235606    -0.000002209786
      14        0.000002888142     0.000005659521     0.000000032521

  **** Optimization is complete! (in 6 steps) ****
    Final optimized geometry and variables:
    Molecular point group: c1

    Geometry (in Angstrom), charge = 0, multiplicity = 1:

    H            2.760071103362    -0.132047772587     0.682639262078
    O            1.923623105442    -0.564070370941     0.773468470154
    C            1.053316841356     0.036329930720    -0.030789756959
    C           -0.309841440746    -0.604354570577     0.002282379645
    O            1.352585492037     0.965279306787    -0.699407633662
    C           -1.441878202775     0.420292040931    -0.031680322118
    H           -0.366904367423    -1.238147100870    -0.878148817527
    H           -0.382196423032    -1.247128464889     0.868507408605
    C           -2.814190332830    -0.241927923765    -0.070208002733
    H           -1.311404848604     1.059984574519    -0.894368875082
    H           -1.370846206036     1.060834875745     0.841544196724
    H           -2.925307842673    -0.862331329568    -0.953242140229
    H           -3.600958125275     0.502443221878    -0.088371759016
    H           -2.974416524407    -0.871463877775     0.798640791473

  Mulliken Charges: (a.u.)
   Center  Symbol    Alpha    Beta     Spin     Total
       1     H     0.38081  0.38081  0.00000  0.23837
       2     O     4.15771  4.15771  0.00000 -0.31542
       3     C     2.80952  2.80952  0.00000  0.38095
       4     C     3.09423  3.09423  0.00000 -0.18845
       5     O     4.19607  4.19607  0.00000 -0.39213
       6     C     3.08535  3.08535  0.00000 -0.17069
       7     H     0.44411  0.44411  0.00000  0.11179
       8     H     0.43707  0.43707  0.00000  0.12586
       9     C     3.14991  3.14991  0.00000 -0.29982
      10     H     0.43952  0.43952  0.00000  0.12096
      11     H     0.45088  0.45088  0.00000  0.09824
      12     H     0.45426  0.45426  0.00000  0.09148
      13     H     0.44539  0.44539  0.00000  0.10923
      14     H     0.45518  0.45518  0.00000  0.08964

   Total alpha = 24.00000, Total beta = 24.00000, Total charge = -0.00000
