  ==> Input File <==

--------------------------------------------------------------------------
set {
	reference rhf
	basis cc-pvtz
}

set_num_threads( 4 )
memory 2 gb

molecule MOL {
0 1

O	 0.395927	 1.296676	 -0.000076
C	 0.503051	 0.114301	 -0.000074
C	 -0.701422	 -0.805636	 -0.000109
C	 1.858118	 -0.556123	 0.000212
C	 -1.244515	 -1.115866	 -1.386070
H	 -0.417073	 -1.717809	 0.518083
H	 -1.465137	 -0.345633	 0.621643
H	 -0.493004	 -1.595538	 -1.998748
H	 -2.101118	 -1.775481	 -1.315391
H	 -1.550368	 -0.211208	 -1.894282
H	 1.961106	 -1.191101	 -0.872843
H	 2.636688	 0.191085	 -0.000109
H	 1.961070	 -1.190284	 0.873873

	symmetry c1
}
set optking {
	frozen_dihedral = ("
		6 3 2 1
	")
}

ee = optimize('scf')
oeprop('DIPOLE', 'QUADRUPOLE', 'MULLIKEN_CHARGES')
f=open( 'psi4out.xyz', 'w' )
f.write( "13  " )
f.write( str(ee) + "\n" )
f.write( MOL.save_string_xyz() )
f.close()
--------------------------------------------------------------------------

    Molecular point group: c1
  Charge       = 0
  Multiplicity = 1
  Basis Set: CC-PVTZ
  Basis Set:
  @DF-RHF Final Energy:  -231.08045532883159
    Total Energy =                       -231.0804553288317322
    Molecular point group: c1
  Basis Set: CC-PVTZ
  Basis Set:
  Basis Set: CC-PVTZ
  Basis Set:
  @DF-RHF Final Energy:  -231.08115699520070
    Total Energy =                       -231.0811569952006153
  Basis Set: CC-PVTZ
  Basis Set:
  Basis Set: CC-PVTZ
  Basis Set:
  @DF-RHF Final Energy:  -231.08132184217374
    Total Energy =                       -231.0813218421739634
  Basis Set: CC-PVTZ
  Basis Set:
  Basis Set: CC-PVTZ
  Basis Set:
  @DF-RHF Final Energy:  -231.08138481949888
    Total Energy =                       -231.0813848194986804
  Basis Set: CC-PVTZ
  Basis Set:
  Basis Set: CC-PVTZ
  Basis Set:
  @DF-RHF Final Energy:  -231.08141389482341
    Total Energy =                       -231.0814138948234699
  Basis Set: CC-PVTZ
  Basis Set:
  Basis Set: CC-PVTZ
  Basis Set:
  @DF-RHF Final Energy:  -231.08143111876325
    Total Energy =                       -231.0814311187630778
  Basis Set: CC-PVTZ
  Basis Set:
  Basis Set: CC-PVTZ
  Basis Set:
  @DF-RHF Final Energy:  -231.08143508894116
    Total Energy =                       -231.0814350889413618
  Basis Set: CC-PVTZ
  Basis Set:
  Charge       = 0
  Multiplicity = 1
  Basis Set: CC-PVTZ
  Basis Set:

    Orbital Energies (a.u.)
    -----------------------

    Doubly Occupied:

       1A    -20.538159     2A    -11.320491     3A    -11.231770
       4A    -11.227944     5A    -11.226838     6A     -1.398299
       7A     -1.067063     8A     -0.998494     9A     -0.884370
      10A     -0.735163    11A     -0.656977    12A     -0.649628
      13A     -0.610419    14A     -0.594787    15A     -0.566241
      16A     -0.541144    17A     -0.529533    18A     -0.503777
      19A     -0.484875    20A     -0.402074

  @DF-RHF Final Energy:  -231.08143516043410

   => Energetics <=

    Nuclear Repulsion Energy =            177.3603392619703811
    One-Electron Energy =                -664.5474621164048585
    Two-Electron Energy =                 256.1056876940001530
    DFT Exchange-Correlation Energy =       0.0000000000000000
    Empirical Dispersion Energy =           0.0000000000000000
    PCM Polarization Energy =               0.0000000000000000
    EFP Energy =                            0.0000000000000000
    Total Energy =                       -231.0814351604343528
    Molecular point group: c1
  Basis Set: CC-PVTZ
  Basis Set:

  -Total Gradient:
     Atom            X                  Y                   Z
    ------   -----------------  -----------------  -----------------
       1       -0.000023467310    -0.000016344980     0.000073104735
       2        0.000037425465    -0.000016722961    -0.000085289082
       3       -0.000000352133     0.000000972513    -0.000040186166
       4       -0.000001222521     0.000013970936    -0.000011567379
       5        0.000012926024    -0.000009674681    -0.000021194238
       6       -0.000013249823     0.000051766279     0.000057799573
       7       -0.000010985510    -0.000008326015     0.000015934106
       8       -0.000001121976     0.000000030026    -0.000005276007
       9       -0.000001758233    -0.000003474045     0.000002359512
      10        0.000004590013    -0.000001155918     0.000008056755
      11       -0.000002665572    -0.000002541174     0.000000087761
      12       -0.000000036255    -0.000004502312     0.000002308956
      13       -0.000000082168    -0.000003997672     0.000003861475

  **** Optimization is complete! (in 8 steps) ****
    Final optimized geometry and variables:
    Molecular point group: c1

    Geometry (in Angstrom), charge = 0, multiplicity = 1:

    O            0.202437005566     1.494914146411     0.331301337069
    C            0.331826054454     0.314630515498     0.301656047745
    C           -0.873287128354    -0.605431052902     0.304824885548
    C            1.695836832223    -0.331511024109     0.244938437924
    C           -1.366798114452    -0.868552511941    -1.121532500897
    H           -0.624464689084    -1.543948884157     0.787707944764
    H           -1.652496034217    -0.121954501808     0.878353248967
    H           -0.606577805814    -1.350472686861    -1.725870948924
    H           -2.234589295121    -1.515586704730    -1.105994422838
    H           -1.644063325765     0.059519765075    -1.604498295465
    H            1.735837394476    -1.082630953272    -0.535593481143
    H            2.454504537675     0.417455483134     0.077769831740
    H            1.888303637613    -0.836290740088     1.186324244485

  Mulliken Charges: (a.u.)
   Center  Symbol    Alpha    Beta     Spin     Total
       1     O     4.17598  4.17598  0.00000 -0.35196
       2     C     2.85309  2.85309  0.00000  0.29381
       3     C     3.09778  3.09778  0.00000 -0.19556
       4     C     3.15435  3.15435  0.00000 -0.30871
       5     C     3.14954  3.14954  0.00000 -0.29908
       6     H     0.45075  0.45075  0.00000  0.09849
       7     H     0.43911  0.43911  0.00000  0.12177
       8     H     0.45457  0.45457  0.00000  0.09086
       9     H     0.44585  0.44585  0.00000  0.10830
      10     H     0.44333  0.44333  0.00000  0.11335
      11     H     0.45106  0.45106  0.00000  0.09788
      12     H     0.43610  0.43610  0.00000  0.12779
      13     H     0.44847  0.44847  0.00000  0.10305

   Total alpha = 20.00000, Total beta = 20.00000, Total charge = -0.00000
