  ==> Input File <==

--------------------------------------------------------------------------
set {
	reference rhf
	basis 6-31G*
}

set_num_threads( 1 )
memory 2 gb

molecule MOL {
0 1

O	 1.846828	 1.296221	 0.002186
C	 1.705091	 0.115954	 0.001797
C	 0.381791	 -0.609811	 -0.001246
O	 2.721346	 -0.737485	 -0.000216
C	 -0.823006	 0.326197	 -0.001226
H	 0.372241	 -1.263899	 -0.868881
H	 0.369915	 -1.266920	 0.864079
C	 -2.149449	 -0.435114	 -0.005261
H	 -0.769205	 0.978285	 -0.867294
H	 -0.772210	 0.974480	 0.867944
C	 -3.368772	 0.488524	 -0.006182
H	 -2.192747	 -1.086045	 -0.877276
H	 -2.196305	 -1.088972	 0.864312
C	 -4.693816	 -0.272727	 -0.008983
H	 -3.324794	 1.140629	 -0.875646
H	 -3.327411	 1.138794	 0.864781
H	 -4.780265	 -0.906705	 -0.886942
H	 -5.538642	 0.408976	 -0.009311
H	 -4.782693	 -0.908951	 0.867163
C	 4.024888	 -0.184556	 -0.001949
H	 4.179030	 0.422472	 -0.882452
H	 4.701782	 -1.024608	 -0.003642
H	 4.181981	 0.421185	 0.878906

	symmetry c1
}
set optking {
	frozen_dihedral = ("
		15 11 8 12,
		9 5 8 12,
		1 2 3 6,
		9 5 3 6
	")
}

ee = energy('scf')
oeprop('DIPOLE', 'QUADRUPOLE', 'MULLIKEN_CHARGES')
f=open( 'psi4out.xyz', 'w' )
f.write( "23  " )
f.write( str(ee) + "\n" )
f.write( MOL.save_string_xyz() )
f.close()
--------------------------------------------------------------------------

    Molecular point group: c1

    Geometry (in Angstrom), charge = 0, multiplicity = 1:

       Center              X                  Y                   Z               Mass
    ------------   -----------------  -----------------  -----------------  -----------------
           O          1.846825325508     1.296212314020     0.004567655068    15.994914619560
           C          1.705088325508     0.115945314020     0.004178655068    12.000000000000
           C          0.381788325508    -0.609819685980     0.001135655068    12.000000000000
           O          2.721343325508    -0.737493685980     0.002165655068    15.994914619560
           C         -0.823008674492     0.326188314020     0.001155655068    12.000000000000
           H          0.372238325508    -1.263907685980    -0.866499344932     1.007825032070
           H          0.369912325508    -1.266928685980     0.866460655068     1.007825032070
           C         -2.149451674492    -0.435122685980    -0.002879344932    12.000000000000
           H         -0.769207674492     0.978276314020    -0.864912344932     1.007825032070
           H         -0.772212674492     0.974471314020     0.870325655068     1.007825032070
           C         -3.368774674492     0.488515314020    -0.003800344932    12.000000000000
           H         -2.192749674492    -1.086053685980    -0.874894344932     1.007825032070
           H         -2.196307674492    -1.088980685980     0.866693655068     1.007825032070
           C         -4.693818674492    -0.272735685980    -0.006601344932    12.000000000000
           H         -3.324796674492     1.140620314020    -0.873264344932     1.007825032070
           H         -3.327413674492     1.138785314020     0.867162655068     1.007825032070
           H         -4.780267674492    -0.906713685980    -0.884560344932     1.007825032070
           H         -5.538644674492     0.408967314020    -0.006929344932     1.007825032070
           H         -4.782695674492    -0.908959685980     0.869544655068     1.007825032070
           C          4.024885325508    -0.184564685980     0.000432655068    12.000000000000
           H          4.179027325508     0.422463314020    -0.880070344932     1.007825032070
           H          4.701779325508    -1.024616685980    -0.001260344932     1.007825032070
           H          4.181978325508     0.421176314020     0.881287655068     1.007825032070

  Charge       = 0
  Multiplicity = 1
  Basis Set: 6-31G*
  Basis Set:

    Orbital Energies (a.u.)
    -----------------------

    Doubly Occupied:

       1A    -20.603629     2A    -20.545425     3A    -11.372259
       4A    -11.280852     5A    -11.235556     6A    -11.219279
       7A    -11.217883     8A    -11.216471     9A    -11.209652
      10A     -1.469327    11A     -1.362760    12A     -1.093221
      13A     -1.043667    14A     -0.987051    15A     -0.932109
      16A     -0.843564    17A     -0.795079    18A     -0.767284
      19A     -0.696857    20A     -0.683873    21A     -0.671495
      22A     -0.651784    23A     -0.609283    24A     -0.599411
      25A     -0.572768    26A     -0.558041    27A     -0.557283
      28A     -0.523800    29A     -0.521107    30A     -0.507760
      31A     -0.484414    32A     -0.469775    33A     -0.466291
      34A     -0.461315    35A     -0.455617    36A     -0.435484

  @DF-RHF Final Energy:  -422.97631296636558

   => Energetics <=

    Nuclear Repulsion Energy =            452.1235043205438728
    One-Electron Energy =               -1471.9567569889743481
    Two-Electron Energy =                 596.8569397020623910
    DFT Exchange-Correlation Energy =       0.0000000000000000
    Empirical Dispersion Energy =           0.0000000000000000
    PCM Polarization Energy =               0.0000000000000000
    EFP Energy =                            0.0000000000000000
    Total Energy =                       -422.9763129663681411

  Mulliken Charges: (a.u.)
   Center  Symbol    Alpha    Beta     Spin     Total
       1     O     4.28609  4.28609  0.00000 -0.57218
       2     C     2.60486  2.60486  0.00000  0.79029
       3     C     3.20823  3.20823  0.00000 -0.41646
       4     O     4.30741  4.30741  0.00000 -0.61482
       5     C     3.15242  3.15242  0.00000 -0.30485
       6     H     0.40060  0.40060  0.00000  0.19880
       7     H     0.40067  0.40067  0.00000  0.19866
       8     C     3.15333  3.15333  0.00000 -0.30665
       9     H     0.41169  0.41169  0.00000  0.17663
      10     H     0.41174  0.41174  0.00000  0.17651
      11     C     3.15155  3.15155  0.00000 -0.30310
      12     H     0.42402  0.42402  0.00000  0.15195
      13     H     0.42401  0.42401  0.00000  0.15197
      14     C     3.23958  3.23958  0.00000 -0.47916
      15     H     0.42133  0.42133  0.00000  0.15734
      16     H     0.42133  0.42133  0.00000  0.15734
      17     H     0.42181  0.42181  0.00000  0.15637
      18     H     0.41847  0.41847  0.00000  0.16305
      19     H     0.42182  0.42182  0.00000  0.15636
      20     C     3.09245  3.09245  0.00000 -0.18489
      21     H     0.40908  0.40908  0.00000  0.18184
      22     H     0.40843  0.40843  0.00000  0.18315
      23     H     0.40907  0.40907  0.00000  0.18185

   Total alpha = 36.00000, Total beta = 36.00000, Total charge =  0.00000
