  ==> Input File <==

--------------------------------------------------------------------------
set {
	reference rhf
	basis cc-pvtz
}

set_num_threads( 4 )
memory 2 gb

molecule MOL {
0 1

O	 0.074770	 1.259872	 0.000487
C	 0.029490	 0.077183	 0.000078
C	 -1.232113	 -0.748027	 0.000015
O	 1.106773	 -0.690081	 -0.000204
C	 -2.501422	 0.088592	 -0.000052
H	 -1.188777	 -1.400384	 -0.865133
H	 -1.188857	 -1.400312	 0.865225
H	 -2.548170	 0.725504	 -0.873205
H	 -3.371613	 -0.556398	 -0.000040
H	 -2.548215	 0.725571	 0.873047
C	 1.761680	 -0.888642	 -1.236858
H	 1.098970	 -1.359181	 -1.947944
H	 2.601699	 -1.531342	 -1.029182
H	 2.103279	 0.052084	 -1.642554

	symmetry c1
}
set optking {
	frozen_dihedral = ("
		11 4 2 3
	")
}

ee = optimize('scf')
oeprop('DIPOLE', 'QUADRUPOLE', 'MULLIKEN_CHARGES')
f=open( 'psi4out.xyz', 'w' )
f.write( "14  " )
f.write( str(ee) + "\n" )
f.write( MOL.save_string_xyz() )
f.close()
--------------------------------------------------------------------------

    Molecular point group: c1
  Charge       = 0
  Multiplicity = 1
  Basis Set: CC-PVTZ
  Basis Set:
  @DF-RHF Final Energy:  -305.96837839649237
    Total Energy =                       -305.9683783964923123
    Molecular point group: c1
  Basis Set: CC-PVTZ
  Basis Set:
  Basis Set: CC-PVTZ
  Basis Set:
  @DF-RHF Final Energy:  -305.96913121901861
    Total Energy =                       -305.9691312190185499
  Basis Set: CC-PVTZ
  Basis Set:
  Basis Set: CC-PVTZ
  Basis Set:
  @DF-RHF Final Energy:  -305.96851049270037
    Total Energy =                       -305.9685104927006023
  Basis Set: CC-PVTZ
  Basis Set:
  Basis Set: CC-PVTZ
  Basis Set:
  @DF-RHF Final Energy:  -305.96938974945488
    Total Energy =                       -305.9693897494547628
  Basis Set: CC-PVTZ
  Basis Set:
  Basis Set: CC-PVTZ
  Basis Set:
  @DF-RHF Final Energy:  -305.96940266566384
    Total Energy =                       -305.9694026656640062
  Basis Set: CC-PVTZ
  Basis Set:
  Charge       = 0
  Multiplicity = 1
  Basis Set: CC-PVTZ
  Basis Set:

    Orbital Energies (a.u.)
    -----------------------

    Doubly Occupied:

       1A    -20.578595     2A    -20.546694     3A    -11.368658
       4A    -11.288397     5A    -11.241657     6A    -11.217948
       7A     -1.463130     8A     -1.370285     9A     -1.064508
      10A     -0.976168    11A     -0.891725    12A     -0.767574
      13A     -0.702713    14A     -0.680844    15A     -0.674116
      16A     -0.621960    17A     -0.617530    18A     -0.556894
      19A     -0.545334    20A     -0.525769    21A     -0.511600
      22A     -0.496153    23A     -0.459004    24A     -0.440491

  @DF-RHF Final Energy:  -305.96940337827448

   => Energetics <=

    Nuclear Repulsion Energy =            247.1319061629848193
    One-Electron Energy =                -906.9871218431043189
    Two-Electron Energy =                 353.8858123018451352
    DFT Exchange-Correlation Energy =       0.0000000000000000
    Empirical Dispersion Energy =           0.0000000000000000
    PCM Polarization Energy =               0.0000000000000000
    EFP Energy =                            0.0000000000000000
    Total Energy =                       -305.9694033782743645
    Molecular point group: c1
  Basis Set: CC-PVTZ
  Basis Set:

  -Total Gradient:
     Atom            X                  Y                   Z
    ------   -----------------  -----------------  -----------------
       1       -0.000021413498     0.000024406256     0.000004413728
       2       -0.001010952757    -0.001530958284     0.004895477796
       3        0.000057832773     0.000005120546    -0.003643968546
       4        0.003219648726     0.004767059819    -0.000584980478
       5       -0.000009892429     0.000000564593     0.000009680895
       6        0.000006486125    -0.000011070937     0.000003958893
       7       -0.000000809926    -0.000007063840     0.000001734416
       8       -0.000000046804    -0.000001205579     0.000001143925
       9       -0.000005500810     0.000002818563    -0.000000853204
      10        0.000000003780    -0.000000235310    -0.000003300701
      11       -0.002259374197    -0.003234825339    -0.000685213877
      12        0.000012065350    -0.000007493185    -0.000007898892
      13        0.000006244398     0.000001209939    -0.000000889081
      14        0.000005709274    -0.000008327243     0.000010695126

  **** Optimization is complete! (in 6 steps) ****
    Final optimized geometry and variables:
    Molecular point group: c1

    Geometry (in Angstrom), charge = 0, multiplicity = 1:

    O            0.181575886479     1.395740402994     0.194259492287
    C            0.126605710178     0.220841490652     0.217460856050
    C           -1.144782573639    -0.586718244743     0.219006922465
    O            1.238630282001    -0.543957354702     0.231597021930
    C           -2.410358100207     0.254791127498     0.236512707869
    H           -1.110200114982    -1.228784326705    -0.656076554046
    H           -1.099142208663    -1.255672418519     1.071722024624
    H           -2.458842144475     0.903562716775    -0.627827560753
    H           -3.284661397915    -0.384567210680     0.234489566417
    H           -2.447030890783     0.880507346004     1.118253220205
    C            1.888491495861    -0.733450272162    -1.005258008017
    H            1.245265136832    -1.255311360739    -1.705418597430
    H            2.759502554887    -1.337342782260    -0.809507182165
    H            2.192440289714     0.214937199717    -1.427915308410

  Mulliken Charges: (a.u.)
   Center  Symbol    Alpha    Beta     Spin     Total
       1     O     4.17068  4.17068  0.00000 -0.34136
       2     C     2.79030  2.79030  0.00000  0.41939
       3     C     3.10287  3.10287  0.00000 -0.20574
       4     O     4.16979  4.16979  0.00000 -0.33958
       5     C     3.13883  3.13883  0.00000 -0.27766
       6     H     0.44595  0.44595  0.00000  0.10810
       7     H     0.43903  0.43903  0.00000  0.12193
       8     H     0.44855  0.44855  0.00000  0.10290
       9     H     0.45046  0.45046  0.00000  0.09908
      10     H     0.44670  0.44670  0.00000  0.10660
      11     C     3.03377  3.03377  0.00000 -0.06755
      12     H     0.46772  0.46772  0.00000  0.06456
      13     H     0.44333  0.44333  0.00000  0.11333
      14     H     0.45201  0.45201  0.00000  0.09599

   Total alpha = 24.00000, Total beta = 24.00000, Total charge = -0.00000
