  ==> Input File <==

--------------------------------------------------------------------------
set {
	reference rhf
	basis 6-31G*
}

set_num_threads( 1 )
memory 2 gb

molecule MOL {
0 1

H	 -4.031818	 -0.453427	 -0.000094
C	 -2.967712	 -0.297022	 -0.000064
C	 -2.458620	 0.992929	 0.000032
C	 -2.109895	 -1.385637	 -0.000122
H	 -3.124998	 1.836319	 0.000077
C	 -1.090278	 1.193236	 0.000070
H	 -2.506361	 -2.384847	 -0.000198
C	 -0.739812	 -1.187531	 -0.000085
H	 -0.678594	 2.184290	 0.000146
C	 -0.226438	 0.104061	 0.000012
H	 -0.072310	 -2.027032	 -0.000131
C	 1.239129	 0.373821	 0.000060
O	 1.639353	 1.066982	 1.055499
O	 1.983117	 0.008588	 -0.855478
C	 3.021061	 1.368646	 1.136446
H	 3.605247	 0.460647	 1.168982
H	 3.146455	 1.928415	 2.050113
H	 3.329344	 1.961152	 0.287436

	symmetry c1
}
set optking {
	frozen_dihedral = ("
		12 13 15 16,
		10 12 13 15
	")
}

ee = energy('scf')
oeprop('DIPOLE', 'QUADRUPOLE', 'MULLIKEN_CHARGES')
f=open( 'psi4out.xyz', 'w' )
f.write( "18  " )
f.write( str(ee) + "\n" )
f.write( MOL.save_string_xyz() )
f.close()
--------------------------------------------------------------------------

    Molecular point group: c1

    Geometry (in Angstrom), charge = 0, multiplicity = 1:

       Center              X                  Y                   Z               Mass
    ------------   -----------------  -----------------  -----------------  -----------------
           H         -3.984885191293    -0.708377493930    -0.149810363355     1.007825032070
           C         -2.920779191293    -0.551972493930    -0.149780363355    12.000000000000
           C         -2.411687191293     0.737978506070    -0.149684363355    12.000000000000
           C         -2.062962191293    -1.640587493930    -0.149838363355    12.000000000000
           H         -3.078065191293     1.581368506070    -0.149639363355     1.007825032070
           C         -1.043345191293     0.938285506070    -0.149646363355    12.000000000000
           H         -2.459428191293    -2.639797493930    -0.149914363355     1.007825032070
           C         -0.692879191293    -1.442481493930    -0.149801363355    12.000000000000
           H         -0.631661191293     1.929339506070    -0.149570363355     1.007825032070
           C         -0.179505191293    -0.150889493930    -0.149704363355    12.000000000000
           H         -0.025377191293    -2.281982493930    -0.149847363355     1.007825032070
           C          1.286061808707     0.118870506070    -0.149656363355    12.000000000000
           O          1.686285808707     0.812031506070     0.905782636645    15.994914619560
           O          2.030049808707    -0.246362493930    -1.005194363355    15.994914619560
           C          3.067993808707     1.113695506070     0.986729636645    12.000000000000
           H          3.652179808707     0.205696506070     1.019265636645     1.007825032070
           H          3.193387808707     1.673464506070     1.900396636645     1.007825032070
           H          3.376276808707     1.706201506070     0.137719636645     1.007825032070

  Charge       = 0
  Multiplicity = 1
  Basis Set: 6-31G*
  Basis Set:

    Orbital Energies (a.u.)
    -----------------------

    Doubly Occupied:

       1A    -20.609622     2A    -20.548332     3A    -11.379650
       4A    -11.283402     5A    -11.250758     6A    -11.245045
       7A    -11.243994     8A    -11.242005     9A    -11.239719
      10A    -11.239370    11A     -1.474342    12A     -1.365148
      13A     -1.166583    14A     -1.049516    15A     -1.026340
      16A     -0.979153    17A     -0.861012    18A     -0.838251
      19A     -0.779626    20A     -0.738226    21A     -0.686204
      22A     -0.678874    23A     -0.675260    24A     -0.630601
      25A     -0.629537    26A     -0.598268    27A     -0.590516
      28A     -0.549654    29A     -0.535083    30A     -0.517428
      31A     -0.507857    32A     -0.501669    33A     -0.458308
      34A     -0.444499    35A     -0.343128    36A     -0.342310

  @DF-RHF Final Energy:  -457.34115813768778

   => Energetics <=

    Nuclear Repulsion Energy =            491.9988533954860941
    One-Electron Energy =               -1598.1818087872852630
    Two-Electron Energy =                 648.8417972541114978
    DFT Exchange-Correlation Energy =       0.0000000000000000
    Empirical Dispersion Energy =           0.0000000000000000
    PCM Polarization Energy =               0.0000000000000000
    EFP Energy =                            0.0000000000000000
    Total Energy =                       -457.3411581376876711

  Mulliken Charges: (a.u.)
   Center  Symbol    Alpha    Beta     Spin     Total
       1     H     0.39627  0.39627  0.00000  0.20746
       2     C     3.09568  3.09568  0.00000 -0.19136
       3     C     3.10116  3.10116  0.00000 -0.20232
       4     C     3.10217  3.10217  0.00000 -0.20434
       5     H     0.39576  0.39576  0.00000  0.20847
       6     C     3.09413  3.09413  0.00000 -0.18825
       7     H     0.39518  0.39518  0.00000  0.20964
       8     C     3.09565  3.09565  0.00000 -0.19131
       9     H     0.38971  0.38971  0.00000  0.22058
      10     C     3.01867  3.01867  0.00000 -0.03734
      11     H     0.38748  0.38748  0.00000  0.22503
      12     C     2.63384  2.63384  0.00000  0.73232
      13     O     4.29835  4.29835  0.00000 -0.59671
      14     O     4.27947  4.27947  0.00000 -0.55894
      15     C     3.09379  3.09379  0.00000 -0.18757
      16     H     0.40766  0.40766  0.00000  0.18467
      17     H     0.40682  0.40682  0.00000  0.18636
      18     H     0.40820  0.40820  0.00000  0.18360

   Total alpha = 36.00000, Total beta = 36.00000, Total charge = -0.00000
