  ==> Input File <==

--------------------------------------------------------------------------
set {
	reference rhf
	basis 6-31G*
}

set_num_threads( 4 )
memory 2 gb

molecule MOL {
0 1

H	 -4.236494	 0.538104	 0.039757
O	 -3.517110	 -0.026191	 -0.205115
C	 -2.306886	 0.532354	 0.237577
C	 -1.177863	 -0.397191	 -0.171080
H	 -2.156308	 1.517575	 -0.201710
H	 -2.315015	 0.655684	 1.319734
C	 0.198102	 0.111031	 0.262842
H	 -1.208843	 -0.518759	 -1.250427
H	 -1.368741	 -1.376554	 0.258909
C	 1.331804	 -0.827780	 -0.158768
H	 0.361943	 1.100838	 -0.156218
H	 0.217265	 0.229072	 1.345532
C	 2.723619	 -0.410569	 0.329459
H	 1.342964	 -0.912588	 -1.244120
H	 1.116806	 -1.824343	 0.220779
C	 2.803913	 1.014565	 0.879806
H	 3.420594	 -0.503339	 -0.499822
H	 3.062975	 -1.111246	 1.089757
H	 2.458450	 1.736640	 0.144754
H	 2.202718	 1.139643	 1.774287
H	 3.826924	 1.270845	 1.137727

	symmetry c1
}
set optking {
	frozen_dihedral = ("
		16 13 10 14
	")
}

ee = optimize('scf')
oeprop('DIPOLE', 'QUADRUPOLE', 'MULLIKEN_CHARGES')
f=open( 'psi4out.xyz', 'w' )
f.write( "21  " )
f.write( str(ee) + "\n" )
f.write( MOL.save_string_xyz() )
f.close()
--------------------------------------------------------------------------

    Molecular point group: c1
  Charge       = 0
  Multiplicity = 1
  Basis Set: 6-31G*
  Basis Set:
  @DF-RHF Final Energy:  -310.20357184156398
    Total Energy =                       -310.2035718415637575
    Molecular point group: c1
  Basis Set: 6-31G*
  Basis Set:
  Basis Set: 6-31G*
  Basis Set:
  @DF-RHF Final Energy:  -310.20398053522729
    Total Energy =                       -310.2039805352275152
  Basis Set: 6-31G*
  Basis Set:
  Basis Set: 6-31G*
  Basis Set:
  @DF-RHF Final Energy:  -310.20536784997938
    Total Energy =                       -310.2053678499797229
  Basis Set: 6-31G*
  Basis Set:
  Basis Set: 6-31G*
  Basis Set:
  @DF-RHF Final Energy:  -310.20540525534790
    Total Energy =                       -310.2054052553479551
  Basis Set: 6-31G*
  Basis Set:
  @DF-RHF Final Energy:  -310.20544176636889
    Total Energy =                       -310.2054417663690629
  Basis Set: 6-31G*
  Basis Set:
  @DF-RHF Final Energy:  -310.20544408778119
    Total Energy =                       -310.2054440877810748
  Basis Set: 6-31G*
  Basis Set:
  Basis Set: 6-31G*
  Basis Set:
  @DF-RHF Final Energy:  -310.20544734303786
    Total Energy =                       -310.2054473430380312
  Basis Set: 6-31G*
  Basis Set:
  Basis Set: 6-31G*
  Basis Set:
  @DF-RHF Final Energy:  -310.20544941137905
    Total Energy =                       -310.2054494113789360
  Basis Set: 6-31G*
  Basis Set:
  Charge       = 0
  Multiplicity = 1
  Basis Set: 6-31G*
  Basis Set:

    Orbital Energies (a.u.)
    -----------------------

    Doubly Occupied:

       1A    -20.551813     2A    -11.267010     3A    -11.215963
       4A    -11.215389     5A    -11.213647     6A    -11.210563
       7A    -11.208325     8A     -1.358626     9A     -1.083870
      10A     -1.031060    11A     -0.953940    12A     -0.879175
      13A     -0.809471    14A     -0.772107    15A     -0.691860
      16A     -0.662847    17A     -0.628515    18A     -0.597030
      19A     -0.582144    20A     -0.576183    21A     -0.532136
      22A     -0.526545    23A     -0.506134    24A     -0.486653
      25A     -0.485290    26A     -0.458350    27A     -0.446024
      28A     -0.444248    29A     -0.433810

  @DF-RHF Final Energy:  -310.20544939594760

   => Energetics <=

    Nuclear Repulsion Energy =            313.0721771519702656
    One-Electron Energy =               -1040.8977946172822158
    Two-Electron Energy =                 417.6201680693642402
    DFT Exchange-Correlation Energy =       0.0000000000000000
    Empirical Dispersion Energy =           0.0000000000000000
    PCM Polarization Energy =               0.0000000000000000
    EFP Energy =                            0.0000000000000000
    Total Energy =                       -310.2054493959477668
    Molecular point group: c1
  Basis Set: 6-31G*
  Basis Set:

  -Total Gradient:
     Atom            X                  Y                   Z
    ------   -----------------  -----------------  -----------------
       1        0.000000116763     0.000000578701    -0.000001107653
       2       -0.000000582538     0.000001323308    -0.000001986837
       3       -0.000001015184     0.000000920859    -0.000002968746
       4       -0.000004281565    -0.000000542925     0.000006601405
       5        0.000000357432     0.000003120444     0.000001282129
       6        0.000000103823    -0.000002772946    -0.000002107642
       7        0.000011367537     0.000014450734    -0.000029608686
       8        0.000008874235    -0.000004514032     0.000005081368
       9       -0.000007823617     0.000000368862     0.000005834975
      10       -0.001558251811     0.004707944822     0.000826015455
      11       -0.000007074042    -0.000000473060     0.000011958707
      12        0.000008875017    -0.000008169391     0.000007076025
      13        0.001217429111     0.000490191325    -0.004254847102
      14        0.001014850741    -0.004188020199     0.000412591345
      15        0.000004491582     0.000001549677     0.000004872378
      16       -0.000681484920    -0.001022680411     0.003010274633
      17       -0.000006577177     0.000003930800    -0.000001621441
      18        0.000009089435     0.000003069960     0.000003535772
      19        0.000001771030     0.000002441523    -0.000002182802
      20       -0.000009553905    -0.000002647670    -0.000002406940
      21       -0.000000681941    -0.000000070381     0.000003713662

  **** Optimization is complete! (in 9 steps) ****
    Final optimized geometry and variables:
    Molecular point group: c1

    Geometry (in Angstrom), charge = 0, multiplicity = 1:

    H           -4.210328837948     0.463302923340    -0.175746837129
    O           -3.475146703098    -0.078399191879    -0.424709268232
    C           -2.286378231912     0.482116474994     0.070591851048
    C           -1.131210106960    -0.410626084064    -0.347210060911
    H           -2.143041678062     1.486964750793    -0.324387152830
    H           -2.323263195109     0.560738649098     1.156303677374
    C            0.224303091177     0.104744407041     0.139873467606
    H           -1.134755276857    -0.489431537549    -1.430895856679
    H           -1.314377514638    -1.409562310393     0.038904300645
    C            1.374170623755    -0.808538760754    -0.292834517353
    H            0.382747750228     1.110865360181    -0.239768865105
    H            0.208617052051     0.184348524382     1.224954644830
    C            2.804211852743    -0.413638990753     0.163338546100
    H            1.358908614466    -0.919927104613    -1.374233231345
    H            1.164767825556    -1.806911575952     0.084037864255
    C            2.994704584624     1.012606498622     0.687575807513
    H            3.493969487268    -0.578835465154    -0.658725240837
    H            3.118558463985    -1.093619008012     0.950620708791
    H            2.747564544292     1.759185036116    -0.061323425561
    H            2.385442072399     1.206584053032     1.563414550155
    H            4.031472334833     1.167481230317     0.970524371460

  Mulliken Charges: (a.u.)
   Center  Symbol    Alpha    Beta     Spin     Total
       1     H     0.28117  0.28117  0.00000  0.43765
       2     O     4.37187  4.37187  0.00000 -0.74373
       3     C     2.98950  2.98950  0.00000  0.02101
       4     C     3.15934  3.15934  0.00000 -0.31868
       5     H     0.43287  0.43287  0.00000  0.13426
       6     H     0.43297  0.43297  0.00000  0.13406
       7     C     3.16227  3.16227  0.00000 -0.32454
       8     H     0.41474  0.41474  0.00000  0.17053
       9     H     0.41479  0.41479  0.00000  0.17042
      10     C     3.15598  3.15598  0.00000 -0.31197
      11     H     0.42131  0.42131  0.00000  0.15737
      12     H     0.42301  0.42301  0.00000  0.15399
      13     C     3.15449  3.15449  0.00000 -0.30897
      14     H     0.42058  0.42058  0.00000  0.15884
      15     H     0.42049  0.42049  0.00000  0.15902
      16     C     3.24202  3.24202  0.00000 -0.48404
      17     H     0.41968  0.41968  0.00000  0.16064
      18     H     0.42140  0.42140  0.00000  0.15721
      19     H     0.42177  0.42177  0.00000  0.15646
      20     H     0.42049  0.42049  0.00000  0.15903
      21     H     0.41927  0.41927  0.00000  0.16145

   Total alpha = 29.00000, Total beta = 29.00000, Total charge = -0.00000
