  ==> Input File <==

--------------------------------------------------------------------------
set {
	reference rhf
	basis cc-pvtz
}

set_num_threads( 4 )
memory 2 gb

molecule MOL {
0 1

H	 1.132160	 -4.101639	 3.807950
C	 1.278559	 -3.375889	 3.032083
C	 0.434970	 -3.341983	 1.930702
C	 2.304878	 -2.463644	 3.111801
H	 -0.371535	 -4.046086	 1.851193
C	 0.618923	 -2.413828	 0.934353
H	 2.967824	 -2.474327	 3.956240
C	 2.504922	 -1.519430	 2.114378
H	 -0.027148	 -2.379150	 0.079333
C	 1.658726	 -1.494080	 1.021040
H	 3.312699	 -0.823333	 2.206062
O	 1.760432	 -0.625184	 0.000000
C	 2.773565	 0.334879	 0.000000
H	 2.728295	 0.960928	 -0.884150
H	 3.706387	 -0.206610	 0.000000
H	 2.728295	 0.960928	 0.884150

	symmetry c1
}
set optking {
	frozen_dihedral = ("
		10 12 13 14
	")
}

ee = optimize('scf')
oeprop('DIPOLE', 'QUADRUPOLE', 'MULLIKEN_CHARGES')
f=open( 'psi4out.xyz', 'w' )
f.write( "16  " )
f.write( str(ee) + "\n" )
f.write( MOL.save_string_xyz() )
f.close()
--------------------------------------------------------------------------

    Molecular point group: c1
  Charge       = 0
  Multiplicity = 1
  Basis Set: CC-PVTZ
  Basis Set:
  @DF-RHF Final Energy:  -344.70177835050686
    Total Energy =                       -344.7017783505065154
    Molecular point group: c1
  Basis Set: CC-PVTZ
  Basis Set:
  Basis Set: CC-PVTZ
  Basis Set:
  @DF-RHF Final Energy:  -344.70336589118187
    Total Energy =                       -344.7033658911818179
  Basis Set: CC-PVTZ
  Basis Set:
  Basis Set: CC-PVTZ
  Basis Set:
  @DF-RHF Final Energy:  -344.70375601936485
    Total Energy =                       -344.7037560193650165
  Basis Set: CC-PVTZ
  Basis Set:
  Basis Set: CC-PVTZ
  Basis Set:
  @DF-RHF Final Energy:  -344.70375717050371
    Total Energy =                       -344.7037571705033088
  Basis Set: CC-PVTZ
  Basis Set:
  Charge       = 0
  Multiplicity = 1
  Basis Set: CC-PVTZ
  Basis Set:

    Orbital Energies (a.u.)
    -----------------------

    Doubly Occupied:

       1A    -20.580692     2A    -11.293787     3A    -11.278582
       4A    -11.231224     5A    -11.229985     6A    -11.221799
       7A    -11.217961     8A    -11.216838     9A     -1.420203
      10A     -1.150940    11A     -1.025826    12A     -1.016627
      13A     -0.944431    14A     -0.834511    15A     -0.808285
      16A     -0.726420    17A     -0.667836    18A     -0.666348
      19A     -0.661278    20A     -0.619476    21A     -0.590108
      22A     -0.579353    23A     -0.528323    24A     -0.523801
      25A     -0.512470    26A     -0.478718    27A     -0.467952
      28A     -0.339779    29A     -0.309946

  @DF-RHF Final Energy:  -344.70375783237427

   => Energetics <=

    Nuclear Repulsion Energy =            348.9179930654557324
    One-Electron Energy =               -1158.9565054852005233
    Two-Electron Energy =                 465.3347545873699573
    DFT Exchange-Correlation Energy =       0.0000000000000000
    Empirical Dispersion Energy =           0.0000000000000000
    PCM Polarization Energy =               0.0000000000000000
    EFP Energy =                            0.0000000000000000
    Total Energy =                       -344.7037578323748903
    Molecular point group: c1
  Basis Set: CC-PVTZ
  Basis Set:

  -Total Gradient:
     Atom            X                  Y                   Z
    ------   -----------------  -----------------  -----------------
       1        0.000002299303     0.000001992610     0.000000919161
       2        0.000025953452    -0.000001442288     0.000004376954
       3       -0.000011502665     0.000024043800    -0.000010645545
       4       -0.000014263808    -0.000005165185     0.000016513552
       5        0.000002673820     0.000001852449    -0.000005071677
       6       -0.000016014170     0.000013340230     0.000009837720
       7        0.000001980351    -0.000000022329     0.000001745872
       8       -0.000014349110     0.000008631390     0.000003535062
       9       -0.000001232033    -0.000000617416    -0.000006221568
      10        0.000070162779    -0.000041327329    -0.000026094266
      11       -0.000003359689    -0.000005802633     0.000005949590
      12        0.000010483010     0.000053234145    -0.000006069354
      13        0.000010989328     0.000010554203     0.000009045071
      14       -0.000029975364    -0.000017882835     0.000001240386
      15       -0.000013717972    -0.000028207625     0.000003145535
      16       -0.000020127230    -0.000013181184    -0.000002206491

  **** Optimization is complete! (in 5 steps) ****
    Final optimized geometry and variables:
    Molecular point group: c1

    Geometry (in Angstrom), charge = 0, multiplicity = 1:

    H           -0.577699732351    -2.313027250012     2.344299009201
    C           -0.426872337517    -1.586571246354     1.569927580637
    C           -1.270480758579    -1.545169132416     0.468728722674
    C            0.604903664130    -0.680851614415     1.651371095821
    H           -2.081321465614    -2.244134048587     0.387950027204
    C           -1.080980669238    -0.616227972499    -0.525696881229
    H            1.267899725488    -0.697237316708     2.495687440282
    C            0.810621599541     0.264181264959     0.655775610532
    H           -1.726943741195    -0.575725349815    -1.380560266663
    C           -0.035404486031     0.296895515190    -0.437401433747
    H            1.622644442015     0.955094000841     0.748972043779
    O            0.070792360277     1.167308842480    -1.456797855644
    C            1.089344411611     2.121655935355    -1.455604459278
    H            0.970400507789     2.695010538987    -2.361412650416
    H            2.069222950987     1.657395368627    -1.457046858010
    H            1.009916403742     2.786947386029    -0.603101963475

  Mulliken Charges: (a.u.)
   Center  Symbol    Alpha    Beta     Spin     Total
       1     H     0.42442  0.42442  0.00000  0.15116
       2     C     3.10100  3.10100  0.00000 -0.20200
       3     C     3.05793  3.05793  0.00000 -0.11586
       4     C     3.06154  3.06154  0.00000 -0.12307
       5     H     0.42300  0.42300  0.00000  0.15399
       6     C     3.11173  3.11173  0.00000 -0.22346
       7     H     0.42366  0.42366  0.00000  0.15269
       8     C     3.14419  3.14419  0.00000 -0.28838
       9     H     0.42101  0.42101  0.00000  0.15798
      10     C     2.84992  2.84992  0.00000  0.30015
      11     H     0.42253  0.42253  0.00000  0.15493
      12     O     4.15065  4.15065  0.00000 -0.30129
      13     C     3.04491  3.04491  0.00000 -0.08981
      14     H     0.43873  0.43873  0.00000  0.12255
      15     H     0.46239  0.46239  0.00000  0.07521
      16     H     0.46239  0.46239  0.00000  0.07522

   Total alpha = 29.00000, Total beta = 29.00000, Total charge = -0.00000
