  ==> Input File <==

--------------------------------------------------------------------------
set {
	reference rhf
	basis 6-31G*
}

set_num_threads( 4 )
memory 2 gb

molecule MOL {
0 1

H	 -2.136362	 0.230651	 -1.033188
N	 -1.852125	 0.165761	 -0.074816
C	 -0.563778	 -0.502042	 0.037919
H	 -2.561668	 -0.356735	 0.402995
C	 0.575259	 0.508231	 -0.048326
H	 -0.482092	 -1.204004	 -0.786564
H	 -0.460411	 -1.085169	 0.956626
C	 1.954651	 -0.143624	 0.035137
H	 0.475158	 1.060484	 -0.977307
H	 0.469181	 1.234488	 0.755973
H	 2.103292	 -0.853109	 -0.774172
H	 2.742821	 0.599562	 -0.030094
H	 2.083613	 -0.679371	 0.971560

	symmetry c1
}
set optking {
	frozen_dihedral = ("
		1 2 3 6
	")
}

ee = optimize('scf')
oeprop('DIPOLE', 'QUADRUPOLE', 'MULLIKEN_CHARGES')
f=open( 'psi4out.xyz', 'w' )
f.write( "13  " )
f.write( str(ee) + "\n" )
f.write( MOL.save_string_xyz() )
f.close()
--------------------------------------------------------------------------

    Molecular point group: c1
  Charge       = 0
  Multiplicity = 1
  Basis Set: 6-31G*
  Basis Set:
  @DF-RHF Final Energy:  -173.27915709802076
    Total Energy =                       -173.2791570980207325
    Molecular point group: c1
  Basis Set: 6-31G*
  Basis Set:
  Basis Set: 6-31G*
  Basis Set:
  @DF-RHF Final Energy:  -173.28061525490511
    Total Energy =                       -173.2806152549051433
  Basis Set: 6-31G*
  Basis Set:
  Basis Set: 6-31G*
  Basis Set:
  @DF-RHF Final Energy:  -173.28089381783599
    Total Energy =                       -173.2808938178361018
  Basis Set: 6-31G*
  Basis Set:
  Basis Set: 6-31G*
  Basis Set:
  @DF-RHF Final Energy:  -173.28089728216065
    Total Energy =                       -173.2808972821606801
  Basis Set: 6-31G*
  Basis Set:
  Basis Set: 6-31G*
  Basis Set:
  @DF-RHF Final Energy:  -173.28089901229598
    Total Energy =                       -173.2808990122960608
  Basis Set: 6-31G*
  Basis Set:
  Charge       = 0
  Multiplicity = 1
  Basis Set: 6-31G*
  Basis Set:

    Orbital Energies (a.u.)
    -----------------------

    Doubly Occupied:

       1A    -15.533241     2A    -11.240827     3A    -11.207363
       4A    -11.206701     5A     -1.175763     6A     -1.033142
       7A     -0.898302     8A     -0.795367     9A     -0.670388
      10A     -0.617301    11A     -0.601603    12A     -0.570358
      13A     -0.522407    14A     -0.489011    15A     -0.481638
      16A     -0.465270    17A     -0.381393

  @DF-RHF Final Energy:  -173.28089916724574

   => Energetics <=

    Nuclear Repulsion Energy =            131.5399895946249273
    One-Electron Energy =                -493.8616283487310739
    Two-Electron Energy =                 189.0407395868604681
    DFT Exchange-Correlation Energy =       0.0000000000000000
    Empirical Dispersion Energy =           0.0000000000000000
    PCM Polarization Energy =               0.0000000000000000
    EFP Energy =                            0.0000000000000000
    Total Energy =                       -173.2808991672457068
    Molecular point group: c1
  Basis Set: 6-31G*
  Basis Set:

  -Total Gradient:
     Atom            X                  Y                   Z
    ------   -----------------  -----------------  -----------------
       1       -0.001374339255    -0.002614824735     0.000293398303
       2        0.002028661705     0.003793950241    -0.000824531652
       3       -0.001779091012    -0.003123744092     0.002149797907
       4       -0.000009335710     0.000004927808     0.000000881032
       5        0.000000023883    -0.000015469255    -0.000023074576
       6        0.001124735370     0.001959201378    -0.001602279115
       7        0.000004520970    -0.000009497843     0.000003207884
       8        0.000003385907     0.000004709999     0.000003922429
       9        0.000004696946     0.000001724897     0.000000854618
      10       -0.000002465327    -0.000001496300     0.000001113299
      11        0.000000019234     0.000000594619    -0.000003421095
      12        0.000002140130    -0.000001079238     0.000004161423
      13       -0.000002952845     0.000001002521    -0.000004030458

  **** Optimization is complete! (in 6 steps) ****
    Final optimized geometry and variables:
    Molecular point group: c1

    Geometry (in Angstrom), charge = 0, multiplicity = 1:

    H           -2.163244603429     0.232176282278    -0.994352313932
    N           -1.855483806236     0.175660343323    -0.042871697777
    C           -0.561651583540    -0.496645970693     0.042184404321
    H           -2.557049691594    -0.349520790557     0.441594236157
    C            0.580011201898     0.514629968173    -0.024626480732
    H           -0.421252759032    -1.231589865204    -0.752067117797
    H           -0.511229437646    -1.032245931636     0.984906680276
    C            1.958722848808    -0.139368623866     0.054378288054
    H            0.495034198968     1.080292685343    -0.949995642440
    H            0.453918819317     1.228962250083     0.782846634175
    H            2.114372003277    -0.837097535465    -0.764231989808
    H            2.748414761505     0.603650944516     0.007050538309
    H            2.080996399621    -0.690008426532     0.983391212395

  Mulliken Charges: (a.u.)
   Center  Symbol    Alpha    Beta     Spin     Total
       1     H     0.33380  0.33380  0.00000  0.33240
       2     N     3.92206  3.92206  0.00000 -0.84412
       3     C     3.06579  3.06579  0.00000 -0.13159
       4     H     0.33218  0.33218  0.00000  0.33563
       5     C     3.14250  3.14250  0.00000 -0.28501
       6     H     0.43189  0.43189  0.00000  0.13622
       7     H     0.42258  0.42258  0.00000  0.15483
       8     C     3.24533  3.24533  0.00000 -0.49067
       9     H     0.42475  0.42475  0.00000  0.15050
      10     H     0.41542  0.41542  0.00000  0.16915
      11     H     0.42327  0.42327  0.00000  0.15346
      12     H     0.41782  0.41782  0.00000  0.16436
      13     H     0.42259  0.42259  0.00000  0.15482

   Total alpha = 17.00000, Total beta = 17.00000, Total charge =  0.00000
