  ==> Input File <==

--------------------------------------------------------------------------
set {
	reference rhf
	basis 6-31G*
}

set_num_threads( 4 )
memory 2 gb

molecule MOL {
0 1

O	 -0.658941	 -0.929184	 1.393439
C	 -0.477547	 0.029429	 0.691400
C	 -1.503614	 1.146292	 0.647944
N	 0.623947	 0.147590	 -0.102813
H	 -1.894315	 1.288356	 -0.353681
H	 -2.311721	 0.867683	 1.307025
H	 -1.082103	 2.088426	 0.981551
C	 1.665360	 -0.855771	 0.000151
C	 1.001695	 1.364104	 -0.788121
H	 2.465253	 -0.618490	 -0.692587
H	 1.257730	 -1.821716	 -0.242189
H	 2.081488	 -0.891645	 1.004627
H	 1.509707	 1.108126	 -1.710313
H	 0.139785	 1.959129	 -1.045003
H	 1.677488	 1.973712	 -0.191049

	symmetry c1
}
set optking {
	frozen_dihedral = ("
		2 4 8 10
	")
}

ee = optimize('scf')
oeprop('DIPOLE', 'QUADRUPOLE', 'MULLIKEN_CHARGES')
f=open( 'psi4out.xyz', 'w' )
f.write( "15  " )
f.write( str(ee) + "\n" )
f.write( MOL.save_string_xyz() )
f.close()
--------------------------------------------------------------------------

    Molecular point group: c1
  Charge       = 0
  Multiplicity = 1
  Basis Set: 6-31G*
  Basis Set:
  @DF-RHF Final Energy:  -286.02835194373995
    Total Energy =                       -286.0283519437400059
    Molecular point group: c1
  Basis Set: 6-31G*
  Basis Set:
  Basis Set: 6-31G*
  Basis Set:
  @DF-RHF Final Energy:  -286.02893860844938
    Total Energy =                       -286.0289386084493799
  Basis Set: 6-31G*
  Basis Set:
  Basis Set: 6-31G*
  Basis Set:
  @DF-RHF Final Energy:  -286.02901431871771
    Total Energy =                       -286.0290143187176000
  Basis Set: 6-31G*
  Basis Set:
  Basis Set: 6-31G*
  Basis Set:
  @DF-RHF Final Energy:  -286.02893385101959
    Total Energy =                       -286.0289338510194739
  Basis Set: 6-31G*
  Basis Set:
  Basis Set: 6-31G*
  Basis Set:
  @DF-RHF Final Energy:  -286.02904243748139
    Total Energy =                       -286.0290424374815643
  Basis Set: 6-31G*
  Basis Set:
  Charge       = 0
  Multiplicity = 1
  Basis Set: 6-31G*
  Basis Set:

    Orbital Energies (a.u.)
    -----------------------

    Doubly Occupied:

       1A    -20.513942     2A    -15.582737     3A    -11.338983
       4A    -11.267207     5A    -11.248635     6A    -11.228241
       7A     -1.384051     8A     -1.241439     9A     -1.013466
      10A     -0.973796    11A     -0.918063    12A     -0.737090
      13A     -0.679311    14A     -0.657492    15A     -0.651105
      16A     -0.587290    17A     -0.575055    18A     -0.570591
      19A     -0.565558    20A     -0.545576    21A     -0.530982
      22A     -0.498313    23A     -0.409982    24A     -0.366154

  @DF-RHF Final Energy:  -286.02904271368419

   => Energetics <=

    Nuclear Repulsion Energy =            252.5799870686981308
    One-Electron Energy =                -889.0479407901325430
    Two-Electron Energy =                 350.4389110077501641
    DFT Exchange-Correlation Energy =       0.0000000000000000
    Empirical Dispersion Energy =           0.0000000000000000
    PCM Polarization Energy =               0.0000000000000000
    EFP Energy =                            0.0000000000000000
    Total Energy =                       -286.0290427136843050
    Molecular point group: c1
  Basis Set: 6-31G*
  Basis Set:

  -Total Gradient:
     Atom            X                  Y                   Z
    ------   -----------------  -----------------  -----------------
       1        0.000008305231    -0.000021058769    -0.000004200766
       2        0.000418820255     0.000494249260     0.000586924336
       3        0.000016408464     0.000035183921     0.000034089374
       4       -0.000441171310    -0.000563061070    -0.000636735212
       5       -0.000007831594    -0.000006591806    -0.000011471684
       6        0.000004966098    -0.000007101900    -0.000006433399
       7       -0.000007270287     0.000000209202    -0.000010475294
       8       -0.000458949936    -0.000505770507    -0.000681719114
       9       -0.000000031607     0.000018558848    -0.000030377524
      10        0.000495488556     0.000594120382     0.000753377171
      11       -0.000004760695    -0.000000437731    -0.000004546104
      12       -0.000008316917    -0.000002661834     0.000003096524
      13       -0.000002577294    -0.000011296278     0.000002755670
      14       -0.000004865372    -0.000007256533     0.000007001876
      15       -0.000008213593    -0.000017085184    -0.000001285854

  **** Optimization is complete! (in 6 steps) ****
    Final optimized geometry and variables:
    Molecular point group: c1

    Geometry (in Angstrom), charge = 0, multiplicity = 1:

    O           -0.743721652253    -1.088661921219     1.074914197015
    C           -0.590671922273    -0.120539013351     0.378569025028
    C           -1.630334265584     0.983370406900     0.354447805614
    N            0.502872027266     0.003084293988    -0.421532090655
    H           -2.027488560709     1.133634795498    -0.643535310024
    H           -2.432000199469     0.687794288130     1.014190697098
    H           -1.217899651395     1.926181340117     0.697753519255
    C            1.523575522641    -1.022631841921    -0.280128680418
    C            0.880272872377     1.226568547963    -1.096650413793
    H            2.331226311627    -0.808186354035    -0.966918697820
    H            1.114198660103    -1.997491535242    -0.502798588408
    H            1.923333891817    -1.047839659112     0.727628813332
    H            1.371007492327     0.984561369548    -2.031175499853
    H            0.013743909794     1.824423190679    -1.331011544462
    H            1.563129548860     1.830098008582    -0.501720239522

  Mulliken Charges: (a.u.)
   Center  Symbol    Alpha    Beta     Spin     Total
       1     O     4.30405  4.30405  0.00000 -0.60810
       2     C     2.62630  2.62630  0.00000  0.74739
       3     C     3.29799  3.29799  0.00000 -0.59599
       4     N     3.82278  3.82278  0.00000 -0.64556
       5     H     0.40666  0.40666  0.00000  0.18669
       6     H     0.39064  0.39064  0.00000  0.21871
       7     H     0.40797  0.40797  0.00000  0.18407
       8     C     3.13639  3.13639  0.00000 -0.27278
       9     C     3.14203  3.14203  0.00000 -0.28407
      10     H     0.41991  0.41991  0.00000  0.16018
      11     H     0.40115  0.40115  0.00000  0.19771
      12     H     0.41018  0.41018  0.00000  0.17964
      13     H     0.40964  0.40964  0.00000  0.18071
      14     H     0.40773  0.40773  0.00000  0.18455
      15     H     0.41657  0.41657  0.00000  0.16686

   Total alpha = 24.00000, Total beta = 24.00000, Total charge =  0.00000
