  ==> Input File <==

--------------------------------------------------------------------------
set {
	reference rhf
	basis 6-31G*
}

set_num_threads( 1 )
memory 2 gb

molecule MOL {
0 1

O	 0.749854	 1.307668	 -0.000040
C	 0.576249	 0.131685	 -0.000108
C	 -0.766779	 -0.556801	 -0.000461
O	 1.568443	 -0.749345	 -0.000005
C	 -1.945214	 0.412366	 0.000161
H	 -0.796911	 -1.211249	 -0.867467
H	 -0.796854	 -1.212390	 0.865687
C	 -2.130168	 1.091399	 -1.356037
H	 -1.793218	 1.160292	 0.770944
H	 -2.848615	 -0.122771	 0.272316
H	 -1.248583	 1.660869	 -1.637045
H	 -2.971724	 1.776031	 -1.334472
H	 -2.316794	 0.363713	 -2.140968
C	 2.886820	 -0.232538	 0.000322
H	 3.059106	 0.369571	 -0.880203
H	 3.540187	 -1.091012	 0.000050
H	 3.059019	 0.368956	 0.881266

	symmetry c1
}
set optking {
	frozen_dihedral = ("
		1 2 3 6,
		14 4 2 1
	")
}

ee = energy('scf')
oeprop('DIPOLE', 'QUADRUPOLE', 'MULLIKEN_CHARGES')
f=open( 'psi4out.xyz', 'w' )
f.write( "17  " )
f.write( str(ee) + "\n" )
f.write( MOL.save_string_xyz() )
f.close()
--------------------------------------------------------------------------

    Molecular point group: c1

    Geometry (in Angstrom), charge = 0, multiplicity = 1:

       Center              X                  Y                   Z               Mass
    ------------   -----------------  -----------------  -----------------  -----------------
           O          0.579447135536     1.100337695552     0.199590823804    15.994914619560
           C          0.405842135536    -0.075645304448     0.199522823804    12.000000000000
           C         -0.937185864464    -0.764131304448     0.199169823804    12.000000000000
           O          1.398036135536    -0.956675304448     0.199625823804    15.994914619560
           C         -2.115620864464     0.205035695552     0.199791823804    12.000000000000
           H         -0.967317864464    -1.418579304448    -0.667836176196     1.007825032070
           H         -0.967260864464    -1.419720304448     1.065317823804     1.007825032070
           C         -2.300574864464     0.884068695552    -1.156406176196    12.000000000000
           H         -1.963624864464     0.952961695552     0.970574823804     1.007825032070
           H         -3.019021864464    -0.330101304448     0.471946823804     1.007825032070
           H         -1.418989864464     1.453538695552    -1.437414176196     1.007825032070
           H         -3.142130864464     1.568700695552    -1.134841176196     1.007825032070
           H         -2.487200864464     0.156382695552    -1.941337176196     1.007825032070
           C          2.716413135536    -0.439868304448     0.199952823804    12.000000000000
           H          2.888699135536     0.162240695552    -0.680572176196     1.007825032070
           H          3.369780135536    -1.298342304448     0.199680823804     1.007825032070
           H          2.888612135536     0.161625695552     1.080896823804     1.007825032070

  Charge       = 0
  Multiplicity = 1
  Basis Set: 6-31G*
  Basis Set:

    Orbital Energies (a.u.)
    -----------------------

    Doubly Occupied:

       1A    -20.604985     2A    -20.547012     3A    -11.373725
       4A    -11.281755     5A    -11.235767     6A    -11.221490
       7A    -11.205672     8A     -1.470845     9A     -1.364630
      10A     -1.079585    11A     -0.999231    12A     -0.936892
      13A     -0.829148    14A     -0.766894    15A     -0.702231
      16A     -0.682196    17A     -0.672383    18A     -0.617587
      19A     -0.615977    20A     -0.567198    21A     -0.563477
      22A     -0.533588    23A     -0.523223    24A     -0.488950
      25A     -0.483195    26A     -0.481135    27A     -0.456862
      28A     -0.437039

  @DF-RHF Final Energy:  -344.90597604365479

   => Energetics <=

    Nuclear Repulsion Energy =            318.4852007063248607
    One-Electron Energy =               -1101.2969843138446322
    Two-Electron Energy =                 437.9058075638648120
    DFT Exchange-Correlation Energy =       0.0000000000000000
    Empirical Dispersion Energy =           0.0000000000000000
    PCM Polarization Energy =               0.0000000000000000
    EFP Energy =                            0.0000000000000000
    Total Energy =                       -344.9059760436550164

  Mulliken Charges: (a.u.)
   Center  Symbol    Alpha    Beta     Spin     Total
       1     O     4.28594  4.28594  0.00000 -0.57187
       2     C     2.60665  2.60665  0.00000  0.78669
       3     C     3.20806  3.20806  0.00000 -0.41613
       4     O     4.30638  4.30638  0.00000 -0.61277
       5     C     3.15377  3.15377  0.00000 -0.30754
       6     H     0.40057  0.40057  0.00000  0.19886
       7     H     0.39849  0.39849  0.00000  0.20303
       8     C     3.24720  3.24720  0.00000 -0.49439
       9     H     0.40807  0.40807  0.00000  0.18386
      10     H     0.41804  0.41804  0.00000  0.16392
      11     H     0.40430  0.40430  0.00000  0.19140
      12     H     0.41854  0.41854  0.00000  0.16293
      13     H     0.42539  0.42539  0.00000  0.14922
      14     C     3.09249  3.09249  0.00000 -0.18497
      15     H     0.40902  0.40902  0.00000  0.18196
      16     H     0.40821  0.40821  0.00000  0.18358
      17     H     0.40889  0.40889  0.00000  0.18221

   Total alpha = 28.00000, Total beta = 28.00000, Total charge = -0.00000
