  ==> Input File <==

--------------------------------------------------------------------------
set {
	reference rhf
	basis 6-31G*
}

set_num_threads( 4 )
memory 2 gb

molecule MOL {
0 1

H	 -1.976036	 -0.054818	 3.637515
C	 -2.474169	 -0.537793	 2.787679
C	 -2.534118	 0.290396	 1.529458
O	 -2.918502	 -1.634001	 2.900138
C	 -1.157987	 0.827389	 1.112134
H	 -2.982165	 -0.309672	 0.745953
H	 -3.199974	 1.128912	 1.729907
C	 -0.182338	 -0.268082	 0.674698
H	 -1.296525	 1.533029	 0.298400
H	 -0.727125	 1.395508	 1.935150
C	 1.180775	 0.282413	 0.250794
H	 -0.620781	 -0.826701	 -0.149656
H	 -0.044303	 -0.983659	 1.483052
C	 2.148627	 -0.814315	 -0.201312
H	 1.035747	 1.003886	 -0.549316
H	 1.622362	 0.830859	 1.081812
C	 3.580890	 -0.659131	 0.322722
H	 2.166869	 -0.852443	 -1.289387
H	 1.762857	 -1.776509	 0.128956
C	 4.324889	 0.564933	 -0.213704
H	 4.142010	 -1.551473	 0.056605
H	 3.564836	 -0.624694	 1.410140
H	 4.342616	 0.565491	 -1.300421
H	 3.866655	 1.493402	 0.110242
H	 5.353900	 0.572371	 0.132816

	symmetry c1
}
set optking {
	frozen_dihedral = ("
		8 11 14 18
	")
}

ee = optimize('scf')
oeprop('DIPOLE', 'QUADRUPOLE', 'MULLIKEN_CHARGES')
f=open( 'psi4out.xyz', 'w' )
f.write( "25  " )
f.write( str(ee) + "\n" )
f.write( MOL.save_string_xyz() )
f.close()
--------------------------------------------------------------------------

    Molecular point group: c1
  Charge       = 0
  Multiplicity = 1
  Basis Set: 6-31G*
  Basis Set:
  @DF-RHF Final Energy:  -387.11808462682262
    Total Energy =                       -387.1180846268230198
    Molecular point group: c1
  Basis Set: 6-31G*
  Basis Set:
  Basis Set: 6-31G*
  Basis Set:
  @DF-RHF Final Energy:  -387.11818835118504
    Total Energy =                       -387.1181883511852675
  Basis Set: 6-31G*
  Basis Set:
  Basis Set: 6-31G*
  Basis Set:
  @DF-RHF Final Energy:  -387.11484486218427
    Total Energy =                       -387.1148448621837588
  Basis Set: 6-31G*
  Basis Set:
  Basis Set: 6-31G*
  Basis Set:
  @DF-RHF Final Energy:  -387.11840880703079
    Total Energy =                       -387.1184088070303915
  Basis Set: 6-31G*
  Basis Set:
  @DF-RHF Final Energy:  -387.11848515239478
    Total Energy =                       -387.1184851523942143
  @DF-RHF Final Energy:  -387.11848330208340
    Total Energy =                       -387.1184833020840870
  @DF-RHF Final Energy:  -387.11847170507320
    Total Energy =                       -387.1184717050732615
  Basis Set: 6-31G*
  Basis Set:
  @DF-RHF Final Energy:  -387.11848989767174
    Total Energy =                       -387.1184898976713384
  Basis Set: 6-31G*
  Basis Set:
  Basis Set: 6-31G*
  Basis Set:
  @DF-RHF Final Energy:  -387.11846996284214
    Total Energy =                       -387.1184699628418002
  Basis Set: 6-31G*
  Basis Set:
  Basis Set: 6-31G*
  Basis Set:
  @DF-RHF Final Energy:  -387.11849105040704
    Total Energy =                       -387.1184910504069876
  Basis Set: 6-31G*
  Basis Set:
  Charge       = 0
  Multiplicity = 1
  Basis Set: 6-31G*
  Basis Set:

    Orbital Energies (a.u.)
    -----------------------

    Doubly Occupied:

       1A    -20.562122     2A    -11.326267     3A    -11.235315
       4A    -11.234706     5A    -11.224309     6A    -11.220065
       7A    -11.217737     8A    -11.216682     9A    -11.210549
      10A     -1.402058    11A     -1.103427    12A     -1.069365
      13A     -1.012725    14A     -0.941223    15A     -0.875325
      16A     -0.822094    17A     -0.788119    18A     -0.780693
      19A     -0.665247    20A     -0.659730    21A     -0.634349
      22A     -0.624263    23A     -0.603673    24A     -0.592369
      25A     -0.574429    26A     -0.552851    27A     -0.532992
      28A     -0.523747    29A     -0.511584    30A     -0.493963
      31A     -0.490503    32A     -0.481673    33A     -0.460789
      34A     -0.458567    35A     -0.441061    36A     -0.409659

  @DF-RHF Final Energy:  -387.11849104427125

   => Energetics <=

    Nuclear Repulsion Energy =            439.9499918546894719
    One-Electron Energy =               -1396.2285074802591680
    Two-Electron Energy =                 569.1600245812978756
    DFT Exchange-Correlation Energy =       0.0000000000000000
    Empirical Dispersion Energy =           0.0000000000000000
    PCM Polarization Energy =               0.0000000000000000
    EFP Energy =                            0.0000000000000000
    Total Energy =                       -387.1184910442718774
    Molecular point group: c1
  Basis Set: 6-31G*
  Basis Set:

  -Total Gradient:
     Atom            X                  Y                   Z
    ------   -----------------  -----------------  -----------------
       1        0.000002634503     0.000002581827    -0.000004155305
       2       -0.000006018864     0.000000962400     0.000006508029
       3        0.000000697080    -0.000003350482     0.000001311973
       4        0.000000381960    -0.000000822526    -0.000005389951
       5        0.000003254429    -0.000000860863     0.000000919467
       6       -0.000001324380    -0.000000655643    -0.000000693631
       7        0.000000671150    -0.000002369195     0.000001064876
       8        0.000860654233    -0.000318560902     0.002500004444
       9        0.000010845553     0.000000226792    -0.000000932687
      10       -0.000004015729    -0.000000956850     0.000004341931
      11       -0.000541115218     0.001005734479    -0.003479463587
      12       -0.000007649814     0.000000720159     0.000002620394
      13        0.000002944521    -0.000002599262    -0.000002326883
      14       -0.003069805210    -0.003080398913     0.000935609613
      15        0.000005168819     0.000003292171    -0.000003639950
      16        0.000000009956    -0.000001820418    -0.000002701002
      17       -0.000005172409     0.000010012241     0.000023564086
      18        0.002739656477     0.002394427396     0.000021693730
      19       -0.000002334068     0.000001798872     0.000006199302
      20        0.000002087455    -0.000007937045    -0.000004612813
      21       -0.000004914421     0.000009883208    -0.000007855627
      22        0.000013738412    -0.000006673885     0.000008357399
      23        0.000005471005     0.000001135072    -0.000001868414
      24       -0.000005465605    -0.000005721680    -0.000001839391
      25       -0.000000399835     0.000001953050     0.000003283994

  **** Optimization is complete! (in 11 steps) ****
    Final optimized geometry and variables:
    Molecular point group: c1

    Geometry (in Angstrom), charge = 0, multiplicity = 1:

    H           -2.228036174866     0.178419577071     2.615342809591
    C           -2.716862205284    -0.303237305725     1.759258156456
    C           -2.758672922645     0.525210779755     0.500422687548
    O           -3.170616844638    -1.395991173306     1.868167324383
    C           -1.374097779676     1.050092320416     0.095102223861
    H           -3.204552070839    -0.071477804386    -0.286948088697
    H           -3.419156355572     1.369317082162     0.694577965198
    C           -0.405893218227    -0.052799044622    -0.338774289251
    H           -1.499239740255     1.760416304547    -0.716962841483
    H           -0.943805836320     1.610807608033     0.923434287829
    C            0.968671323409     0.484145236033    -0.744719221560
    H           -0.843824434566    -0.604335679424    -1.168671914948
    H           -0.278403586681    -0.773208845698     0.466885272951
    C            1.936067221461    -0.620703417452    -1.216736402556
    H            0.851845685683     1.238786429671    -1.517934078940
    H            1.396742052687     0.999070465470     0.113418193553
    C            3.374366064047    -0.448939778083    -0.713174654237
    H            1.964511692803    -0.640433165207    -2.303827539457
    H            1.568727416624    -1.590772835047    -0.893533357836
    C            4.072549033032     0.799820477410    -1.253654034683
    H            3.951770016825    -1.325276050044    -0.997302513834
    H            3.374135845130    -0.423288990168     0.374735844648
    H            4.113516743167     0.782661783168    -2.339464096343
    H            3.558791656208     1.709273063009    -0.957717318344
    H            5.091907357064     0.865932209372    -0.886066573102

  Mulliken Charges: (a.u.)
   Center  Symbol    Alpha    Beta     Spin     Total
       1     H     0.43262  0.43262  0.00000  0.13476
       2     C     2.83088  2.83088  0.00000  0.33825
       3     C     3.20810  3.20810  0.00000 -0.41620
       4     O     4.23774  4.23774  0.00000 -0.47548
       5     C     3.16717  3.16717  0.00000 -0.33434
       6     H     0.39966  0.39966  0.00000  0.20068
       7     H     0.40664  0.40664  0.00000  0.18672
       8     C     3.15681  3.15681  0.00000 -0.31362
       9     H     0.41275  0.41275  0.00000  0.17451
      10     H     0.41971  0.41971  0.00000  0.16059
      11     C     3.15513  3.15513  0.00000 -0.31025
      12     H     0.41773  0.41773  0.00000  0.16453
      13     H     0.41806  0.41806  0.00000  0.16387
      14     C     3.15581  3.15581  0.00000 -0.31163
      15     H     0.41979  0.41979  0.00000  0.16042
      16     H     0.42221  0.42221  0.00000  0.15558
      17     C     3.15393  3.15393  0.00000 -0.30786
      18     H     0.42127  0.42127  0.00000  0.15745
      19     H     0.41753  0.41753  0.00000  0.16495
      20     C     3.24117  3.24117  0.00000 -0.48234
      21     H     0.42070  0.42070  0.00000  0.15859
      22     H     0.42353  0.42353  0.00000  0.15294
      23     H     0.42203  0.42203  0.00000  0.15594
      24     H     0.42029  0.42029  0.00000  0.15942
      25     H     0.41874  0.41874  0.00000  0.16252

   Total alpha = 36.00000, Total beta = 36.00000, Total charge =  0.00000
