  ==> Input File <==

--------------------------------------------------------------------------
set {
	reference rhf
	basis 6-31G*
}

set_num_threads( 4 )
memory 2 gb

molecule MOL {
0 1

O	 0.749854	 1.307668	 -0.000040
C	 0.576249	 0.131685	 -0.000108
C	 -0.766779	 -0.556801	 -0.000461
O	 1.568443	 -0.749345	 -0.000005
C	 -1.945214	 0.412366	 0.000161
H	 -0.796911	 -1.211249	 -0.867467
H	 -0.796854	 -1.212390	 0.865687
C	 -3.287791	 -0.317055	 0.000105
H	 -1.876087	 1.060580	 -0.866812
H	 -1.875822	 1.059691	 0.867761
H	 -3.394745	 -0.949193	 -0.877058
H	 -4.111778	 0.388953	 0.000015
H	 -3.394954	 -0.949187	 0.877259
C	 1.223947	 -2.105249	 -0.219215
H	 0.550571	 -2.455311	 0.549916
H	 2.151531	 -2.654904	 -0.182668
H	 0.754348	 -2.226749	 -1.184733

	symmetry c1
}
set optking {
	frozen_dihedral = ("
		14 4 2 1
	")
}

ee = optimize('scf')
oeprop('DIPOLE', 'QUADRUPOLE', 'MULLIKEN_CHARGES')
f=open( 'psi4out.xyz', 'w' )
f.write( "17  " )
f.write( str(ee) + "\n" )
f.write( MOL.save_string_xyz() )
f.close()
--------------------------------------------------------------------------

    Molecular point group: c1
  Charge       = 0
  Multiplicity = 1
  Basis Set: 6-31G*
  Basis Set:
  @DF-RHF Final Energy:  -344.87938514858598
    Total Energy =                       -344.8793851485860387
    Molecular point group: c1
  Basis Set: 6-31G*
  Basis Set:
  Basis Set: 6-31G*
  Basis Set:
  @DF-RHF Final Energy:  -344.87707441003835
    Total Energy =                       -344.8770744100383467
  Basis Set: 6-31G*
  Basis Set:
  Basis Set: 6-31G*
  Basis Set:
  @DF-RHF Final Energy:  -344.88770176527578
    Total Energy =                       -344.8877017652759491
  Basis Set: 6-31G*
  Basis Set:
  Basis Set: 6-31G*
  Basis Set:
  @DF-RHF Final Energy:  -344.89052862022942
    Total Energy =                       -344.8905286202292473
  Basis Set: 6-31G*
  Basis Set:
  @DF-RHF Final Energy:  -344.88994431870765
    Total Energy =                       -344.8899443187077622
  @DF-RHF Final Energy:  -344.89097248692366
    Total Energy =                       -344.8909724869239994
  Basis Set: 6-31G*
  Basis Set:
  @DF-RHF Final Energy:  -344.89151984584771
    Total Energy =                       -344.8915198458477107
  Basis Set: 6-31G*
  Basis Set:
  Basis Set: 6-31G*
  Basis Set:
  @DF-RHF Final Energy:  -344.89152284348222
    Total Energy =                       -344.8915228434820506
  Basis Set: 6-31G*
  Basis Set:
  Basis Set: 6-31G*
  Basis Set:
  @DF-RHF Final Energy:  -344.89152617491419
    Total Energy =                       -344.8915261749141337
  Basis Set: 6-31G*
  Basis Set:
  Charge       = 0
  Multiplicity = 1
  Basis Set: 6-31G*
  Basis Set:

    Orbital Energies (a.u.)
    -----------------------

    Doubly Occupied:

       1A    -20.602348     2A    -20.539654     3A    -11.374265
       4A    -11.296871     5A    -11.246435     6A    -11.226326
       7A    -11.218810     8A     -1.463382     9A     -1.365116
      10A     -1.083071    11A     -0.990574    12A     -0.969522
      13A     -0.839221    14A     -0.766993    15A     -0.704508
      16A     -0.689525    17A     -0.672881    18A     -0.641448
      19A     -0.602271    20A     -0.578432    21A     -0.573188
      22A     -0.542098    23A     -0.534938    24A     -0.496223
      25A     -0.490797    26A     -0.484548    27A     -0.446940
      28A     -0.431576

  @DF-RHF Final Energy:  -344.89152636513228

   => Energetics <=

    Nuclear Repulsion Energy =            314.0185696092941612
    One-Electron Energy =               -1092.0762698889675448
    Two-Electron Energy =                 433.1661739145411048
    DFT Exchange-Correlation Energy =       0.0000000000000000
    Empirical Dispersion Energy =           0.0000000000000000
    PCM Polarization Energy =               0.0000000000000000
    EFP Energy =                            0.0000000000000000
    Total Energy =                       -344.8915263651322221
    Molecular point group: c1
  Basis Set: 6-31G*
  Basis Set:

  -Total Gradient:
     Atom            X                  Y                   Z
    ------   -----------------  -----------------  -----------------
       1       -0.000038216327     0.000034996749    -0.001032460499
       2        0.000079670555     0.000068630033     0.000944453411
       3        0.000006144209     0.000002345457    -0.000000366428
       4       -0.000188683965    -0.000215707197     0.000992405859
       5        0.000003506276    -0.000000912334     0.000002145776
       6        0.000005746882     0.000006503026     0.000006663791
       7        0.000005854559     0.000001103122     0.000001109860
       8        0.000001019456     0.000000966081     0.000000993288
       9        0.000000256555     0.000000811918    -0.000003353600
      10       -0.000000683124     0.000002405415     0.000002480986
      11        0.000000784434     0.000000522859    -0.000001017973
      12        0.000001687837     0.000000207945     0.000000254484
      13        0.000001091691     0.000000244823     0.000000496345
      14        0.000126201801     0.000124583463    -0.000914228632
      15       -0.000002002296     0.000004726399    -0.000004133674
      16       -0.000003572796    -0.000021171965    -0.000000441416
      17        0.000001194247    -0.000010255797     0.000004998421

  **** Optimization is complete! (in 10 steps) ****
    Final optimized geometry and variables:
    Molecular point group: c1

    Geometry (in Angstrom), charge = 0, multiplicity = 1:

    O            0.961497347729     1.518461619951     0.026569625894
    C            0.779824263325     0.348509470406     0.021071770311
    C           -0.601508910086    -0.277200541761     0.025853788213
    O            1.835883215367    -0.469724618124     0.027840027642
    C           -1.718671270687     0.763469363159     0.043909101539
    H           -0.701433332532    -0.920502590615    -0.844556543031
    H           -0.679167560517    -0.930372950936     0.891707993292
    C           -3.102522242021     0.116109175150     0.052763473067
    H           -1.615953495740     1.410748231446    -0.819514605690
    H           -1.599216962874     1.398791138653     0.913925736167
    H           -3.257953991395    -0.501611563809    -0.827612377142
    H           -3.881205688495     0.871460730867     0.065762055466
    H           -3.240702805416    -0.514095729355     0.927093378837
    C            1.734659191023    -1.857916259186    -0.182391198580
    H            1.138901023429    -2.340610446223     0.581816582085
    H            2.743874608275    -2.235723797926    -0.131209324290
    H            1.324063691809    -2.082463850502    -1.159031197002

  Mulliken Charges: (a.u.)
   Center  Symbol    Alpha    Beta     Spin     Total
       1     O     4.26726  4.26726  0.00000 -0.53452
       2     C     2.59820  2.59820  0.00000  0.80360
       3     C     3.23255  3.23255  0.00000 -0.46510
       4     O     4.30327  4.30327  0.00000 -0.60653
       5     C     3.14832  3.14832  0.00000 -0.29664
       6     H     0.40530  0.40530  0.00000  0.18939
       7     H     0.40366  0.40366  0.00000  0.19268
       8     C     3.24357  3.24357  0.00000 -0.48713
       9     H     0.40807  0.40807  0.00000  0.18386
      10     H     0.40762  0.40762  0.00000  0.18476
      11     H     0.42221  0.42221  0.00000  0.15557
      12     H     0.41344  0.41344  0.00000  0.17313
      13     H     0.42190  0.42190  0.00000  0.15620
      14     C     3.09354  3.09354  0.00000 -0.18708
      15     H     0.41718  0.41718  0.00000  0.16563
      16     H     0.39777  0.39777  0.00000  0.20447
      17     H     0.41614  0.41614  0.00000  0.16772

   Total alpha = 28.00000, Total beta = 28.00000, Total charge =  0.00000
