                              Psi4 1.0.54 Driver

  ==> Input File <==

--------------------------------------------------------------------------
set {
	reference rhf
	basis cc-pvtz
}

set_num_threads( 4 )
memory 2 gb

molecule MOL {
0 1

H	 1.495603	 1.281024	 -0.277968
C	 0.848385	 0.440008	 0.000011
C	 -0.623497	 0.751021	 0.000090
O	 1.320976	 -0.609314	 0.269874
C	 -1.523725	 -0.474323	 -0.000013
H	 -0.813143	 1.382932	 -0.864897
H	 -0.813071	 1.382716	 0.865253
H	 -1.342980	 -1.087348	 -0.873016
H	 -2.565269	 -0.177464	 0.000070
H	 -1.342898	 -1.087564	 0.872820

	symmetry c1
}
set optking {
	frozen_dihedral = ("
		4 2 3 6
	")
}

ee,wfn = optimize('scf', return_wfn=True)
oeprop( wfn, 'DIPOLE', 'QUADRUPOLE', 'MULLIKEN_CHARGES')
f=open( 'psi4out.xyz', 'w' )
f.write( "10  " )
f.write( str(ee) + "\n" )
f.write( MOL.save_string_xyz() )
f.close()
--------------------------------------------------------------------------

    Molecular point group: c1
  Charge       = 0
  Multiplicity = 1
  Basis Set: CC-PVTZ
  Basis Set:
  @DF-RHF Final Energy:  -192.02422673330511
    Total Energy =                       -192.0242267333050563
    Molecular point group: c1
  Basis Set: CC-PVTZ
  Basis Set:
  Basis Set: CC-PVTZ
  Basis Set:
  @DF-RHF Final Energy:  -192.02318684949211
    Total Energy =                       -192.0231868494921628
  Basis Set: CC-PVTZ
  Basis Set:
  Basis Set: CC-PVTZ
  Basis Set:
  @DF-RHF Final Energy:  -192.02432733134356
    Total Energy =                       -192.0243273313436134
  Basis Set: CC-PVTZ
  Basis Set:
  Basis Set: CC-PVTZ
  Basis Set:
  @DF-RHF Final Energy:  -192.02437734339128
    Total Energy =                       -192.0243773433912793
  Basis Set: CC-PVTZ
  Basis Set:
  Charge       = 0
  Multiplicity = 1
  Basis Set: CC-PVTZ
  Basis Set:

    Orbital Energies (a.u.)
    -----------------------

    Doubly Occupied:

       1A    -20.553502     2A    -11.323447     3A    -11.239697
       4A    -11.218643     5A     -1.409110     6A     -1.061821
       7A     -0.911675     8A     -0.774729     9A     -0.686098
      10A     -0.637776    11A     -0.631198    12A     -0.546296
      13A     -0.535940    14A     -0.520046    15A     -0.494730
      16A     -0.416614

  @DF-RHF Final Energy:  -192.02437771640206

   => Energetics <=

    Nuclear Repulsion Energy =            119.3072836041157530
    One-Electron Energy =                -496.7406791422371839
    Two-Electron Energy =                 185.4090178217192602
    DFT Exchange-Correlation Energy =       0.0000000000000000
    Empirical Dispersion Energy =           0.0000000000000000
    PCM Polarization Energy =               0.0000000000000000
    EFP Energy =                            0.0000000000000000
    Total Energy =                       -192.0243777164021708
    Molecular point group: c1
  Basis Set: CC-PVTZ
  Basis Set:

  -Total Gradient:
     Atom            X                  Y                   Z
    ------   -----------------  -----------------  -----------------
       1       -0.000034069905    -0.000059939741     0.000012414509
       2        0.000024066466    -0.000466120389    -0.002252661778
       3       -0.000298590276    -0.001386279188    -0.000392322765
       4        0.000088781387     0.000544643700     0.001688785313
       5        0.000000523089     0.000007134079    -0.000013327263
       6        0.000232244198     0.001336114980     0.000945209409
       7       -0.000026026808    -0.000000442446     0.000001810119
       8        0.000005649418     0.000014453915     0.000007368408
       9        0.000002266514     0.000005918234    -0.000000747605
      10        0.000005155916     0.000004516854     0.000003471654

  **** Optimization is complete! (in 5 steps) ****
    Final optimized geometry and variables:
    Molecular point group: c1

    Geometry (in Angstrom), charge = 0, multiplicity = 1:

    H            1.503734442035     1.287241612006    -0.261696119070
    C            0.848245768850     0.433744854101    -0.049956901512
    C           -0.624895512862     0.739778692999    -0.092891795132
    O            1.313693085419    -0.618442226933     0.221324099111
    C           -1.522967509425    -0.487232856297    -0.092237324299
    H           -0.809396029629     1.382184041655    -0.949302457101
    H           -0.822339235922     1.365520322674     0.776621827090
    H           -1.339228096547    -1.102251892951    -0.964104577643
    H           -2.565021881689    -0.192504842217    -0.097451187197
    H           -1.342691796378    -1.096607989870     0.782487427390

  Mulliken Charges: (a.u.)
   Center  Symbol    Alpha    Beta     Spin     Total
       1     H     0.45365  0.45365  0.00000  0.09270
       2     C     2.91621  2.91621  0.00000  0.16757
       3     C     3.08346  3.08346  0.00000 -0.16691
       4     O     4.16508  4.16508  0.00000 -0.33015
       5     C     3.14081  3.14081  0.00000 -0.28161
       6     H     0.44851  0.44851  0.00000  0.10297
       7     H     0.44829  0.44829  0.00000  0.10341
       8     H     0.44981  0.44981  0.00000  0.10038
       9     H     0.44934  0.44934  0.00000  0.10131
      10     H     0.44483  0.44483  0.00000  0.11033

   Total alpha = 16.00000, Total beta = 16.00000, Total charge =  0.00000

*** Psi4 exiting successfully. Buy a developer a beer!
