  ==> Input File <==

--------------------------------------------------------------------------
set {
	reference rhf
	basis cc-pvtz
}

set_num_threads( 4 )
memory 2 gb

molecule MOL {
0 1

O	 -1.278239	 1.034789	 -0.784693
C	 -1.204115	 0.062668	 -0.112312
C	 -2.386398	 -0.667698	 0.460323
O	 -0.068058	 -0.518372	 0.226882
H	 -2.382952	 -1.693172	 0.114333
H	 -3.296656	 -0.175702	 0.158400
H	 -2.312537	 -0.685191	 1.540100
C	 1.169086	 0.037484	 -0.230612
C	 0.836968	 1.404488	 -0.794625
C	 1.803651	 -0.888385	 -1.252717
H	 1.823132	 0.137205	 0.622246
H	 0.382430	 2.030596	 -0.037569
H	 1.739635	 1.890762	 -1.144545
H	 0.148497	 1.319678	 -1.626942
H	 2.734537	 -0.463143	 -1.609256
H	 2.018839	 -1.853317	 -0.815395
H	 1.143807	 -1.026183	 -2.101776

	symmetry c1
}
set optking {
	frozen_dihedral = ("
		11 8 4 2
	")
}

ee = optimize('scf')
oeprop('DIPOLE', 'QUADRUPOLE', 'MULLIKEN_CHARGES')
f=open( 'psi4out.xyz', 'w' )
f.write( "17  " )
f.write( str(ee) + "\n" )
f.write( MOL.save_string_xyz() )
f.close()
--------------------------------------------------------------------------

    Molecular point group: c1
  Charge       = 0
  Multiplicity = 1
  Basis Set: CC-PVTZ
  Basis Set:
  @DF-RHF Final Energy:  -344.97876499709440
    Total Energy =                       -344.9787649970943448
    Molecular point group: c1
  Basis Set: CC-PVTZ
  Basis Set:
  Basis Set: CC-PVTZ
  Basis Set:
  @DF-RHF Final Energy:  -345.01791368825832
    Total Energy =                       -345.0179136882587159
  Basis Set: CC-PVTZ
  Basis Set:
  Basis Set: CC-PVTZ
  Basis Set:
  @DF-RHF Final Energy:  -345.02710098266920
    Total Energy =                       -345.0271009826690829
  Basis Set: CC-PVTZ
  Basis Set:
  Basis Set: CC-PVTZ
  Basis Set:
  @DF-RHF Final Energy:  -345.02798412437096
    Total Energy =                       -345.0279841243714714
  Basis Set: CC-PVTZ
  Basis Set:
  @DF-RHF Final Energy:  -345.03055047500982
    Total Energy =                       -345.0305504750100454
  @DF-RHF Final Energy:  -345.03171146006287
    Total Energy =                       -345.0317114600629793
  Basis Set: CC-PVTZ
  Basis Set:
  @DF-RHF Final Energy:  -345.03206555295208
    Total Energy =                       -345.0320655529519627
  Basis Set: CC-PVTZ
  Basis Set:
  Basis Set: CC-PVTZ
  Basis Set:
  @DF-RHF Final Energy:  -345.03211595457464
    Total Energy =                       -345.0321159545746355
  Basis Set: CC-PVTZ
  Basis Set:
  Basis Set: CC-PVTZ
  Basis Set:
  @DF-RHF Final Energy:  -345.03212565703808
    Total Energy =                       -345.0321256570381365
  Basis Set: CC-PVTZ
  Basis Set:
  Charge       = 0
  Multiplicity = 1
  Basis Set: CC-PVTZ
  Basis Set:

    Orbital Energies (a.u.)
    -----------------------

    Doubly Occupied:

       1A    -20.587554     2A    -20.527005     3A    -11.366756
       4A    -11.295326     5A    -11.227539     6A    -11.217857
       7A    -11.210962     8A     -1.461085     9A     -1.363208
      10A     -1.080392    11A     -1.002449    12A     -0.946905
      13A     -0.867635    14A     -0.738180    15A     -0.691019
      16A     -0.676919    17A     -0.660476    18A     -0.616979
      19A     -0.584273    20A     -0.580033    21A     -0.565927
      22A     -0.549823    23A     -0.533159    24A     -0.517477
      25A     -0.508973    26A     -0.482333    27A     -0.441560
      28A     -0.430987

  @DF-RHF Final Energy:  -345.03212656750793

   => Energetics <=

    Nuclear Repulsion Energy =            324.5169864662389045
    One-Electron Energy =               -1113.6326431949926246
    Two-Electron Energy =                 444.0835301612461876
    DFT Exchange-Correlation Energy =       0.0000000000000000
    Empirical Dispersion Energy =           0.0000000000000000
    PCM Polarization Energy =               0.0000000000000000
    EFP Energy =                            0.0000000000000000
    Total Energy =                       -345.0321265675075324
    Molecular point group: c1
  Basis Set: CC-PVTZ
  Basis Set:

  -Total Gradient:
     Atom            X                  Y                   Z
    ------   -----------------  -----------------  -----------------
       1       -0.000030898104     0.000038460148    -0.000037011894
       2        0.000087789128     0.001545597946     0.002531501198
       3       -0.000012616483     0.000077255573     0.000107728761
       4       -0.000219971300    -0.002054813362    -0.003883201948
       5       -0.000009807559    -0.000024259507    -0.000036977090
       6        0.000003380789    -0.000005867951    -0.000007966263
       7        0.000001480152    -0.000034719688    -0.000026108086
       8        0.001273663353    -0.002263912726     0.000790148611
       9       -0.000000379094     0.000023088017     0.000012401640
      10       -0.000019410381    -0.000019205867    -0.000012871589
      11       -0.001074990942     0.002737389321     0.000567834213
      12        0.000002555141     0.000004780243     0.000001426187
      13        0.000000304538    -0.000009164664     0.000002763938
      14        0.000001409101    -0.000007798252    -0.000017268655
      15       -0.000012214342     0.000003094187     0.000012511317
      16        0.000005778030    -0.000009118638    -0.000003390028
      17        0.000003927968    -0.000000804777    -0.000001520314

  **** Optimization is complete! (in 10 steps) ****
    Final optimized geometry and variables:
    Molecular point group: c1

    Geometry (in Angstrom), charge = 0, multiplicity = 1:

    O           -1.392937119255     0.833049761544    -0.493921814456
    C           -1.134139319822    -0.060812193821     0.236560401244
    C           -2.169900481549    -0.853667338673     0.988828080350
    O            0.074255007053    -0.520313029349     0.497347647527
    H           -2.083276105474    -1.901583832363     0.732671872800
    H           -3.153575720667    -0.489823274535     0.739983739719
    H           -1.996057326650    -0.760759501913     2.053151561697
    C            1.335259336086     0.047449438204     0.101613077853
    C            1.312134110549     1.470979499973    -0.434640297499
    C            1.986321726722    -0.927815340795    -0.860714972318
    H            1.887500254793     0.070171826564     1.031698199693
    H            0.798799180215     2.144148921693     0.236522555310
    H            2.344440823761     1.795106464803    -0.514007932634
    H            0.848237789352     1.541629901589    -1.405328098052
    H            2.999811397055    -0.614647149102    -1.081589487986
    H            2.018887323840    -1.921608820655    -0.433543638596
    H            1.431457589275    -0.969777217596    -1.790736177949

  Mulliken Charges: (a.u.)
   Center  Symbol    Alpha    Beta     Spin     Total
       1     O     4.19815  4.19815  0.00000 -0.39630
       2     C     2.80670  2.80670  0.00000  0.38660
       3     C     3.13667  3.13667  0.00000 -0.27334
       4     O     4.16401  4.16401  0.00000 -0.32803
       5     H     0.44603  0.44603  0.00000  0.10794
       6     H     0.43936  0.43936  0.00000  0.12127
       7     H     0.44734  0.44734  0.00000  0.10532
       8     C     2.93918  2.93918  0.00000  0.12164
       9     C     3.15431  3.15431  0.00000 -0.30861
      10     C     3.14340  3.14340  0.00000 -0.28679
      11     H     0.44403  0.44403  0.00000  0.11194
      12     H     0.44206  0.44206  0.00000  0.11588
      13     H     0.45192  0.45192  0.00000  0.09615
      14     H     0.43831  0.43831  0.00000  0.12339
      15     H     0.45278  0.45278  0.00000  0.09444
      16     H     0.44594  0.44594  0.00000  0.10813
      17     H     0.44982  0.44982  0.00000  0.10037

   Total alpha = 28.00000, Total beta = 28.00000, Total charge = -0.00000
