  ==> Input File <==

--------------------------------------------------------------------------
set {
	reference rhf
	basis 6-31G*
}

set_num_threads( 4 )
memory 2 gb

molecule MOL {
0 1

H	 -3.042581	 -0.665861	 0.004336
O	 -2.245037	 -1.176175	 0.000806
C	 -1.162163	 -0.365336	 0.001020
C	 -0.032230	 -0.634431	 -0.750092
C	 -1.220344	 0.770276	 0.799662
H	 0.015367	 -1.515647	 -1.367479
C	 1.039695	 0.245197	 -0.694048
H	 -2.112773	 0.947152	 1.371853
C	 -0.151399	 1.647507	 0.853854
H	 1.920884	 0.037778	 -1.275015
C	 0.988382	 1.374941	 0.097166
C	 -0.222733	 2.895111	 1.703264
H	 1.828539	 2.045953	 0.131930
H	 0.704323	 3.053743	 2.243813
H	 -1.027781	 2.836224	 2.425960
H	 -0.394979	 3.772104	 1.085557

	symmetry c1
}
set optking {
	frozen_dihedral = ("
		5 3 2 1
	")
}

ee = optimize('scf')
oeprop('DIPOLE', 'QUADRUPOLE', 'MULLIKEN_CHARGES')
f=open( 'psi4out.xyz', 'w' )
f.write( "16  " )
f.write( str(ee) + "\n" )
f.write( MOL.save_string_xyz() )
f.close()
--------------------------------------------------------------------------

    Molecular point group: c1
  Charge       = 0
  Multiplicity = 1
  Basis Set: 6-31G*
  Basis Set:
  @DF-RHF Final Energy:  -344.59144191020249
    Total Energy =                       -344.5914419102024908
    Molecular point group: c1
  Basis Set: 6-31G*
  Basis Set:
  Basis Set: 6-31G*
  Basis Set:
  @DF-RHF Final Energy:  -344.59304431313342
    Total Energy =                       -344.5930443131332481
  Basis Set: 6-31G*
  Basis Set:
  Basis Set: 6-31G*
  Basis Set:
  @DF-RHF Final Energy:  -344.59316412286387
    Total Energy =                       -344.5931641228638682
  Basis Set: 6-31G*
  Basis Set:
  Basis Set: 6-31G*
  Basis Set:
  @DF-RHF Final Energy:  -344.59317804114397
    Total Energy =                       -344.5931780411436876
  Basis Set: 6-31G*
  Basis Set:
  @DF-RHF Final Energy:  -344.59318209558643
    Total Energy =                       -344.5931820955863714
  @DF-RHF Final Energy:  -344.59318371070572
    Total Energy =                       -344.5931837107054889
  @DF-RHF Final Energy:  -344.59318758265186
    Total Energy =                       -344.5931875826518080
  @DF-RHF Final Energy:  -344.59319946403474
    Total Energy =                       -344.5931994640347966
  @DF-RHF Final Energy:  -344.59321438880761
    Total Energy =                       -344.5932143888078372
  @DF-RHF Final Energy:  -344.59321858928320
    Total Energy =                       -344.5932185892833104
  @DF-RHF Final Energy:  -344.59321506230714
    Total Energy =                       -344.5932150623069106
  @DF-RHF Final Energy:  -344.59302782743549
    Total Energy =                       -344.5930278274354350
  Basis Set: 6-31G*
  Basis Set:
  @DF-RHF Final Energy:  -344.59322377320387
    Total Energy =                       -344.5932237732041585
  Basis Set: 6-31G*
  Basis Set:
  Basis Set: 6-31G*
  Basis Set:
  @DF-RHF Final Energy:  -344.59322599643991
    Total Energy =                       -344.5932259964402533
  Basis Set: 6-31G*
  Basis Set:
  Basis Set: 6-31G*
  Basis Set:
  @DF-RHF Final Energy:  -344.59322887805905
    Total Energy =                       -344.5932288780592216
  Basis Set: 6-31G*
  Basis Set:
  Charge       = 0
  Multiplicity = 1
  Basis Set: 6-31G*
  Basis Set:

    Orbital Energies (a.u.)
    -----------------------

    Doubly Occupied:

       1A    -20.583384     2A    -11.292508     3A    -11.242904
       4A    -11.232465     5A    -11.223027     6A    -11.221822
       7A    -11.218408     8A    -11.218258     9A     -1.400474
      10A     -1.149902    11A     -1.043859    12A     -1.003163
      13A     -0.937789    14A     -0.836725    15A     -0.799778
      16A     -0.724680    17A     -0.678919    18A     -0.648038
      19A     -0.609320    20A     -0.591831    21A     -0.576788
      22A     -0.567024    23A     -0.557691    24A     -0.526775
      25A     -0.503233    26A     -0.481522    27A     -0.465769
      28A     -0.329079    29A     -0.310233

  @DF-RHF Final Energy:  -344.59322920428633

   => Energetics <=

    Nuclear Repulsion Energy =            345.3492796828522842
    One-Electron Energy =               -1151.9342807202451695
    Two-Electron Energy =                 461.9917718331066112
    DFT Exchange-Correlation Energy =       0.0000000000000000
    Empirical Dispersion Energy =           0.0000000000000000
    PCM Polarization Energy =               0.0000000000000000
    EFP Energy =                            0.0000000000000000
    Total Energy =                       -344.5932292042862741
    Molecular point group: c1
  Basis Set: 6-31G*
  Basis Set:

  -Total Gradient:
     Atom            X                  Y                   Z
    ------   -----------------  -----------------  -----------------
       1        0.000084395579     0.000102385283    -0.002655592056
       2        0.000360889714    -0.000769694413     0.004232219839
       3       -0.001412504503     0.001930717947    -0.003428103170
       4        0.000124792919    -0.000073760622     0.000156840239
       5        0.000834725511    -0.001173618000     0.001657991848
       6        0.000011360999    -0.000023427596     0.000024819058
       7       -0.000048344228    -0.000040199728    -0.000053777491
       8        0.000022654691    -0.000021724494     0.000025632522
       9        0.000063343737    -0.000018020026     0.000023934673
      10        0.000002270268     0.000002080656     0.000004847029
      11       -0.000040698411     0.000057737866     0.000034228538
      12       -0.000002127115     0.000020364413    -0.000011368316
      13        0.000003408404    -0.000005507401    -0.000001328238
      14       -0.000003853918    -0.000004595878     0.000001737612
      15       -0.000007316329    -0.000001521919    -0.000014672445
      16        0.000007002684     0.000018783907     0.000002590356

  **** Optimization is complete! (in 16 steps) ****
    Final optimized geometry and variables:
    Molecular point group: c1

    Geometry (in Angstrom), charge = 0, multiplicity = 1:

    H           -2.623953528836    -1.299858216067    -0.359494664850
    O           -1.803022602854    -1.771899635540    -0.353405670971
    C           -0.756244394068    -0.905602070019    -0.287705232222
    C            0.392093196736    -1.218145640289    -0.998506334927
    C           -0.798575703929     0.221540611928     0.514875696285
    H            0.409614753644    -2.104758009324    -1.604276771302
    C            1.486122004175    -0.379342339651    -0.905115548529
    H           -1.689667283962     0.430557664860     1.083511074584
    C            0.296683156256     1.075197800013     0.598278757379
    H            2.381493202467    -0.614791937405    -1.452720143175
    C            1.443145658090     0.762464056115    -0.118302446183
    C            0.223582083561     2.322163200307     1.448729954210
    H            2.303748245398     1.405047891107    -0.060343337280
    H            1.213166537478     2.694978437688     1.685462673478
    H           -0.295602996549     2.132567334178     2.382096860585
    H           -0.312129085720     3.113283877777     0.931013530351

  Mulliken Charges: (a.u.)
   Center  Symbol    Alpha    Beta     Spin     Total
       1     H     0.27261  0.27261  0.00000  0.45478
       2     O     4.38245  4.38245  0.00000 -0.76490
       3     C     2.79886  2.79886  0.00000  0.40229
       4     C     3.12512  3.12512  0.00000 -0.25023
       5     C     3.14911  3.14911  0.00000 -0.29822
       6     H     0.39284  0.39284  0.00000  0.21432
       7     C     3.08977  3.08977  0.00000 -0.17953
       8     H     0.40452  0.40452  0.00000  0.19096
       9     C     2.97079  2.97079  0.00000  0.05841
      10     H     0.39848  0.39848  0.00000  0.20304
      11     C     3.12463  3.12463  0.00000 -0.24926
      12     C     3.25442  3.25442  0.00000 -0.50885
      13     H     0.40297  0.40297  0.00000  0.19405
      14     H     0.41163  0.41163  0.00000  0.17674
      15     H     0.41206  0.41206  0.00000  0.17588
      16     H     0.40973  0.40973  0.00000  0.18053

   Total alpha = 29.00000, Total beta = 29.00000, Total charge =  0.00000
