                              Psi4 1.0.54 Driver

  ==> Input File <==

--------------------------------------------------------------------------
set {
	reference rhf
	basis cc-pvtz
}

set_num_threads( 4 )
memory 2 gb

molecule MOL {
0 1

O	 -1.235868	 0.073904	 -1.881114
C	 -1.285460	 0.596964	 -0.820429
C	 -2.085201	 1.830898	 -0.510148
O	 -0.637375	 0.157174	 0.243149
H	 -1.425118	 2.612300	 -0.156000
H	 -2.604279	 2.157306	 -1.396519
H	 -2.793616	 1.616232	 0.279558
C	 0.162530	 -1.009518	 0.097799
C	 1.587210	 -0.664190	 0.477086
H	 0.096803	 -1.356267	 -0.924704
H	 -0.233803	 -1.785900	 0.736810
C	 2.256770	 0.342732	 -0.454344
H	 2.154716	 -1.590834	 0.479041
H	 1.598751	 -0.289614	 1.496104
C	 3.698146	 0.643205	 -0.057145
H	 2.235038	 -0.042575	 -1.470299
H	 1.683491	 1.262594	 -0.461300
H	 4.150202	 1.356548	 -0.736242
H	 4.305463	 -0.255904	 -0.069842
H	 3.749130	 1.061068	 0.942759

	symmetry c1
}
set optking {
	frozen_dihedral = ("
		2 4 8 10
	")
}

ee,wfn = optimize('scf', return_wfn=True)
oeprop( wfn, 'DIPOLE', 'QUADRUPOLE', 'MULLIKEN_CHARGES')
f=open( 'psi4out.xyz', 'w' )
f.write( "20  " )
f.write( str(ee) + "\n" )
f.write( MOL.save_string_xyz() )
f.close()
--------------------------------------------------------------------------

    Molecular point group: c1
  Charge       = 0
  Multiplicity = 1
  Basis Set: CC-PVTZ
  Basis Set:
  @DF-RHF Final Energy:  -384.08445826052343
    Total Energy =                       -384.0844582605233200
    Molecular point group: c1
  Basis Set: CC-PVTZ
  Basis Set:
  Basis Set: CC-PVTZ
  Basis Set:
  @DF-RHF Final Energy:  -384.08503943770370
    Total Energy =                       -384.0850394377036992
  Basis Set: CC-PVTZ
  Basis Set:
  Basis Set: CC-PVTZ
  Basis Set:
  @DF-RHF Final Energy:  -384.08517196545711
    Total Energy =                       -384.0851719654569933
  Basis Set: CC-PVTZ
  Basis Set:
  Basis Set: CC-PVTZ
  Basis Set:
  @DF-RHF Final Energy:  -384.08533397558068
    Total Energy =                       -384.0853339755809657
  Basis Set: CC-PVTZ
  Basis Set:
  Basis Set: CC-PVTZ
  Basis Set:
  @DF-RHF Final Energy:  -384.08544381837640
    Total Energy =                       -384.0854438183760067
  Basis Set: CC-PVTZ
  Basis Set:
  Charge       = 0
  Multiplicity = 1
  Basis Set: CC-PVTZ
  Basis Set:

    Orbital Energies (a.u.)
    -----------------------

    Doubly Occupied:

       1A    -20.593042     2A    -20.531911     3A    -11.367920
       4A    -11.278562     5A    -11.230936     6A    -11.222758
       7A    -11.218273     8A    -11.210926     9A     -1.468197
      10A     -1.365541    11A     -1.085842    12A     -1.029476
      13A     -0.981547    14A     -0.885719    15A     -0.809645
      16A     -0.773419    17A     -0.696072    18A     -0.683484
      19A     -0.665908    20A     -0.632552    21A     -0.603868
      22A     -0.594729    23A     -0.573608    24A     -0.549175
      25A     -0.543722    26A     -0.535811    27A     -0.506623
      28A     -0.492272    29A     -0.477938    30A     -0.472999
      31A     -0.443778    32A     -0.441315

  @DF-RHF Final Energy:  -384.08544470539960

   => Energetics <=

    Nuclear Repulsion Energy =            390.7305873773099165
    One-Electron Energy =               -1297.6969311712423405
    Two-Electron Energy =                 522.8808990885328285
    DFT Exchange-Correlation Energy =       0.0000000000000000
    Empirical Dispersion Energy =           0.0000000000000000
    PCM Polarization Energy =               0.0000000000000000
    EFP Energy =                            0.0000000000000000
    Total Energy =                       -384.0854447053995955
    Molecular point group: c1
  Basis Set: CC-PVTZ
  Basis Set:

  -Total Gradient:
     Atom            X                  Y                   Z
    ------   -----------------  -----------------  -----------------
       1       -0.000076808750     0.000052132671    -0.000064886829
       2        0.000383623097     0.000148972169     0.000031340931
       3        0.000074056389    -0.000089015608     0.000010899552
       4       -0.000512704137    -0.000023322162     0.000197767376
       5       -0.000049048141    -0.000065517190    -0.000043448353
       6        0.000064391663    -0.000047614231     0.000030191250
       7        0.000048907285    -0.000009280131    -0.000028528173
       8        0.000332493893     0.000345698446    -0.000120588518
       9       -0.000026878914    -0.000025589368    -0.000045473665
      10       -0.000213015262    -0.000251757172     0.000072187730
      11        0.000085674830    -0.000042787513    -0.000042884469
      12       -0.000035450132     0.000082370956     0.000012579240
      13       -0.000010018026    -0.000027878408     0.000009002201
      14       -0.000006101408     0.000007901117    -0.000048242585
      15       -0.000019196568    -0.000035314388     0.000016694578
      16       -0.000002211166    -0.000018059205     0.000017740683
      17       -0.000003444599    -0.000002904129    -0.000004168609
      18       -0.000024609295    -0.000010862467    -0.000004038714
      19       -0.000010996838     0.000010671813     0.000002510152
      20        0.000001336077     0.000002154800     0.000001346218

  **** Optimization is complete! (in 6 steps) ****
    Final optimized geometry and variables:
    Molecular point group: c1

    Geometry (in Angstrom), charge = 0, multiplicity = 1:

    O           -1.641150741610    -0.146036046246    -1.497969477778
    C           -1.633603139913     0.355923767942    -0.426347458907
    C           -2.423991511410     1.579139135575    -0.055954203278
    O           -0.930305146286    -0.084979142157     0.602574326113
    H           -1.752185119943     2.357725485906     0.281260691358
    H           -2.987020777051     1.918035912395    -0.910098497549
    H           -3.091654190326     1.344497706414     0.762841440769
    C           -0.109816206366    -1.241280991429     0.468528165408
    C            1.324411510372    -0.908568615735     0.831503855894
    H           -0.188110971578    -1.620738558412    -0.536858680259
    H           -0.509158685198    -1.979880849858     1.150118457844
    C            2.008967181310     0.050328824107    -0.138255515587
    H            1.874239115733    -1.845617269910     0.865240993491
    H            1.347675183912    -0.497455185053     1.836137334273
    C            3.454971444215     0.342842724744     0.247584832561
    H            1.977422764987    -0.369063743190    -1.139351926448
    H            1.454022414615     0.981453621980    -0.178097875953
    H            3.916626270948     1.024907935209    -0.456601554899
    H            4.047971373074    -0.565542411055     0.265152379027
    H            3.513968645297     0.794058247503     1.232487324738

  Mulliken Charges: (a.u.)
   Center  Symbol    Alpha    Beta     Spin     Total
       1     O     4.19814  4.19814  0.00000 -0.39629
       2     C     2.79964  2.79964  0.00000  0.40072
       3     C     3.13948  3.13948  0.00000 -0.27895
       4     O     4.16287  4.16287  0.00000 -0.32574
       5     H     0.44684  0.44684  0.00000  0.10632
       6     H     0.43827  0.43827  0.00000  0.12346
       7     H     0.44568  0.44568  0.00000  0.10864
       8     C     2.99999  2.99999  0.00000  0.00002
       9     C     3.08356  3.08356  0.00000 -0.16712
      10     H     0.43980  0.43980  0.00000  0.12040
      11     H     0.44362  0.44362  0.00000  0.11277
      12     C     3.09047  3.09047  0.00000 -0.18094
      13     H     0.45239  0.45239  0.00000  0.09522
      14     H     0.45265  0.45265  0.00000  0.09471
      15     C     3.14977  3.14977  0.00000 -0.29953
      16     H     0.44846  0.44846  0.00000  0.10308
      17     H     0.45168  0.45168  0.00000  0.09665
      18     H     0.44692  0.44692  0.00000  0.10615
      19     H     0.45496  0.45496  0.00000  0.09009
      20     H     0.45483  0.45483  0.00000  0.09035

   Total alpha = 32.00000, Total beta = 32.00000, Total charge =  0.00000

*** Psi4 exiting successfully. Buy a developer a beer!
