  ==> Input File <==

--------------------------------------------------------------------------
set {
	reference rhf
	basis cc-pvtz
}

set_num_threads( 4 )
memory 2 gb

molecule MOL {
0 1

H	 -1.835082	 1.385983	 0.000069
C	 -1.300516	 0.441153	 -0.000028
O	 -0.006604	 0.654344	 -0.000106
O	 -1.828920	 -0.612308	 0.000113
C	 0.852093	 -0.482521	 -0.000161
C	 0.761733	 -1.128548	 -1.362213
H	 0.538052	 -1.157425	 0.783318
H	 1.859140	 -0.159585	 0.222399
H	 -0.252395	 -1.443251	 -1.573106
H	 1.405349	 -1.999462	 -1.395690
H	 1.075310	 -0.440383	 -2.136854

	symmetry c1
}
set optking {
	frozen_dihedral = ("
		7 5 3 2
	")
}

ee = optimize('scf')
oeprop('DIPOLE', 'QUADRUPOLE', 'MULLIKEN_CHARGES')
f=open( 'psi4out.xyz', 'w' )
f.write( "11  " )
f.write( str(ee) + "\n" )
f.write( MOL.save_string_xyz() )
f.close()
--------------------------------------------------------------------------

    Molecular point group: c1
  Charge       = 0
  Multiplicity = 1
  Basis Set: CC-PVTZ
  Basis Set:
  @DF-RHF Final Energy:  -266.92753497262902
    Total Energy =                       -266.9275349726289619
    Molecular point group: c1
  Basis Set: CC-PVTZ
  Basis Set:
  Basis Set: CC-PVTZ
  Basis Set:
  @DF-RHF Final Energy:  -266.93007618106071
    Total Energy =                       -266.9300761810605991
  Basis Set: CC-PVTZ
  Basis Set:
  Basis Set: CC-PVTZ
  Basis Set:
  @DF-RHF Final Energy:  -266.92877069362424
    Total Energy =                       -266.9287706936243012
  Basis Set: CC-PVTZ
  Basis Set:
  Basis Set: CC-PVTZ
  Basis Set:
  @DF-RHF Final Energy:  -266.93041249342048
    Total Energy =                       -266.9304124934201354
  Basis Set: CC-PVTZ
  Basis Set:
  Basis Set: CC-PVTZ
  Basis Set:
  @DF-RHF Final Energy:  -266.93048202650527
    Total Energy =                       -266.9304820265051035
  Basis Set: CC-PVTZ
  Basis Set:
  Basis Set: CC-PVTZ
  Basis Set:
  @DF-RHF Final Energy:  -266.93048308719187
    Total Energy =                       -266.9304830871919307
  Basis Set: CC-PVTZ
  Basis Set:
  Charge       = 0
  Multiplicity = 1
  Basis Set: CC-PVTZ
  Basis Set:

    Orbital Energies (a.u.)
    -----------------------

    Doubly Occupied:

       1A    -20.605168     2A    -20.545532     3A    -11.370806
       4A    -11.290697     5A    -11.220797     6A     -1.478472
       7A     -1.377380     8A     -1.049159     9A     -0.914288
      10A     -0.796435    11A     -0.745922    12A     -0.687769
      13A     -0.657660    14A     -0.625895    15A     -0.577593
      16A     -0.543262    17A     -0.536879    18A     -0.501958
      19A     -0.462878    20A     -0.455787

  @DF-RHF Final Energy:  -266.93048326283122

   => Energetics <=

    Nuclear Repulsion Energy =            182.8221754009422568
    One-Electron Energy =                -726.6166454320235744
    Two-Electron Energy =                 276.8639867682500153
    DFT Exchange-Correlation Energy =       0.0000000000000000
    Empirical Dispersion Energy =           0.0000000000000000
    PCM Polarization Energy =               0.0000000000000000
    EFP Energy =                            0.0000000000000000
    Total Energy =                       -266.9304832628313306
    Molecular point group: c1
  Basis Set: CC-PVTZ
  Basis Set:

  -Total Gradient:
     Atom            X                  Y                   Z
    ------   -----------------  -----------------  -----------------
       1       -0.000007446875    -0.000001651453     0.000002818194
       2       -0.000034024560     0.000037959950    -0.001847591009
       3        0.000386662627     0.000213026221     0.002988452979
       4       -0.000004231149    -0.000006618967    -0.000002807676
       5       -0.001659342691    -0.001159409865    -0.002449531534
       6       -0.000009721949     0.000005128543     0.000010439652
       7        0.001328581544     0.000912501492     0.001300818982
       8       -0.000007328090     0.000003704795    -0.000003017315
       9        0.000003388825     0.000000785602     0.000002989451
      10        0.000002837028    -0.000004318229    -0.000003595912
      11        0.000000625289    -0.000001108085     0.000001024190

  **** Optimization is complete! (in 7 steps) ****
    Final optimized geometry and variables:
    Molecular point group: c1

    Geometry (in Angstrom), charge = 0, multiplicity = 1:

    H           -1.488734595854     1.678955386640     0.313396616480
    C           -0.996872717533     0.711121300625     0.310624844723
    O            0.304099480914     0.870219082187     0.270852299852
    O           -1.574010556102    -0.316131041325     0.349223031180
    C            1.137509669173    -0.286696080797     0.223469239273
    C            1.138795161068    -0.948564069659    -1.138536325787
    H            0.835951803959    -0.969211534889     1.004369827275
    H            2.120148254726     0.089859777927     0.463281203082
    H            0.166892035147    -1.351651515150    -1.382228336305
    H            1.856260697105    -1.761185608427    -1.138529994002
    H            1.429913141497    -0.239714314973    -1.904344575400

  Mulliken Charges: (a.u.)
   Center  Symbol    Alpha    Beta     Spin     Total
       1     H     0.44576  0.44576  0.00000  0.10847
       2     C     2.84235  2.84235  0.00000  0.31530
       3     O     4.14870  4.14870  0.00000 -0.29740
       4     O     4.19745  4.19745  0.00000 -0.39489
       5     C     2.98081  2.98081  0.00000  0.03837
       6     C     3.14905  3.14905  0.00000 -0.29810
       7     H     0.45043  0.45043  0.00000  0.09913
       8     H     0.44390  0.44390  0.00000  0.11221
       9     H     0.43915  0.43915  0.00000  0.12170
      10     H     0.45067  0.45067  0.00000  0.09866
      11     H     0.45172  0.45172  0.00000  0.09656

   Total alpha = 20.00000, Total beta = 20.00000, Total charge = -0.00000
