  ==> Input File <==

--------------------------------------------------------------------------
set {
	reference rhf
	basis 6-31G*
}

set_num_threads( 1 )
memory 2 gb

molecule MOL {
0 1

H	 -4.143015	 -2.286689	 0.212079
C	 -3.399452	 -1.533277	 0.385702
C	 -2.163751	 -1.729525	 -0.012458
H	 -3.691565	 -0.629406	 0.886299
O	 -1.180634	 -0.819263	 0.215062
H	 -1.852478	 -2.624466	 -0.521755
C	 0.051604	 -1.018856	 -0.387932
C	 1.043764	 0.054862	 -0.001873
H	 -0.017620	 -1.041351	 -1.469781
H	 0.437898	 -1.966374	 -0.042284
F	 2.212596	 -0.199467	 -0.571921
F	 0.652529	 1.252447	 -0.405055
F	 1.230877	 0.110694	 1.300533

	symmetry c1
}
set optking {
	frozen_dihedral = ("
		11 8 7 9,
		6 3 2 1,
		6 3 5 7
	")
}

ee = energy('scf')
oeprop('DIPOLE', 'QUADRUPOLE', 'MULLIKEN_CHARGES')
f=open( 'psi4out.xyz', 'w' )
f.write( "13  " )
f.write( str(ee) + "\n" )
f.write( MOL.save_string_xyz() )
f.close()
--------------------------------------------------------------------------

    Molecular point group: c1

    Geometry (in Angstrom), charge = 0, multiplicity = 1:

       Center              X                  Y                   Z               Mass
    ------------   -----------------  -----------------  -----------------  -----------------
           H         -4.111117997576    -1.887314865078     0.145067009903     1.007825032070
           C         -3.367554997576    -1.133902865078     0.318690009903    12.000000000000
           C         -2.131853997576    -1.330150865078    -0.079469990097    12.000000000000
           H         -3.659667997576    -0.230031865078     0.819287009903     1.007825032070
           O         -1.148736997576    -0.419888865078     0.148050009903    15.994914619560
           H         -1.820580997576    -2.225091865078    -0.588766990097     1.007825032070
           C          0.083501002424    -0.619481865078    -0.454943990097    12.000000000000
           C          1.075661002424     0.454236134922    -0.068884990097    12.000000000000
           H          0.014277002424    -0.641976865078    -1.536792990097     1.007825032070
           H          0.469795002424    -1.566999865078    -0.109295990097     1.007825032070
           F          2.244493002424     0.199907134922    -0.638932990097    18.998403224000
           F          0.684426002424     1.651821134922    -0.472066990097    18.998403224000
           F          1.262774002424     0.510068134922     1.233521009903    18.998403224000

  Charge       = 0
  Multiplicity = 1
  Basis Set: 6-31G*
  Basis Set:

    Orbital Energies (a.u.)
    -----------------------

    Doubly Occupied:

       1A    -26.345854     2A    -26.340266     3A    -26.338026
       4A    -20.604819     5A    -11.507351     6A    -11.318682
       7A    -11.303329     8A    -11.220122     9A     -1.740333
      10A     -1.639555    11A     -1.635059    12A     -1.436264
      13A     -1.087114    14A     -1.016583    15A     -0.923230
      16A     -0.836862    17A     -0.829767    18A     -0.807176
      19A     -0.798931    20A     -0.719769    21A     -0.714495
      22A     -0.697817    23A     -0.680768    24A     -0.658489
      25A     -0.651042    26A     -0.645770    27A     -0.641018
      28A     -0.576226    29A     -0.559356    30A     -0.527074
      31A     -0.510909    32A     -0.354095

  @DF-RHF Final Energy:  -527.53313632871232

   => Energetics <=

    Nuclear Repulsion Energy =            404.6874605193941079
    One-Electron Energy =               -1533.1088369989593048
    Two-Electron Energy =                 600.8882401508519706
    DFT Exchange-Correlation Energy =       0.0000000000000000
    Empirical Dispersion Energy =           0.0000000000000000
    PCM Polarization Energy =               0.0000000000000000
    EFP Energy =                            0.0000000000000000
    Total Energy =                       -527.5331363287132262

  Mulliken Charges: (a.u.)
   Center  Symbol    Alpha    Beta     Spin     Total
       1     H     0.40682  0.40682  0.00000  0.18636
       2     C     3.23334  3.23334  0.00000 -0.46668
       3     C     2.89455  2.89455  0.00000  0.21090
       4     H     0.39999  0.39999  0.00000  0.20003
       5     O     4.30675  4.30675  0.00000 -0.61349
       6     H     0.40893  0.40893  0.00000  0.18214
       7     C     3.05030  3.05030  0.00000 -0.10060
       8     C     2.45025  2.45025  0.00000  1.09950
       9     H     0.40561  0.40561  0.00000  0.18878
      10     H     0.40755  0.40755  0.00000  0.18489
      11     F     4.68363  4.68363  0.00000 -0.36727
      12     F     4.67764  4.67764  0.00000 -0.35528
      13     F     4.67464  4.67464  0.00000 -0.34929

   Total alpha = 32.00000, Total beta = 32.00000, Total charge = -0.00000
