  ==> Input File <==

--------------------------------------------------------------------------
set {
	reference rhf
	basis 6-31G*
}

set_num_threads( 4 )
memory 2 gb

molecule MOL {
0 1

H	 -2.185381	 -2.829268	 -0.480985
C	 -2.678855	 -1.875436	 -0.705287
C	 -2.582896	 -0.836843	 0.383164
O	 -3.235813	 -1.720779	 -1.743376
C	 -1.138257	 -0.599670	 0.844709
H	 -3.042120	 0.077306	 0.025179
H	 -3.172554	 -1.199563	 1.224231
C	 -0.252658	 0.041456	 -0.226725
H	 -1.158386	 0.036829	 1.724339
H	 -0.701577	 -1.544431	 1.164856
C	 1.180775	 0.282413	 0.250794
H	 -0.695846	 0.985621	 -0.536537
H	 -0.233705	 -0.587533	 -1.114730
C	 2.148627	 -0.814315	 -0.201312
H	 1.516199	 1.249228	 -0.115937
H	 1.192670	 0.346017	 1.338083
C	 3.580890	 -0.659131	 0.322722
H	 2.166869	 -0.852443	 -1.289387
H	 1.762857	 -1.776509	 0.128956
C	 4.324889	 0.564933	 -0.213704
H	 4.142010	 -1.551473	 0.056605
H	 3.564836	 -0.624694	 1.410140
H	 4.342616	 0.565491	 -1.300421
H	 3.866655	 1.493402	 0.110242
H	 5.353900	 0.572371	 0.132816

	symmetry c1
}
set optking {
	frozen_dihedral = ("
		12 8 11 14
	")
}

ee = optimize('scf')
oeprop('DIPOLE', 'QUADRUPOLE', 'MULLIKEN_CHARGES')
f=open( 'psi4out.xyz', 'w' )
f.write( "25  " )
f.write( str(ee) + "\n" )
f.write( MOL.save_string_xyz() )
f.close()
--------------------------------------------------------------------------

    Molecular point group: c1
  Charge       = 0
  Multiplicity = 1
  Basis Set: 6-31G*
  Basis Set:
  @DF-RHF Final Energy:  -387.11781733721733
    Total Energy =                       -387.1178173372168203
    Molecular point group: c1
  Basis Set: 6-31G*
  Basis Set:
  Basis Set: 6-31G*
  Basis Set:
  @DF-RHF Final Energy:  -387.11783827778260
    Total Energy =                       -387.1178382777824254
  Basis Set: 6-31G*
  Basis Set:
  Basis Set: 6-31G*
  Basis Set:
  @DF-RHF Final Energy:  -387.11798979070807
    Total Energy =                       -387.1179897907079521
  Basis Set: 6-31G*
  Basis Set:
  Basis Set: 6-31G*
  Basis Set:
  @DF-RHF Final Energy:  -387.11808738137938
    Total Energy =                       -387.1180873813785865
  Basis Set: 6-31G*
  Basis Set:
  Basis Set: 6-31G*
  Basis Set:
  @DF-RHF Final Energy:  -387.11810992159502
    Total Energy =                       -387.1181099215949644
  Basis Set: 6-31G*
  Basis Set:
  Basis Set: 6-31G*
  Basis Set:
  @DF-RHF Final Energy:  -387.11811979757510
    Total Energy =                       -387.1181197975747637
  Basis Set: 6-31G*
  Basis Set:
  Basis Set: 6-31G*
  Basis Set:
  @DF-RHF Final Energy:  -387.11812608977829
    Total Energy =                       -387.1181260897781158
  Basis Set: 6-31G*
  Basis Set:
  Charge       = 0
  Multiplicity = 1
  Basis Set: 6-31G*
  Basis Set:

    Orbital Energies (a.u.)
    -----------------------

    Doubly Occupied:

       1A    -20.562038     2A    -11.326222     3A    -11.235632
       4A    -11.234661     5A    -11.223741     6A    -11.219734
       7A    -11.218882     8A    -11.218306     9A    -11.210851
      10A     -1.401997    11A     -1.103518    12A     -1.069453
      13A     -1.012174    14A     -0.941539    15A     -0.878594
      16A     -0.821539    17A     -0.789267    18A     -0.780646
      19A     -0.665583    20A     -0.652618    21A     -0.631815
      22A     -0.625281    23A     -0.608569    24A     -0.593151
      25A     -0.575495    26A     -0.558797    27A     -0.529420
      28A     -0.522943    29A     -0.514301    30A     -0.496875
      31A     -0.489107    32A     -0.480454    33A     -0.464504
      34A     -0.450897    35A     -0.444531    36A     -0.409577

  @DF-RHF Final Energy:  -387.11812549335605

   => Energetics <=

    Nuclear Repulsion Energy =            442.7726947470184768
    One-Electron Energy =               -1401.8562189412546104
    Two-Electron Energy =                 571.9653987008805416
    DFT Exchange-Correlation Energy =       0.0000000000000000
    Empirical Dispersion Energy =           0.0000000000000000
    PCM Polarization Energy =               0.0000000000000000
    EFP Energy =                            0.0000000000000000
    Total Energy =                       -387.1181254933555920
    Molecular point group: c1
  Basis Set: 6-31G*
  Basis Set:

  -Total Gradient:
     Atom            X                  Y                   Z
    ------   -----------------  -----------------  -----------------
       1       -0.000028290592    -0.000003658425     0.000023104743
       2        0.000095435443     0.000085228086    -0.000118373336
       3       -0.000018333221    -0.000044150543     0.000035748030
       4       -0.000011991674    -0.000009287605     0.000017376487
       5       -0.000038364064     0.000122180648     0.000008430901
       6       -0.000029717453     0.000001761035     0.000046651244
       7        0.000002104852    -0.000050643104    -0.000027841904
       8       -0.001099447700     0.000972880779     0.002931974312
       9        0.000059898097     0.000028022629    -0.000022944569
      10       -0.000000899207    -0.000003732179     0.000050462371
      11       -0.000356756805    -0.001765578681     0.002051317387
      12        0.001012986163    -0.000513761519    -0.003006794291
      13       -0.000031099156    -0.000026643708     0.000004726323
      14        0.000435548568     0.001210748239    -0.002003985902
      15       -0.000028780808    -0.000033431805    -0.000008371046
      16       -0.000008019377     0.000000649602     0.000015219115
      17       -0.000009609471     0.000030771334     0.000019830857
      18       -0.000016365390     0.000030334251    -0.000004825199
      19        0.000012386082    -0.000004914658    -0.000018886191
      20        0.000036999427    -0.000017658647    -0.000004320172
      21        0.000002257671    -0.000012821033     0.000023679141
      22       -0.000012442176     0.000033373278     0.000000275577
      23       -0.000012680123     0.000009512157    -0.000008761700
      24        0.000038677125    -0.000027743456     0.000010821076
      25        0.000006503791    -0.000011436672    -0.000014513250

  **** Optimization is complete! (in 8 steps) ****
    Final optimized geometry and variables:
    Molecular point group: c1

    Geometry (in Angstrom), charge = 0, multiplicity = 1:

    H           -2.288420703426    -2.215821657352    -0.299842993671
    C           -2.803590237356    -1.276375428193    -0.536150007853
    C           -2.740777206783    -0.226136671315     0.543675697577
    O           -3.362393278984    -1.147419665887    -1.576790458659
    C           -1.305396130715     0.055913471776     1.008130357800
    H           -3.223574990149     0.671890335832     0.175661897697
    H           -3.323672143971    -0.597517174428     1.385580100202
    C           -0.432773398868     0.708609747537    -0.067033379780
    H           -1.345068469953     0.703148762135     1.879212280058
    H           -0.845019171151    -0.872507864411     1.342511041085
    C            1.023443650993     0.939316083348     0.381096965343
    H           -0.882429299226     1.647160051740    -0.379555297768
    H           -0.432606492617     0.087638596902    -0.961016549766
    C            1.976124264619    -0.170372210967    -0.076691299449
    H            1.369955318557     1.888549977337    -0.014887486626
    H            1.064803690430     1.032910756331     1.464749194692
    C            3.404928993498    -0.052925910302     0.465257059330
    H            2.003870759659    -0.184912583852    -1.164652130412
    H            1.571385278102    -1.134077397437     0.228135881421
    C            4.173221412949     1.174055835422    -0.029534730313
    H            3.954850337172    -0.946638389345     0.180870196314
    H            3.377463117019    -0.047502021496     1.553098481157
    H            4.200099936427     1.205896816010    -1.115448296545
    H            3.727660950200     2.100247877830     0.317875528747
    H            5.199163452744     1.154238934322     0.324852151246

  Mulliken Charges: (a.u.)
   Center  Symbol    Alpha    Beta     Spin     Total
       1     H     0.43265  0.43265  0.00000  0.13470
       2     C     2.83067  2.83067  0.00000  0.33866
       3     C     3.20851  3.20851  0.00000 -0.41702
       4     O     4.23789  4.23789  0.00000 -0.47577
       5     C     3.16737  3.16737  0.00000 -0.33473
       6     H     0.39967  0.39967  0.00000  0.20066
       7     H     0.40663  0.40663  0.00000  0.18675
       8     C     3.15882  3.15882  0.00000 -0.31763
       9     H     0.41229  0.41229  0.00000  0.17542
      10     H     0.41920  0.41920  0.00000  0.16160
      11     C     3.15752  3.15752  0.00000 -0.31504
      12     H     0.41539  0.41539  0.00000  0.16921
      13     H     0.41679  0.41679  0.00000  0.16642
      14     C     3.15431  3.15431  0.00000 -0.30861
      15     H     0.41629  0.41629  0.00000  0.16741
      16     H     0.42234  0.42234  0.00000  0.15531
      17     C     3.15284  3.15284  0.00000 -0.30567
      18     H     0.42131  0.42131  0.00000  0.15738
      19     H     0.42414  0.42414  0.00000  0.15173
      20     C     3.24162  3.24162  0.00000 -0.48324
      21     H     0.42026  0.42026  0.00000  0.15948
      22     H     0.42343  0.42343  0.00000  0.15315
      23     H     0.42143  0.42143  0.00000  0.15714
      24     H     0.42005  0.42005  0.00000  0.15990
      25     H     0.41860  0.41860  0.00000  0.16280

   Total alpha = 36.00000, Total beta = 36.00000, Total charge =  0.00000
