  ==> Input File <==

--------------------------------------------------------------------------
set {
	reference rhf
	basis 6-31G*
}

set_num_threads( 4 )
memory 2 gb

molecule MOL {
0 1

H	 0.353929	 1.265936	 -1.062898
O	 0.055946	 1.300438	 -0.164479
C	 0.004957	 -0.004114	 0.366649
C	 1.201664	 -0.828089	 -0.095740
C	 -1.317755	 -0.601827	 -0.081511
H	 0.013527	 0.048298	 1.454924
H	 1.216388	 -0.895289	 -1.178704
H	 2.135132	 -0.372895	 0.226467
H	 1.166770	 -1.832878	 0.313827
H	 -1.355732	 -0.658248	 -1.164429
H	 -2.141614	 0.017037	 0.254547
H	 -1.447303	 -1.600817	 0.322594

	symmetry c1
}
set optking {
	frozen_dihedral = ("
		1 2 3 4
	")
}

ee = optimize('scf')
oeprop('DIPOLE', 'QUADRUPOLE', 'MULLIKEN_CHARGES')
f=open( 'psi4out.xyz', 'w' )
f.write( "12  " )
f.write( str(ee) + "\n" )
f.write( MOL.save_string_xyz() )
f.close()
--------------------------------------------------------------------------

    Molecular point group: c1
  Charge       = 0
  Multiplicity = 1
  Basis Set: 6-31G*
  Basis Set:
  @DF-RHF Final Energy:  -193.11254668523932
    Total Energy =                       -193.1125466852394652
    Molecular point group: c1
  Basis Set: 6-31G*
  Basis Set:
  Basis Set: 6-31G*
  Basis Set:
  @DF-RHF Final Energy:  -193.11388106255760
    Total Energy =                       -193.1138810625574536
  Basis Set: 6-31G*
  Basis Set:
  Basis Set: 6-31G*
  Basis Set:
  @DF-RHF Final Energy:  -193.11425767812679
    Total Energy =                       -193.1142576781268190
  Basis Set: 6-31G*
  Basis Set:
  Basis Set: 6-31G*
  Basis Set:
  @DF-RHF Final Energy:  -193.11425997542739
    Total Energy =                       -193.1142599754273874
  Basis Set: 6-31G*
  Basis Set:
  Charge       = 0
  Multiplicity = 1
  Basis Set: 6-31G*
  Basis Set:

    Orbital Energies (a.u.)
    -----------------------

    Doubly Occupied:

       1A    -20.550374     2A    -11.275614     3A    -11.217175
       4A    -11.208864     5A     -1.359908     6A     -1.042021
       7A     -0.941673     8A     -0.817974     9A     -0.660901
      10A     -0.645836    11A     -0.603276    12A     -0.571249
      13A     -0.545729    14A     -0.515985    15A     -0.511233
      16A     -0.466011    17A     -0.429400

  @DF-RHF Final Energy:  -193.11426048638808

   => Energetics <=

    Nuclear Repulsion Energy =            135.3784923204709969
    One-Electron Energy =                -530.2590563900323559
    Two-Electron Energy =                 201.7663035831731406
    DFT Exchange-Correlation Energy =       0.0000000000000000
    Empirical Dispersion Energy =           0.0000000000000000
    PCM Polarization Energy =               0.0000000000000000
    EFP Energy =                            0.0000000000000000
    Total Energy =                       -193.1142604863882468
    Molecular point group: c1
  Basis Set: 6-31G*
  Basis Set:

  -Total Gradient:
     Atom            X                  Y                   Z
    ------   -----------------  -----------------  -----------------
       1        0.001714153147     0.000074482815     0.000665959840
       2       -0.002337858099    -0.000247741176    -0.001156744144
       3        0.001169425523     0.000413658342     0.001403344106
       4       -0.000550267126    -0.000255353994    -0.000924658585
       5       -0.000020938920     0.000052192629    -0.000017816671
       6        0.000016254918    -0.000019919726    -0.000009102060
       7       -0.000026802993     0.000017213564     0.000034662128
       8        0.000022269984    -0.000009164093    -0.000023548774
       9        0.000004677732    -0.000015212704     0.000009095291
      10        0.000007098372     0.000004890242     0.000018143926
      11       -0.000003587901    -0.000005309588    -0.000009462482
      12        0.000005575362    -0.000009736313     0.000010127427

  **** Optimization is complete! (in 5 steps) ****
    Final optimized geometry and variables:
    Molecular point group: c1

    Geometry (in Angstrom), charge = 0, multiplicity = 1:

    H            0.425787124065     1.329317146268    -0.997911980315
    O            0.093596007916     1.330429426515    -0.110743761528
    C            0.001201916362     0.004658415875     0.360778667563
    C            1.199486322452    -0.823616633202    -0.088508838686
    C           -1.323387989726    -0.618699896481    -0.065659018641
    H            0.016935999486     0.088710462388     1.441051778307
    H            1.212244769006    -0.925256325764    -1.172115822932
    H            2.126306237122    -0.351616432211     0.219925718317
    H            1.166502165926    -1.822237592506     0.334619259213
    H           -1.374093908333    -0.709738237470    -1.147888615494
    H           -2.149950019179     0.003288996868     0.258136211284
    H           -1.448204021032    -1.609399618387     0.361687790165

  Mulliken Charges: (a.u.)
   Center  Symbol    Alpha    Beta     Spin     Total
       1     H     0.28368  0.28368  0.00000  0.43264
       2     O     4.37345  4.37345  0.00000 -0.74690
       3     C     2.91390  2.91390  0.00000  0.17221
       4     C     3.25660  3.25660  0.00000 -0.51320
       5     C     3.24151  3.24151  0.00000 -0.48302
       6     H     0.41667  0.41667  0.00000  0.16666
       7     H     0.42605  0.42605  0.00000  0.14790
       8     H     0.41083  0.41083  0.00000  0.17835
       9     H     0.41674  0.41674  0.00000  0.16651
      10     H     0.42626  0.42626  0.00000  0.14748
      11     H     0.41066  0.41066  0.00000  0.17868
      12     H     0.42365  0.42365  0.00000  0.15270

   Total alpha = 17.00000, Total beta = 17.00000, Total charge = -0.00000
