  ==> Input File <==

--------------------------------------------------------------------------
set {
	reference rhf
	basis 6-31G*
}

set_num_threads( 4 )
memory 2 gb

molecule MOL {
0 1

O	 -1.487788	 1.240889	 -0.102860
C	 -1.083277	 0.139568	 0.115197
C	 0.323299	 -0.082943	 0.642902
C	 -1.933017	 -1.084621	 -0.143902
C	 1.355627	 -0.005344	 -0.493127
H	 0.396251	 -1.044647	 1.143147
H	 0.528637	 0.693580	 1.371677
C	 2.005604	 -1.357304	 -0.781191
H	 0.878885	 0.365719	 -1.397727
H	 2.115132	 0.719997	 -0.220781
H	 2.733661	 -1.275061	 -1.581728
H	 1.265984	 -2.094600	 -1.079825
H	 2.518857	 -1.738553	 0.096458
H	 -1.393885	 -1.806447	 -0.750509
H	 -2.850323	 -0.799888	 -0.640100
H	 -2.169004	 -1.571158	 0.798858

	symmetry c1
}
set optking {
	frozen_dihedral = ("
		9 5 3 2
	")
}

ee = optimize('scf')
oeprop('DIPOLE', 'QUADRUPOLE', 'MULLIKEN_CHARGES')
f=open( 'psi4out.xyz', 'w' )
f.write( "16  " )
f.write( str(ee) + "\n" )
f.write( MOL.save_string_xyz() )
f.close()
--------------------------------------------------------------------------

    Molecular point group: c1
  Charge       = 0
  Multiplicity = 1
  Basis Set: 6-31G*
  Basis Set:
  @DF-RHF Final Energy:  -270.02417224056876
    Total Energy =                       -270.0241722405687597
    Molecular point group: c1
  Basis Set: 6-31G*
  Basis Set:
  Basis Set: 6-31G*
  Basis Set:
  @DF-RHF Final Energy:  -270.02447796527281
    Total Energy =                       -270.0244779652725811
  Basis Set: 6-31G*
  Basis Set:
  Basis Set: 6-31G*
  Basis Set:
  @DF-RHF Final Energy:  -270.02344838596258
    Total Energy =                       -270.0234483859624106
  Basis Set: 6-31G*
  Basis Set:
  Basis Set: 6-31G*
  Basis Set:
  @DF-RHF Final Energy:  -270.02459813292751
    Total Energy =                       -270.0245981329273945
  Basis Set: 6-31G*
  Basis Set:
  @DF-RHF Final Energy:  -270.02467207368443
    Total Energy =                       -270.0246720736844281
  @DF-RHF Final Energy:  -270.02476682748932
    Total Energy =                       -270.0247668274893726
  @DF-RHF Final Energy:  -270.02483858233762
    Total Energy =                       -270.0248385823376793
  Basis Set: 6-31G*
  Basis Set:
  @DF-RHF Final Energy:  -270.02489530967273
    Total Energy =                       -270.0248953096727860
  Basis Set: 6-31G*
  Basis Set:
  Basis Set: 6-31G*
  Basis Set:
  @DF-RHF Final Energy:  -270.02491346806789
    Total Energy =                       -270.0249134680677230
  Basis Set: 6-31G*
  Basis Set:
  Basis Set: 6-31G*
  Basis Set:
  @DF-RHF Final Energy:  -270.02491651703679
    Total Energy =                       -270.0249165170368997
  Basis Set: 6-31G*
  Basis Set:
  Charge       = 0
  Multiplicity = 1
  Basis Set: 6-31G*
  Basis Set:

    Orbital Energies (a.u.)
    -----------------------

    Doubly Occupied:

       1A    -20.548202     2A    -11.324677     3A    -11.236369
       4A    -11.229867     5A    -11.228188     6A    -11.223106
       7A     -1.393599     8A     -1.082545     9A     -1.010235
      10A     -0.952907    11A     -0.834208    12A     -0.734969
      13A     -0.656984    14A     -0.648859    15A     -0.613932
      16A     -0.595626    17A     -0.588977    18A     -0.560084
      19A     -0.544387    20A     -0.514979    21A     -0.500780
      22A     -0.484325    23A     -0.473971    24A     -0.398275

  @DF-RHF Final Energy:  -270.02491706594003

   => Energetics <=

    Nuclear Repulsion Energy =            238.8627904843058332
    One-Electron Energy =                -839.0153183437464577
    Two-Electron Energy =                 330.1276107935004802
    DFT Exchange-Correlation Energy =       0.0000000000000000
    Empirical Dispersion Energy =           0.0000000000000000
    PCM Polarization Energy =               0.0000000000000000
    EFP Energy =                            0.0000000000000000
    Total Energy =                       -270.0249170659401443
    Molecular point group: c1
  Basis Set: 6-31G*
  Basis Set:

  -Total Gradient:
     Atom            X                  Y                   Z
    ------   -----------------  -----------------  -----------------
       1       -0.000007569755     0.000006112494    -0.000028757974
       2        0.000067948041     0.000584665463    -0.000001526987
       3       -0.000139250113    -0.000951200573     0.000025476215
       4       -0.000003955461    -0.000013033856     0.000043352353
       5        0.000256665827     0.001111335766     0.000099593927
       6        0.000019695647    -0.000004546772    -0.000018793844
       7       -0.000018255764    -0.000005472203    -0.000001402885
       8        0.000000242706    -0.000002726942    -0.000008221343
       9       -0.000190778034    -0.000740248444    -0.000098063776
      10       -0.000003850145     0.000006531639     0.000013477734
      11        0.000006413725    -0.000006039439    -0.000004169330
      12        0.000005099583    -0.000002065765     0.000002700241
      13       -0.000006409788     0.000003406259    -0.000003340217
      14       -0.000005040367     0.000012458861    -0.000009286530
      15        0.000010027391     0.000003569933     0.000001234119
      16        0.000009016509    -0.000002746422    -0.000012271705

  **** Optimization is complete! (in 11 steps) ****
    Final optimized geometry and variables:
    Molecular point group: c1

    Geometry (in Angstrom), charge = 0, multiplicity = 1:

    O           -1.509816552398     1.422570534358     0.422357644430
    C           -0.944798864641     0.377410719645     0.313251952183
    C            0.507765065614     0.218719121904     0.724114642737
    C           -1.647289735562    -0.841770988400    -0.247546423797
    C            1.464413814101     0.132280931262    -0.495750031569
    H            0.611981022172    -0.671679791596     1.338638674736
    H            0.751892921379     1.074358704176     1.339732828145
    C            2.130051358650    -1.234514436273    -0.659018582394
    H            0.928311908262     0.378326980858    -1.408500514035
    H            2.232086771724     0.890516186624    -0.391277511291
    H            2.786259117355    -1.246646357413    -1.523413304001
    H            1.395414829709    -2.023737605735    -0.790677484339
    H            2.726085721171    -1.482784608601     0.214141126982
    H           -1.090598690489    -1.268171385514    -1.076026912595
    H           -2.639704665696    -0.570214141748    -0.579380545451
    H           -1.720842375863    -1.608282128515     0.519019914622

  Mulliken Charges: (a.u.)
   Center  Symbol    Alpha    Beta     Spin     Total
       1     O     4.25971  4.25971  0.00000 -0.51943
       2     C     2.73960  2.73960  0.00000  0.52080
       3     C     3.20452  3.20452  0.00000 -0.40903
       4     C     3.28988  3.28988  0.00000 -0.57976
       5     C     3.16411  3.16411  0.00000 -0.32822
       6     H     0.41254  0.41254  0.00000  0.17492
       7     H     0.39713  0.39713  0.00000  0.20575
       8     C     3.24191  3.24191  0.00000 -0.48382
       9     H     0.41366  0.41366  0.00000  0.17268
      10     H     0.40898  0.40898  0.00000  0.18205
      11     H     0.41575  0.41575  0.00000  0.16851
      12     H     0.42134  0.42134  0.00000  0.15731
      13     H     0.41804  0.41804  0.00000  0.16392
      14     H     0.40842  0.40842  0.00000  0.18317
      15     H     0.39648  0.39648  0.00000  0.20704
      16     H     0.40794  0.40794  0.00000  0.18413

   Total alpha = 24.00000, Total beta = 24.00000, Total charge = -0.00000
