                              Psi4 1.0.54 Driver

  ==> Input File <==

--------------------------------------------------------------------------
set {
	reference rhf
	basis cc-pvtz
}

set_num_threads( 4 )
memory 2 gb

molecule MOL {
0 1

O	 3.219313	 0.959291	 -0.614106
C	 2.698710	 0.058177	 -0.050237
C	 1.246364	 -0.005813	 0.348416
O	 3.344101	 -1.038700	 0.312317
C	 0.453207	 1.232821	 -0.049003
H	 0.839270	 -0.907818	 -0.092281
H	 1.216683	 -0.160521	 1.422434
C	 -0.998367	 1.217982	 0.432195
H	 0.481498	 1.345443	 -1.127236
H	 0.951413	 2.105557	 0.354893
C	 -1.882951	 0.151251	 -0.211235
H	 -1.429490	 2.193659	 0.228843
H	 -1.019755	 1.099323	 1.513279
C	 -3.342450	 0.243269	 0.226009
H	 -1.826223	 0.246578	 -1.293162
H	 -1.508033	 -0.839650	 0.027695
C	 -4.234517	 -0.821434	 -0.405970
H	 -3.730149	 1.228245	 -0.022691
H	 -3.398860	 0.159952	 1.308941
C	 -5.053988	 -1.601480	 0.616660
H	 -4.904582	 -0.350206	 -1.119888
H	 -3.619800	 -1.512397	 -0.976539
H	 -5.675150	 -2.348260	 0.135556
H	 -5.706037	 -0.942510	 1.180309
H	 -4.411088	 -2.113015	 1.325335
C	 4.720529	 -1.114346	 0.001449
H	 4.874321	 -1.055557	 -1.065852
H	 5.057824	 -2.067950	 0.373977
H	 5.264321	 -0.313596	 0.480350

	symmetry c1
}
set optking {
	frozen_dihedral = ("
		21 17 14 11
	")
}

ee,wfn = optimize('scf', return_wfn=True)
oeprop( wfn, 'DIPOLE', 'QUADRUPOLE', 'MULLIKEN_CHARGES')
f=open( 'psi4out.xyz', 'w' )
f.write( "29  " )
f.write( str(ee) + "\n" )
f.write( MOL.save_string_xyz() )
f.close()
--------------------------------------------------------------------------

    Molecular point group: c1
  Charge       = 0
  Multiplicity = 1
  Basis Set: CC-PVTZ
  Basis Set:
  @DF-RHF Final Energy:  -501.21934571489351
    Total Energy =                       -501.2193457148932794
    Molecular point group: c1
  Basis Set: CC-PVTZ
  Basis Set:
  Basis Set: CC-PVTZ
  Basis Set:
  @DF-RHF Final Energy:  -501.21958782531954
    Total Energy =                       -501.2195878253197634
  Basis Set: CC-PVTZ
  Basis Set:
  Basis Set: CC-PVTZ
  Basis Set:
  @DF-RHF Final Energy:  -501.21964383091495
    Total Energy =                       -501.2196438309150608
  Basis Set: CC-PVTZ
  Basis Set:
  Basis Set: CC-PVTZ
  Basis Set:
  @DF-RHF Final Energy:  -501.21942430779723
    Total Energy =                       -501.2194243077969986
  Basis Set: CC-PVTZ
  Basis Set:
  Basis Set: CC-PVTZ
  Basis Set:
  @DF-RHF Final Energy:  -501.21965301975160
    Total Energy =                       -501.2196530197506945
  Basis Set: CC-PVTZ
  Basis Set:
  Charge       = 0
  Multiplicity = 1
  Basis Set: CC-PVTZ
  Basis Set:

    Orbital Energies (a.u.)
    -----------------------

    Doubly Occupied:

       1A    -20.596051     2A    -20.533897     3A    -11.364309
       4A    -11.278292     5A    -11.233012     6A    -11.217109
       7A    -11.215394     8A    -11.214196     9A    -11.213717
      10A    -11.212104    11A    -11.207657    12A     -1.471924
      13A     -1.365535    14A     -1.098737    15A     -1.066356
      16A     -1.020188    17A     -0.978115    18A     -0.928863
      19A     -0.862702    20A     -0.800946    21A     -0.790555
      22A     -0.765830    23A     -0.703020    24A     -0.685543
      25A     -0.676013    26A     -0.647760    27A     -0.626042
      28A     -0.609642    29A     -0.596740    30A     -0.585472
      31A     -0.564464    32A     -0.552601    33A     -0.533522
      34A     -0.531292    35A     -0.518440    36A     -0.506397
      37A     -0.502463    38A     -0.476612    39A     -0.472027
      40A     -0.462228    41A     -0.458905    42A     -0.455561
      43A     -0.443208    44A     -0.436622

  @DF-RHF Final Energy:  -501.21965321729783

   => Energetics <=

    Nuclear Repulsion Energy =            612.6085067509690134
    One-Electron Energy =               -1896.6961901444124123
    Two-Electron Energy =                 782.8680301761455667
    DFT Exchange-Correlation Energy =       0.0000000000000000
    Empirical Dispersion Energy =           0.0000000000000000
    PCM Polarization Energy =               0.0000000000000000
    EFP Energy =                            0.0000000000000000
    Total Energy =                       -501.2196532172979460
    Molecular point group: c1
  Basis Set: CC-PVTZ
  Basis Set:

  -Total Gradient:
     Atom            X                  Y                   Z
    ------   -----------------  -----------------  -----------------
       1       -0.000023588576     0.000058109196    -0.000008971856
       2        0.000011969196    -0.000021487609    -0.000025596731
       3        0.000026479149    -0.000004745107     0.000007249351
       4       -0.000013289466    -0.000044620965     0.000034836811
       5        0.000004506061     0.000012101345    -0.000018271333
       6        0.000023678049     0.000008628484     0.000002660427
       7        0.000003569112     0.000000026553     0.000002449215
       8       -0.000010761529    -0.000003527528    -0.000004785802
       9        0.000004943016    -0.000001869238    -0.000003734870
      10        0.000007793375     0.000000536601    -0.000006118939
      11        0.000270149368    -0.000903089292     0.001131739284
      12       -0.000000417800     0.000004067789     0.000012019754
      13        0.000001964912    -0.000010437394    -0.000002347456
      14       -0.000694904734     0.001300773186    -0.001215591091
      15        0.000010156038    -0.000005582168    -0.000002083310
      16       -0.000026206417     0.000004477079     0.000003045932
      17        0.001744236667    -0.000666969797    -0.001331929929
      18       -0.000002757765    -0.000000999797    -0.000004583572
      19        0.000000068103    -0.000005773617     0.000006080245
      20        0.000010438265     0.000010873167    -0.000018411410
      21       -0.001347447166     0.000263027030     0.001435438104
      22        0.000009712606     0.000001092511     0.000002006896
      23       -0.000004650462    -0.000003371643    -0.000003481567
      24       -0.000000548080     0.000000723540     0.000004150419
      25        0.000004338840    -0.000001678163     0.000006373909
      26       -0.000004206752     0.000018143311    -0.000008990980
      27        0.000002991111    -0.000002176080     0.000002548130
      28       -0.000010852549    -0.000002830754     0.000004586939
      29        0.000002637429    -0.000003420639    -0.000000286573

  **** Optimization is complete! (in 6 steps) ****
    Final optimized geometry and variables:
    Molecular point group: c1

    Geometry (in Angstrom), charge = 0, multiplicity = 1:

    O            3.160562331735     1.049844146665    -0.669456902084
    C            2.643128547549     0.151961914934    -0.097552800295
    C            1.190336992047     0.085161709230     0.299051312584
    O            3.292865930436    -0.938324989388     0.276995817680
    C            0.392358667569     1.316462649292    -0.111410708486
    H            0.788211560734    -0.822787837240    -0.133975649445
    H            1.159311990413    -0.059679549053     1.374400991993
    C           -1.060175616126     1.299660443700     0.367214914691
    H            0.422234017622     1.419230042808    -1.190576340655
    H            0.885971968098     2.195096865028     0.285279051382
    C           -1.939948367287     0.226401534144    -0.270696683349
    H           -1.494275753742     2.272575574624     0.156920769624
    H           -1.083342633078     1.187959298561     1.449091304385
    C           -3.400841262826     0.312442862368     0.167027146513
    H           -1.882638073530     0.314902557861    -1.353438719874
    H           -1.564089069191    -0.762793643192    -0.025906784071
    C           -4.304206753113    -0.759056248234    -0.475681713930
    H           -3.784105956954     1.302774251673    -0.057045726757
    H           -3.440699067151     0.216325409295     1.248508456914
    C           -5.139609673781    -1.535030087319     0.539445764709
    H           -4.977682564175    -0.291699310061    -1.186113633632
    H           -3.698737530292    -1.458879473327    -1.042274044791
    H           -5.770464903893    -2.269499678629     0.051403060199
    H           -5.783083527429    -0.869487703209     1.105397334215
    H           -4.505818058358    -2.059372395644     1.247277975265
    C            4.670196626985    -1.010731942690    -0.030664313412
    H            4.825692181219    -0.961759272720    -1.098214109805
    H            5.011138447301    -1.959084437573     0.351842734595
    H            5.209492188000    -0.202853352785     0.441302928741

  Mulliken Charges: (a.u.)
   Center  Symbol    Alpha    Beta     Spin     Total
       1     O     4.19696  4.19696  0.00000 -0.39392
       2     C     2.80480  2.80480  0.00000  0.39040
       3     C     3.10165  3.10165  0.00000 -0.20331
       4     O     4.14722  4.14722  0.00000 -0.29443
       5     C     3.09249  3.09249  0.00000 -0.18498
       6     H     0.43916  0.43916  0.00000  0.12168
       7     H     0.43996  0.43996  0.00000  0.12008
       8     C     3.10462  3.10462  0.00000 -0.20924
       9     H     0.44623  0.44623  0.00000  0.10753
      10     H     0.43962  0.43962  0.00000  0.12077
      11     C     3.09370  3.09370  0.00000 -0.18741
      12     H     0.44531  0.44531  0.00000  0.10937
      13     H     0.45336  0.45336  0.00000  0.09329
      14     C     3.09280  3.09280  0.00000 -0.18561
      15     H     0.45173  0.45173  0.00000  0.09654
      16     H     0.45350  0.45350  0.00000  0.09301
      17     C     3.08823  3.08823  0.00000 -0.17646
      18     H     0.44951  0.44951  0.00000  0.10098
      19     H     0.45482  0.45482  0.00000  0.09036
      20     C     3.14739  3.14739  0.00000 -0.29478
      21     H     0.45050  0.45050  0.00000  0.09899
      22     H     0.45430  0.45430  0.00000  0.09141
      23     H     0.44963  0.44963  0.00000  0.10075
      24     H     0.45433  0.45433  0.00000  0.09133
      25     H     0.45621  0.45621  0.00000  0.08758
      26     C     3.03812  3.03812  0.00000 -0.07624
      27     H     0.45435  0.45435  0.00000  0.09131
      28     H     0.44528  0.44528  0.00000  0.10945
      29     H     0.45423  0.45423  0.00000  0.09155

   Total alpha = 44.00000, Total beta = 44.00000, Total charge =  0.00000

*** Psi4 exiting successfully. Buy a developer a beer!
