  ==> Input File <==

--------------------------------------------------------------------------
set {
	reference rhf
	basis 6-31G*
}

set_num_threads( 4 )
memory 2 gb

molecule MOL {
0 1

H	 -0.808425	 -2.469168	 0.515093
N	 -0.056027	 -1.819430	 0.391736
C	 -0.563778	 -0.502042	 0.037919
H	 0.522236	 -2.181884	 -0.342427
C	 0.575259	 0.508231	 -0.048326
H	 -1.255979	 -0.194666	 0.816105
H	 -1.124586	 -0.494861	 -0.900264
C	 1.954651	 -0.143624	 0.035137
H	 0.475158	 1.060484	 -0.977307
H	 0.469181	 1.234488	 0.755973
H	 2.103292	 -0.853109	 -0.774172
H	 2.742821	 0.599562	 -0.030094
H	 2.083613	 -0.679371	 0.971560

	symmetry c1
}
set optking {
	frozen_dihedral = ("
		6 3 5 9
	")
}

ee = optimize('scf')
oeprop('DIPOLE', 'QUADRUPOLE', 'MULLIKEN_CHARGES')
f=open( 'psi4out.xyz', 'w' )
f.write( "13  " )
f.write( str(ee) + "\n" )
f.write( MOL.save_string_xyz() )
f.close()
--------------------------------------------------------------------------

    Molecular point group: c1
  Charge       = 0
  Multiplicity = 1
  Basis Set: 6-31G*
  Basis Set:
  @DF-RHF Final Energy:  -173.27059652503874
    Total Energy =                       -173.2705965250386839
    Molecular point group: c1
  Basis Set: 6-31G*
  Basis Set:
  Basis Set: 6-31G*
  Basis Set:
  @DF-RHF Final Energy:  -173.27077076356389
    Total Energy =                       -173.2707707635639451
  Basis Set: 6-31G*
  Basis Set:
  Basis Set: 6-31G*
  Basis Set:
  @DF-RHF Final Energy:  -173.27319826653365
    Total Energy =                       -173.2731982665336261
  Basis Set: 6-31G*
  Basis Set:
  Basis Set: 6-31G*
  Basis Set:
  @DF-RHF Final Energy:  -173.27339166909175
    Total Energy =                       -173.2733916690918363
  Basis Set: 6-31G*
  Basis Set:
  Basis Set: 6-31G*
  Basis Set:
  @DF-RHF Final Energy:  -173.27339328359591
    Total Energy =                       -173.2733932835958512
  Basis Set: 6-31G*
  Basis Set:
  Basis Set: 6-31G*
  Basis Set:
  @DF-RHF Final Energy:  -173.27340832512726
    Total Energy =                       -173.2734083251272068
  Basis Set: 6-31G*
  Basis Set:
  Charge       = 0
  Multiplicity = 1
  Basis Set: 6-31G*
  Basis Set:

    Orbital Energies (a.u.)
    -----------------------

    Doubly Occupied:

       1A    -15.532404     2A    -11.241094     3A    -11.212165
       4A    -11.201780     5A     -1.175413     6A     -1.024570
       7A     -0.905765     8A     -0.784815     9A     -0.668246
      10A     -0.634473    11A     -0.584914    12A     -0.559150
      13A     -0.538289    14A     -0.485443    15A     -0.475649
      16A     -0.461357    17A     -0.378106

  @DF-RHF Final Energy:  -173.27341030181489

   => Energetics <=

    Nuclear Repulsion Energy =            133.8724948890398707
    One-Electron Energy =                -498.5645510935121365
    Two-Electron Energy =                 191.4186459026573743
    DFT Exchange-Correlation Energy =       0.0000000000000000
    Empirical Dispersion Energy =           0.0000000000000000
    PCM Polarization Energy =               0.0000000000000000
    EFP Energy =                            0.0000000000000000
    Total Energy =                       -173.2734103018148630
    Molecular point group: c1
  Basis Set: 6-31G*
  Basis Set:

  -Total Gradient:
     Atom            X                  Y                   Z
    ------   -----------------  -----------------  -----------------
       1       -0.000001698923     0.000022988273    -0.000004922852
       2        0.000002744713     0.000034147269    -0.000012468557
       3       -0.001349176534     0.001326701095    -0.002502867822
       4        0.000003515530     0.000004478310    -0.000002695888
       5       -0.001571003396     0.001890296345     0.001931294549
       6        0.001374822077    -0.001446452234     0.001830033059
       7        0.000004381213    -0.000004054189    -0.000000351465
       8       -0.000004154971     0.000011312628     0.000005555642
       9        0.001540965434    -0.001829040536    -0.001244498080
      10        0.000000378640    -0.000006599728    -0.000000858956
      11       -0.000004436328    -0.000001255548    -0.000001318095
      12        0.000002774491    -0.000001235720    -0.000001570416
      13        0.000000888053    -0.000001285966     0.000004668881

  **** Optimization is complete! (in 7 steps) ****
    Final optimized geometry and variables:
    Molecular point group: c1

    Geometry (in Angstrom), charge = 0, multiplicity = 1:

    H           -1.396194868624    -1.917691619764     0.474018167390
    N           -0.600207884490    -1.335611989608     0.298427160293
    C           -1.037174650733     0.006084771689    -0.072449480437
    H           -0.088025635529    -1.767416334361    -0.446053695104
    C            0.123333944824     1.033127944234    -0.135493280199
    H           -1.735303901036     0.313827341162     0.697593132169
    H           -1.582717553406     0.018676262573    -1.016510097734
    C            1.534803298169     0.443890199838    -0.068742823579
    H            0.041421036000     1.595181955779    -1.061682612163
    H            0.013141254180     1.749853636099     0.672110404705
    H            1.732532228281    -0.225992944912    -0.901273739798
    H            2.269286716287     1.242228464133    -0.117451086594
    H            1.691664099736    -0.110258292762     0.847245882937

  Mulliken Charges: (a.u.)
   Center  Symbol    Alpha    Beta     Spin     Total
       1     H     0.33191  0.33191  0.00000  0.33618
       2     N     3.92326  3.92326  0.00000 -0.84653
       3     C     3.06350  3.06350  0.00000 -0.12700
       4     H     0.33383  0.33383  0.00000  0.33234
       5     C     3.15986  3.15986  0.00000 -0.31972
       6     H     0.41863  0.41863  0.00000  0.16274
       7     H     0.43153  0.43153  0.00000  0.13695
       8     C     3.23829  3.23829  0.00000 -0.47659
       9     H     0.42296  0.42296  0.00000  0.15408
      10     H     0.41866  0.41866  0.00000  0.16268
      11     H     0.42926  0.42926  0.00000  0.14148
      12     H     0.42241  0.42241  0.00000  0.15517
      13     H     0.40590  0.40590  0.00000  0.18821

   Total alpha = 17.00000, Total beta = 17.00000, Total charge = -0.00000
