                              Psi4 1.0.54 Driver

  ==> Input File <==

--------------------------------------------------------------------------
set {
	reference rhf
	basis cc-pvtz
}

set_num_threads( 4 )
memory 2 gb

molecule MOL {
0 1

H	 0.893146	 1.454680	 -0.560638
O	 0.057669	 1.301365	 -0.158528
C	 0.004145	 -0.005141	 0.363049
C	 1.199168	 -0.827145	 -0.096690
C	 -1.316386	 -0.602081	 -0.083515
H	 0.012026	 0.043363	 1.450619
H	 1.216685	 -0.896776	 -1.178167
H	 2.129940	 -0.372354	 0.228035
H	 1.160783	 -1.829622	 0.314294
H	 -1.357882	 -0.655920	 -1.165207
H	 -2.140147	 0.011735	 0.257253
H	 -1.440790	 -1.601175	 0.317669

	symmetry c1
}
set optking {
	frozen_dihedral = ("
		1 2 3 4
	")
}

ee,wfn = optimize('scf', return_wfn=True)
oeprop( wfn, 'DIPOLE', 'QUADRUPOLE', 'MULLIKEN_CHARGES')
f=open( 'psi4out.xyz', 'w' )
f.write( "12  " )
f.write( str(ee) + "\n" )
f.write( MOL.save_string_xyz() )
f.close()
--------------------------------------------------------------------------

    Molecular point group: c1
  Charge       = 0
  Multiplicity = 1
  Basis Set: CC-PVTZ
  Basis Set:
  @DF-RHF Final Energy:  -193.19383024817660
    Total Energy =                       -193.1938302481763401
    Molecular point group: c1
  Basis Set: CC-PVTZ
  Basis Set:
  Basis Set: CC-PVTZ
  Basis Set:
  @DF-RHF Final Energy:  -193.19063287648547
    Total Energy =                       -193.1906328764854379
  Basis Set: CC-PVTZ
  Basis Set:
  Basis Set: CC-PVTZ
  Basis Set:
  @DF-RHF Final Energy:  -193.19409944110259
    Total Energy =                       -193.1940994411025372
  Basis Set: CC-PVTZ
  Basis Set:
  Basis Set: CC-PVTZ
  Basis Set:
  @DF-RHF Final Energy:  -193.19414769336413
    Total Energy =                       -193.1941476933639876
  Basis Set: CC-PVTZ
  Basis Set:
  Charge       = 0
  Multiplicity = 1
  Basis Set: CC-PVTZ
  Basis Set:

    Orbital Energies (a.u.)
    -----------------------

    Doubly Occupied:

       1A    -20.542262     2A    -11.274020     3A    -11.217759
       4A    -11.204908     5A     -1.362939     6A     -1.044211
       7A     -0.944003     8A     -0.811629     9A     -0.678230
      10A     -0.646542    11A     -0.608718    12A     -0.551126
      13A     -0.544328    14A     -0.521428    15A     -0.515439
      16A     -0.469311    17A     -0.430783

  @DF-RHF Final Energy:  -193.19414831527286

   => Energetics <=

    Nuclear Repulsion Energy =            135.6918696163252775
    One-Electron Energy =                -531.0367705061345305
    Two-Electron Energy =                 202.1507525745365115
    DFT Exchange-Correlation Energy =       0.0000000000000000
    Empirical Dispersion Energy =           0.0000000000000000
    PCM Polarization Energy =               0.0000000000000000
    EFP Energy =                            0.0000000000000000
    Total Energy =                       -193.1941483152727415
    Molecular point group: c1
  Basis Set: CC-PVTZ
  Basis Set:

  -Total Gradient:
     Atom            X                  Y                   Z
    ------   -----------------  -----------------  -----------------
       1       -0.000409700664    -0.000631811067    -0.000994629775
       2        0.000639984133     0.000863269824     0.001454234489
       3       -0.000637800237    -0.000688962521    -0.000959315921
       4        0.000440887333     0.000411433578     0.000564662571
       5       -0.000043550416     0.000059361269    -0.000052827489
       6        0.000022126962     0.000004183709     0.000016362880
       7       -0.000020813208    -0.000000332004    -0.000000813223
       8        0.000044866013     0.000003782678    -0.000024103717
       9       -0.000011854454    -0.000015513556     0.000020846808
      10       -0.000014349015    -0.000015419057    -0.000028430698
      11       -0.000033267283     0.000001379999    -0.000005411405
      12        0.000023470836     0.000008627151     0.000009425481

  **** Optimization is complete! (in 5 steps) ****
    Final optimized geometry and variables:
    Molecular point group: c1

    Geometry (in Angstrom), charge = 0, multiplicity = 1:

    H            0.827036241207     1.395017404012    -0.816135779499
    O            0.006293614100     1.270043340424    -0.378862822146
    C            0.009007719980     0.065492650695     0.354867732906
    C            1.228226616813    -0.781779800810     0.028056741863
    C           -1.296838823259    -0.658993586022     0.082191523202
    H            0.047101628249     0.322548694691     1.410478622423
    H            1.231805221869    -1.061578398621    -1.020850439083
    H            2.143553146282    -0.239315012451     0.242662329222
    H            1.235727030704    -1.689442446661     0.619164210504
    H           -1.356476493310    -0.957646399302    -0.958442772611
    H           -2.134662744873    -0.007174727932     0.294609851608
    H           -1.384267843938    -1.543686456822     0.703285392986

  Mulliken Charges: (a.u.)
   Center  Symbol    Alpha    Beta     Spin     Total
       1     H     0.39175  0.39175  0.00000  0.21650
       2     O     4.21032  4.21032  0.00000 -0.42063
       3     C     2.91927  2.91927  0.00000  0.16146
       4     C     3.15867  3.15867  0.00000 -0.31735
       5     C     3.13722  3.13722  0.00000 -0.27443
       6     H     0.46384  0.46384  0.00000  0.07232
       7     H     0.45227  0.45227  0.00000  0.09545
       8     H     0.45121  0.45121  0.00000  0.09758
       9     H     0.45136  0.45136  0.00000  0.09727
      10     H     0.45767  0.45767  0.00000  0.08465
      11     H     0.44638  0.44638  0.00000  0.10724
      12     H     0.46003  0.46003  0.00000  0.07994

   Total alpha = 17.00000, Total beta = 17.00000, Total charge = -0.00000

*** Psi4 exiting successfully. Buy a developer a beer!
