  ==> Input File <==

--------------------------------------------------------------------------
set {
	reference rhf
	basis cc-pvtz
}

set_num_threads( 4 )
memory 2 gb

molecule MOL {
0 1

H	 -3.034039	 -0.667848	 0.004703
O	 -2.240597	 -1.171748	 0.000934
C	 -1.159675	 -0.364500	 0.000370
C	 -1.102183	 0.795019	 -0.745703
C	 -0.083913	 -0.743597	 0.788454
H	 -1.934190	 1.089753	 -1.358855
C	 0.043732	 1.569995	 -0.695523
H	 -0.159882	 -1.651784	 1.354458
C	 1.057074	 0.031617	 0.839146
H	 0.093372	 2.471263	 -1.276921
C	 1.115516	 1.199193	 0.084600
C	 2.217819	 -0.368247	 1.714603
H	 1.997765	 1.810298	 0.110074
H	 3.159583	 -0.232754	 1.197356
H	 2.144337	 -1.403775	 2.017963
H	 2.246823	 0.240390	 2.612023

	symmetry c1
}
set optking {
	frozen_dihedral = ("
		5 3 2 1
	")
}

ee = optimize('scf')
oeprop('DIPOLE', 'QUADRUPOLE', 'MULLIKEN_CHARGES')
f=open( 'psi4out.xyz', 'w' )
f.write( "16  " )
f.write( str(ee) + "\n" )
f.write( MOL.save_string_xyz() )
f.close()
--------------------------------------------------------------------------

    Molecular point group: c1
  Charge       = 0
  Multiplicity = 1
  Basis Set: CC-PVTZ
  Basis Set:
  @DF-RHF Final Energy:  -344.71860877456953
    Total Energy =                       -344.7186087745695886
    Molecular point group: c1
  Basis Set: CC-PVTZ
  Basis Set:
  Basis Set: CC-PVTZ
  Basis Set:
  @DF-RHF Final Energy:  -344.71871978975037
    Total Energy =                       -344.7187197897503665
  Basis Set: CC-PVTZ
  Basis Set:
  Basis Set: CC-PVTZ
  Basis Set:
  @DF-RHF Final Energy:  -344.71873669051513
    Total Energy =                       -344.7187366905151293
  Basis Set: CC-PVTZ
  Basis Set:
  Charge       = 0
  Multiplicity = 1
  Basis Set: CC-PVTZ
  Basis Set:

    Orbital Energies (a.u.)
    -----------------------

    Doubly Occupied:

       1A    -20.576790     2A    -11.291481     3A    -11.240395
       4A    -11.232297     5A    -11.219878     6A    -11.219492
       7A    -11.215439     8A    -11.215387     9A     -1.405829
      10A     -1.154486    11A     -1.046429    12A     -1.008222
      13A     -0.938705    14A     -0.827478    15A     -0.822368
      16A     -0.718050    17A     -0.682640    18A     -0.658100
      19A     -0.619113    20A     -0.594489    21A     -0.576717
      22A     -0.570812    23A     -0.556959    24A     -0.526589
      25A     -0.507059    26A     -0.485171    27A     -0.470948
      28A     -0.333310    29A     -0.315451

  @DF-RHF Final Energy:  -344.71873852192533

   => Energetics <=

    Nuclear Repulsion Energy =            346.1627887095675646
    One-Electron Energy =               -1153.7028831228649324
    Two-Electron Energy =                 462.8213558913716383
    DFT Exchange-Correlation Energy =       0.0000000000000000
    Empirical Dispersion Energy =           0.0000000000000000
    PCM Polarization Energy =               0.0000000000000000
    EFP Energy =                            0.0000000000000000
    Total Energy =                       -344.7187385219256726
    Molecular point group: c1
  Basis Set: CC-PVTZ
  Basis Set:

  -Total Gradient:
     Atom            X                  Y                   Z
    ------   -----------------  -----------------  -----------------
       1        0.000049141167     0.000014209649     0.002840429824
       2       -0.000429182411     0.000375389884    -0.002761916758
       3        0.001207818087    -0.001267788420    -0.001668088886
       4       -0.000066057544    -0.000185256947     0.000033178821
       5       -0.000667458934     0.001100613325     0.001559239086
       6        0.000007969479     0.000004133337    -0.000000610163
       7        0.000224945327     0.000072170062     0.000043124780
       8       -0.000024001234    -0.000030410110     0.000039421252
       9       -0.000059628693    -0.000292932778    -0.000000922743
      10       -0.000025144840     0.000007058894     0.000012188517
      11       -0.000176851511     0.000165392516    -0.000108088853
      12       -0.000039393362     0.000035189173     0.000026398232
      13        0.000012937919    -0.000003092596    -0.000003279317
      14       -0.000022493191     0.000004156514    -0.000016344149
      15       -0.000005567276     0.000000468771    -0.000005260254
      16        0.000012967020     0.000000698724     0.000010530607

  **** Optimization is complete! (in 4 steps) ****
    Final optimized geometry and variables:
    Molecular point group: c1

    Geometry (in Angstrom), charge = 0, multiplicity = 1:

    H           -2.979954568748    -0.744088741867    -0.277092486131
    O           -2.188788996650    -1.251968197390    -0.277135909063
    C           -1.100060819995    -0.441072899164    -0.259122450295
    C           -1.044787607137     0.717640975024    -1.006219516293
    C           -0.028024197365    -0.816818030208     0.531505017313
    H           -1.874368831738     0.999611886513    -1.627191790138
    C            0.098157324492     1.495501412883    -0.954501032401
    H           -0.107458070309    -1.720796765708     1.103920082641
    C            1.119061921355    -0.046819280832     0.574644923339
    H            0.148083375762     2.397541396294    -1.534589829008
    C            1.172823262824     1.120408625404    -0.177933656164
    C            2.281496197036    -0.446612407836     1.448123942997
    H            2.055702062957     1.731125494141    -0.155315624813
    H            3.221742570040    -0.316987654981     0.926572861806
    H            2.205648171492    -1.480904177380     1.755224433842
    H            2.317086065693     0.164819945528     2.343434652020

  Mulliken Charges: (a.u.)
   Center  Symbol    Alpha    Beta     Spin     Total
       1     H     0.38561  0.38561  0.00000  0.22877
       2     O     4.18367  4.18367  0.00000 -0.36735
       3     C     2.84959  2.84959  0.00000  0.30081
       4     C     3.13980  3.13980  0.00000 -0.27959
       5     C     3.13916  3.13916  0.00000 -0.27833
       6     H     0.42734  0.42734  0.00000  0.14531
       7     C     3.05883  3.05883  0.00000 -0.11766
       8     H     0.42039  0.42039  0.00000  0.15922
       9     C     2.93905  2.93905  0.00000  0.12190
      10     H     0.42280  0.42280  0.00000  0.15440
      11     C     3.11432  3.11432  0.00000 -0.22863
      12     C     3.14664  3.14664  0.00000 -0.29327
      13     H     0.42751  0.42751  0.00000  0.14499
      14     H     0.44799  0.44799  0.00000  0.10401
      15     H     0.45010  0.45010  0.00000  0.09981
      16     H     0.44719  0.44719  0.00000  0.10562

   Total alpha = 29.00000, Total beta = 29.00000, Total charge = -0.00000
