  ==> Input File <==

--------------------------------------------------------------------------
set {
	reference rhf
	basis 6-31G*
}

set_num_threads( 4 )
memory 2 gb

molecule MOL {
0 1

H	 1.136379	 0.211822	 1.465562
C	 1.135357	 0.094285	 0.374742
C	 0.065331	 0.871482	 -0.349150
O	 1.941633	 -0.601957	 -0.151457
C	 -0.917403	 1.552177	 0.614369
H	 -0.446449	 0.198490	 -1.027439
H	 0.567340	 1.631689	 -0.946003
C	 -1.774860	 0.561519	 1.402905
H	 -1.561109	 2.211328	 0.040633
H	 -0.366054	 2.189978	 1.302020
H	 -2.360634	 -0.062498	 0.735075
H	 -2.462257	 1.083801	 2.060191
H	 -1.167671	 -0.096854	 2.017117

	symmetry c1
}
set optking {
	frozen_dihedral = ("
		6 3 2 4
	")
}

ee = optimize('scf')
oeprop('DIPOLE', 'QUADRUPOLE', 'MULLIKEN_CHARGES')
f=open( 'psi4out.xyz', 'w' )
f.write( "13  " )
f.write( str(ee) + "\n" )
f.write( MOL.save_string_xyz() )
f.close()
--------------------------------------------------------------------------

    Molecular point group: c1
  Charge       = 0
  Multiplicity = 1
  Basis Set: 6-31G*
  Basis Set:
  @DF-RHF Final Energy:  -230.98272003829226
    Total Energy =                       -230.9827200382922285
    Molecular point group: c1
  Basis Set: 6-31G*
  Basis Set:
  Basis Set: 6-31G*
  Basis Set:
  @DF-RHF Final Energy:  -230.98200758226480
    Total Energy =                       -230.9820075822647993
  Basis Set: 6-31G*
  Basis Set:
  Basis Set: 6-31G*
  Basis Set:
  @DF-RHF Final Energy:  -230.98285335552708
    Total Energy =                       -230.9828533555270837
  Basis Set: 6-31G*
  Basis Set:
  Basis Set: 6-31G*
  Basis Set:
  @DF-RHF Final Energy:  -230.98317406427267
    Total Energy =                       -230.9831740642726743
  Basis Set: 6-31G*
  Basis Set:
  Basis Set: 6-31G*
  Basis Set:
  @DF-RHF Final Energy:  -230.98322723026359
    Total Energy =                       -230.9832272302635090
  Basis Set: 6-31G*
  Basis Set:
  Basis Set: 6-31G*
  Basis Set:
  @DF-RHF Final Energy:  -230.98323948057637
    Total Energy =                       -230.9832394805761737
  Basis Set: 6-31G*
  Basis Set:
  Basis Set: 6-31G*
  Basis Set:
  @DF-RHF Final Energy:  -230.98324208277506
    Total Energy =                       -230.9832420827750639
  Basis Set: 6-31G*
  Basis Set:
  Charge       = 0
  Multiplicity = 1
  Basis Set: 6-31G*
  Basis Set:

    Orbital Energies (a.u.)
    -----------------------

    Doubly Occupied:

       1A    -20.561752     2A    -11.328190     3A    -11.236938
       4A    -11.236112     5A    -11.224845     6A     -1.402858
       7A     -1.087334     8A     -0.972185     9A     -0.848650
      10A     -0.792562    11A     -0.659622    12A     -0.649885
      13A     -0.630189    14A     -0.592778    15A     -0.572844
      16A     -0.526174    17A     -0.508315    18A     -0.493368
      19A     -0.482501    20A     -0.409932

  @DF-RHF Final Energy:  -230.98324218810484

   => Energetics <=

    Nuclear Repulsion Energy =            172.3544452385132786
    One-Electron Energy =                -654.2413100241408301
    Two-Electron Energy =                 250.9036225975225989
    DFT Exchange-Correlation Energy =       0.0000000000000000
    Empirical Dispersion Energy =           0.0000000000000000
    PCM Polarization Energy =               0.0000000000000000
    EFP Energy =                            0.0000000000000000
    Total Energy =                       -230.9832421881049527
    Molecular point group: c1
  Basis Set: 6-31G*
  Basis Set:

  -Total Gradient:
     Atom            X                  Y                   Z
    ------   -----------------  -----------------  -----------------
       1        0.000000323241     0.000000430013     0.000002991253
       2       -0.001118268198    -0.001333344469     0.000359545940
       3        0.001114706170     0.000698276922    -0.001035793180
       4        0.000672221986     0.000895720080    -0.000126067217
       5        0.000016661301    -0.000003271621     0.000013239742
       6       -0.000675449078    -0.000247739802     0.000800759718
       7        0.000002401192    -0.000005923193    -0.000003354216
       8       -0.000012943004    -0.000002045090    -0.000010095660
       9       -0.000000587241    -0.000009077248     0.000003100645
      10        0.000005773818     0.000011781880    -0.000004008914
      11       -0.000008899742    -0.000007628210     0.000001624156
      12        0.000001695319    -0.000001783359     0.000001373258
      13        0.000002364231     0.000004604099    -0.000003315526

  **** Optimization is complete! (in 8 steps) ****
    Final optimized geometry and variables:
    Molecular point group: c1

    Geometry (in Angstrom), charge = 0, multiplicity = 1:

    H            1.155016389685    -0.244289308957     1.079678564641
    C            1.080999772558    -0.381257423493    -0.005531545997
    C           -0.030316247414     0.373077710210    -0.704836850146
    O            1.868272367881    -1.065672165575    -0.573824227910
    C           -1.012694361106     1.060799881730     0.245556942304
    H           -0.547572624618    -0.326863445900    -1.354799760681
    H            0.449739814294     1.101269871891    -1.353899226839
    C           -1.902817872037     0.079496316005     1.010463925109
    H           -1.638796375281     1.737217749858    -0.327762270460
    H           -0.462212908273     1.682350434216     0.948864147056
    H           -2.501173556270    -0.514885618457     0.326256125545
    H           -2.581268559780     0.605769192805     1.673660356189
    H           -1.320374479304    -0.607495298896     1.618018479223

  Mulliken Charges: (a.u.)
   Center  Symbol    Alpha    Beta     Spin     Total
       1     H     0.42888  0.42888  0.00000  0.14224
       2     C     2.83699  2.83699  0.00000  0.32603
       3     C     3.20601  3.20601  0.00000 -0.41202
       4     O     4.24023  4.24023  0.00000 -0.48046
       5     C     3.16680  3.16680  0.00000 -0.33361
       6     H     0.39920  0.39920  0.00000  0.20160
       7     H     0.39749  0.39749  0.00000  0.20502
       8     C     3.24334  3.24334  0.00000 -0.48668
       9     H     0.41204  0.41204  0.00000  0.17592
      10     H     0.41848  0.41848  0.00000  0.16303
      11     H     0.41692  0.41692  0.00000  0.16617
      12     H     0.41381  0.41381  0.00000  0.17239
      13     H     0.41982  0.41982  0.00000  0.16036

   Total alpha = 20.00000, Total beta = 20.00000, Total charge = -0.00000
