  ==> Input File <==

--------------------------------------------------------------------------
set {
	reference rhf
	basis cc-pvtz
}

set_num_threads( 4 )
memory 2 gb

molecule MOL {
0 1

H	 -0.366580	 2.045936	 -0.305741
C	 0.351829	 1.335402	 0.083179
N	 -0.000018	 0.000080	 -0.334836
H	 1.327156	 1.599860	 -0.305475
H	 0.380566	 1.445403	 1.171445
C	 -1.195041	 -0.015030	 -1.143583
C	 1.100324	 -0.669740	 -0.985090
H	 -1.468363	 -1.035514	 -1.380226
H	 -2.016224	 0.432808	 -0.598344
H	 -1.077059	 0.530216	 -2.084783
H	 1.957181	 -0.700719	 -0.324016
H	 0.824487	 -1.689469	 -1.222136
H	 1.407380	 -0.178171	 -1.913092

	symmetry c1
}
set optking {
	frozen_dihedral = ("
		6 3 2 1
	")
}

ee = optimize('scf')
oeprop('DIPOLE', 'QUADRUPOLE', 'MULLIKEN_CHARGES')
f=open( 'psi4out.xyz', 'w' )
f.write( "13  " )
f.write( str(ee) + "\n" )
f.write( MOL.save_string_xyz() )
f.close()
--------------------------------------------------------------------------

    Molecular point group: c1
  Charge       = 0
  Multiplicity = 1
  Basis Set: CC-PVTZ
  Basis Set:
  @DF-RHF Final Energy:  -173.32683042190632
    Total Energy =                       -173.3268304219064646
    Molecular point group: c1
  Basis Set: CC-PVTZ
  Basis Set:
  Basis Set: CC-PVTZ
  Basis Set:
  @DF-RHF Final Energy:  -173.32754423395923
    Total Energy =                       -173.3275442339591734
  Basis Set: CC-PVTZ
  Basis Set:
  Basis Set: CC-PVTZ
  Basis Set:
  @DF-RHF Final Energy:  -173.32770839623134
    Total Energy =                       -173.3277083962312872
  Basis Set: CC-PVTZ
  Basis Set:
  Basis Set: CC-PVTZ
  Basis Set:
  @DF-RHF Final Energy:  -173.32771967443938
    Total Energy =                       -173.3277196744394359
  Basis Set: CC-PVTZ
  Basis Set:
  Charge       = 0
  Multiplicity = 1
  Basis Set: CC-PVTZ
  Basis Set:

    Orbital Energies (a.u.)
    -----------------------

    Doubly Occupied:

       1A    -15.534678     2A    -11.233993     3A    -11.233926
       4A    -11.233767     5A     -1.221013     6A     -0.952085
       7A     -0.951868     8A     -0.806360     9A     -0.638527
      10A     -0.629445    11A     -0.627955    12A     -0.550136
      13A     -0.547109    14A     -0.514069    15A     -0.502119
      16A     -0.500703    17A     -0.340458

  @DF-RHF Final Energy:  -173.32772117795830

   => Energetics <=

    Nuclear Repulsion Energy =            138.9150720450648180
    One-Electron Energy =                -508.4491616262888556
    Two-Electron Energy =                 196.2063684032657420
    DFT Exchange-Correlation Energy =       0.0000000000000000
    Empirical Dispersion Energy =           0.0000000000000000
    PCM Polarization Energy =               0.0000000000000000
    EFP Energy =                            0.0000000000000000
    Total Energy =                       -173.3277211779583240
    Molecular point group: c1
  Basis Set: CC-PVTZ
  Basis Set:

  -Total Gradient:
     Atom            X                  Y                   Z
    ------   -----------------  -----------------  -----------------
       1        0.000853713849     0.000219521082    -0.001342517093
       2       -0.001293961396    -0.000248191740     0.002164886107
       3        0.001103485720     0.000231873958    -0.001775524973
       4       -0.000017209696    -0.000002025414    -0.000028465547
       5       -0.000006646394    -0.000035838858    -0.000035135776
       6       -0.000674524592    -0.000142731573     0.001009246534
       7        0.000040746376     0.000012902230     0.000012897292
       8       -0.000007684473    -0.000004981682    -0.000006100628
       9       -0.000021058299    -0.000002183609    -0.000014612515
      10        0.000018768447    -0.000008472901     0.000018563660
      11        0.000019622098    -0.000013683584    -0.000011816690
      12        0.000007013382    -0.000010822534    -0.000005464968
      13       -0.000022265020     0.000004634626     0.000014044597

  **** Optimization is complete! (in 5 steps) ****
    Final optimized geometry and variables:
    Molecular point group: c1

    Geometry (in Angstrom), charge = 0, multiplicity = 1:

    H           -0.434181167362     1.911498361367     0.380712185197
    C            0.287964648748     1.175354995977     0.714236124049
    N           -0.064849177630    -0.155817266476     0.249482442757
    H            1.252218993698     1.491961968873     0.326333002437
    H            0.337459494522     1.216645101298     1.796988171554
    C           -1.272572384078    -0.198952206316    -0.535765847946
    C            1.032534886855    -0.860644560709    -0.362333231477
    H           -1.534305861814    -1.227517769187    -0.751574803267
    H           -2.092355699027     0.239433140571     0.018822310054
    H           -1.187649760513     0.332117749546    -1.489258856220
    H            1.878028436346    -0.890009089758     0.313598384016
    H            0.744415457364    -1.883104970984    -0.573298477634
    H            1.366746912889    -0.404358214307    -1.299493650681

  Mulliken Charges: (a.u.)
   Center  Symbol    Alpha    Beta     Spin     Total
       1     H     0.46086  0.46086  0.00000  0.07829
       2     C     3.08485  3.08485  0.00000 -0.16969
       3     N     3.59895  3.59895  0.00000 -0.19789
       4     H     0.46432  0.46432  0.00000  0.07135
       5     H     0.45118  0.45118  0.00000  0.09765
       6     C     3.09013  3.09013  0.00000 -0.18027
       7     C     3.09034  3.09034  0.00000 -0.18067
       8     H     0.45375  0.45375  0.00000  0.09250
       9     H     0.45225  0.45225  0.00000  0.09550
      10     H     0.47372  0.47372  0.00000  0.05256
      11     H     0.45219  0.45219  0.00000  0.09562
      12     H     0.45383  0.45383  0.00000  0.09234
      13     H     0.47364  0.47364  0.00000  0.05272

   Total alpha = 17.00000, Total beta = 17.00000, Total charge = -0.00000
