                              Psi4 1.0.54 Driver

  ==> Input File <==

--------------------------------------------------------------------------
set {
	reference rhf
	basis cc-pvtz
}

set_num_threads( 4 )
memory 2 gb

molecule MOL {
0 1

H	 -2.636503	 1.820146	 -1.204030
C	 -1.872529	 1.248993	 -0.717784
C	 -2.105997	 -0.000418	 -0.398703
H	 -0.931487	 1.717255	 -0.505727
O	 -1.189946	 -0.765863	 0.237511
H	 -3.042333	 -0.482087	 -0.614100
C	 0.026572	 -0.995256	 -0.379403
C	 1.057223	 0.049888	 -0.004615
H	 -0.054361	 -1.010670	 -1.459674
H	 0.397526	 -1.952058	 -0.044198
F	 2.203233	 -0.234060	 -0.590375
F	 0.698147	 1.254887	 -0.392621
F	 1.266440	 0.094219	 1.288722

	symmetry c1
}
set optking {
	frozen_dihedral = ("
		6 3 5 7
	")
}

ee,wfn = optimize('scf', return_wfn=True)
oeprop( wfn, 'DIPOLE', 'QUADRUPOLE', 'MULLIKEN_CHARGES')
f=open( 'psi4out.xyz', 'w' )
f.write( "13  " )
f.write( str(ee) + "\n" )
f.write( MOL.save_string_xyz() )
f.close()
--------------------------------------------------------------------------

    Molecular point group: c1
  Charge       = 0
  Multiplicity = 1
  Basis Set: CC-PVTZ
  Basis Set:
  @DF-RHF Final Energy:  -527.72009903564071
    Total Energy =                       -527.7200990356404873
    Molecular point group: c1
  Basis Set: CC-PVTZ
  Basis Set:
  Basis Set: CC-PVTZ
  Basis Set:
  @DF-RHF Final Energy:  -527.73121294119119
    Total Energy =                       -527.7312129411914157
  Basis Set: CC-PVTZ
  Basis Set:
  Basis Set: CC-PVTZ
  Basis Set:
  @DF-RHF Final Energy:  -527.73394716671328
    Total Energy =                       -527.7339471667135058
  Basis Set: CC-PVTZ
  Basis Set:
  Basis Set: CC-PVTZ
  Basis Set:
  @DF-RHF Final Energy:  -527.73319457692332
    Total Energy =                       -527.7331945769235517
  Basis Set: CC-PVTZ
  Basis Set:
  @DF-RHF Final Energy:  -527.73666931649029
    Total Energy =                       -527.7366693164902927
  @DF-RHF Final Energy:  -527.73732712599508
    Total Energy =                       -527.7373271259955345
  @DF-RHF Final Energy:  -527.73755539984734
    Total Energy =                       -527.7375553998474516
  @DF-RHF Final Energy:  -527.73764589959433
    Total Energy =                       -527.7376458995942130
  Basis Set: CC-PVTZ
  Basis Set:
  @DF-RHF Final Energy:  -527.73768663788906
    Total Energy =                       -527.7376866378892828
  Basis Set: CC-PVTZ
  Basis Set:
  Basis Set: CC-PVTZ
  Basis Set:
  @DF-RHF Final Energy:  -527.73769572382935
    Total Energy =                       -527.7376957238293471
  Basis Set: CC-PVTZ
  Basis Set:
  Basis Set: CC-PVTZ
  Basis Set:
  @DF-RHF Final Energy:  -527.73769773835579
    Total Energy =                       -527.7376977383556778
  Basis Set: CC-PVTZ
  Basis Set:
  Charge       = 0
  Multiplicity = 1
  Basis Set: CC-PVTZ
  Basis Set:

    Orbital Energies (a.u.)
    -----------------------

    Doubly Occupied:

       1A    -26.337959     2A    -26.336807     3A    -26.334180
       4A    -20.594276     5A    -11.494291     6A    -11.315310
       7A    -11.298769     8A    -11.225292     9A     -1.746611
      10A     -1.643001    11A     -1.641472    12A     -1.433776
      13A     -1.083027    14A     -1.025328    15A     -0.933021
      16A     -0.841444    17A     -0.836495    18A     -0.818915
      19A     -0.785931    20A     -0.730716    21A     -0.715478
      22A     -0.704351    23A     -0.677919    24A     -0.665525
      25A     -0.660635    26A     -0.647174    27A     -0.632077
      28A     -0.610530    29A     -0.559826    30A     -0.533475
      31A     -0.478699    32A     -0.376380

  @DF-RHF Final Energy:  -527.73769792951578

   => Energetics <=

    Nuclear Repulsion Energy =            415.6622105785628492
    One-Electron Energy =               -1555.3624418870731461
    Two-Electron Energy =                 611.9625333789940669
    DFT Exchange-Correlation Energy =       0.0000000000000000
    Empirical Dispersion Energy =           0.0000000000000000
    PCM Polarization Energy =               0.0000000000000000
    EFP Energy =                            0.0000000000000000
    Total Energy =                       -527.7376979295163437
    Molecular point group: c1
  Basis Set: CC-PVTZ
  Basis Set:

  -Total Gradient:
     Atom            X                  Y                   Z
    ------   -----------------  -----------------  -----------------
       1        0.000003237211    -0.000005512980    -0.000004616637
       2       -0.000015142298     0.000023808078     0.000004457270
       3       -0.001131061913     0.000849612606     0.001987405405
       4       -0.000001340885    -0.000008531400    -0.000004224613
       5        0.001081543564     0.002063720741    -0.000354491917
       6        0.000639651147    -0.001288112263    -0.001553120149
       7       -0.000591439479    -0.001644558330    -0.000073349794
       8       -0.000000261794     0.000036222706     0.000031765420
       9        0.000004421945     0.000008615141     0.000012154198
      10        0.000005546424     0.000001144418     0.000001898274
      11        0.000022712645    -0.000011312708    -0.000034503456
      12        0.000007295136    -0.000024621768     0.000000867752
      13       -0.000025161703    -0.000000474240    -0.000014241760

  **** Optimization is complete! (in 12 steps) ****
    Final optimized geometry and variables:
    Molecular point group: c1

    Geometry (in Angstrom), charge = 0, multiplicity = 1:

    H           -3.232426227565     1.193382554668    -1.839099214341
    C           -2.356410585799     0.942896643747    -1.275225115688
    C           -2.393118177529    -0.075965522823    -0.450229678074
    H           -1.479598105968     1.546860267762    -1.404605009320
    O           -1.360777860845    -0.499610688299     0.325599976914
    H           -3.277692704890    -0.669579336923    -0.314930271466
    C           -0.175870362645    -0.916109356520    -0.268371228440
    C            0.982095780621    -0.076702516869     0.223558620200
    H           -0.211160256332    -0.836753742562    -1.345537679116
    H            0.027709571050    -1.941918253438     0.009646528805
    F            2.101037329731    -0.512473228955    -0.321591829973
    F            0.848773492339     1.190835161814    -0.101048829432
    F            1.120125369736    -0.140666848104     1.526317121658

  Mulliken Charges: (a.u.)
   Center  Symbol    Alpha    Beta     Spin     Total
       1     H     0.42329  0.42329  0.00000  0.15342
       2     C     3.18321  3.18321  0.00000 -0.36643
       3     C     2.98420  2.98420  0.00000  0.03159
       4     H     0.41933  0.41933  0.00000  0.16135
       5     O     4.16407  4.16407  0.00000 -0.32814
       6     H     0.41899  0.41899  0.00000  0.16202
       7     C     3.01069  3.01069  0.00000 -0.02138
       8     C     2.67342  2.67342  0.00000  0.65317
       9     H     0.45122  0.45122  0.00000  0.09756
      10     H     0.43991  0.43991  0.00000  0.12017
      11     F     4.61333  4.61333  0.00000 -0.22666
      12     F     4.61087  4.61087  0.00000 -0.22174
      13     F     4.60746  4.60746  0.00000 -0.21493

   Total alpha = 32.00000, Total beta = 32.00000, Total charge =  0.00000

*** Psi4 exiting successfully. Buy a developer a beer!
