  ==> Input File <==

--------------------------------------------------------------------------
set {
	reference rhf
	basis 6-31G*
}

set_num_threads( 4 )
memory 2 gb

molecule MOL {
0 1

H	 -3.420663	 1.227371	 -1.044276
O	 -3.452007	 0.283848	 -0.965577
C	 -3.181085	 -0.079926	 0.364119
C	 -1.765924	 0.277073	 0.805136
H	 -3.327791	 -1.152017	 0.410903
H	 -3.905698	 0.375695	 1.036898
C	 -0.677594	 -0.417312	 -0.014550
H	 -1.637766	 1.358238	 0.744969
H	 -1.659588	 0.017670	 1.857098
C	 0.738335	 -0.034840	 0.421385
H	 -0.814977	 -0.178223	 -1.064632
H	 -0.802730	 -1.495410	 0.071702
C	 1.393079	 0.983200	 -0.516159
H	 0.701811	 0.361745	 1.433218
H	 1.357576	 -0.929888	 0.466468
C	 2.845651	 1.331449	 -0.171321
H	 0.798859	 1.895596	 -0.527624
H	 1.364100	 0.590740	 -1.530532
C	 3.025045	 2.065135	 1.159065
H	 3.249314	 1.951692	 -0.967967
H	 3.441893	 0.421142	 -0.164941
H	 2.429970	 2.974131	 1.186445
H	 4.063180	 2.346514	 1.307182
H	 2.731247	 1.451767	 2.004420

	symmetry c1
}
set optking {
	frozen_dihedral = ("
		13 10 7 11
	")
}

ee = optimize('scf')
oeprop('DIPOLE', 'QUADRUPOLE', 'MULLIKEN_CHARGES')
f=open( 'psi4out.xyz', 'w' )
f.write( "24  " )
f.write( str(ee) + "\n" )
f.write( MOL.save_string_xyz() )
f.close()
--------------------------------------------------------------------------

    Molecular point group: c1
  Charge       = 0
  Multiplicity = 1
  Basis Set: 6-31G*
  Basis Set:
  @DF-RHF Final Energy:  -349.24287915772555
    Total Energy =                       -349.2428791577256106
    Molecular point group: c1
  Basis Set: 6-31G*
  Basis Set:
  Basis Set: 6-31G*
  Basis Set:
  @DF-RHF Final Energy:  -349.24315134459493
    Total Energy =                       -349.2431513445949349
  Basis Set: 6-31G*
  Basis Set:
  Basis Set: 6-31G*
  Basis Set:
  @DF-RHF Final Energy:  -349.24318608954781
    Total Energy =                       -349.2431860895479758
  Basis Set: 6-31G*
  Basis Set:
  Basis Set: 6-31G*
  Basis Set:
  @DF-RHF Final Energy:  -349.24324758597197
    Total Energy =                       -349.2432475859719716
  Basis Set: 6-31G*
  Basis Set:
  Basis Set: 6-31G*
  Basis Set:
  @DF-RHF Final Energy:  -349.24325299950817
    Total Energy =                       -349.2432529995079449
  Basis Set: 6-31G*
  Basis Set:
  Basis Set: 6-31G*
  Basis Set:
  @DF-RHF Final Energy:  -349.24325705768666
    Total Energy =                       -349.2432570576866624
  Basis Set: 6-31G*
  Basis Set:
  Charge       = 0
  Multiplicity = 1
  Basis Set: 6-31G*
  Basis Set:

    Orbital Energies (a.u.)
    -----------------------

    Doubly Occupied:

       1A    -20.553673     2A    -11.267457     3A    -11.217407
       4A    -11.214654     5A    -11.213067     6A    -11.212039
       7A    -11.210830     8A    -11.208269     9A     -1.360171
      10A     -1.087827    11A     -1.047635    12A     -0.984688
      13A     -0.915185    14A     -0.851554    15A     -0.803650
      16A     -0.775418    17A     -0.679783    18A     -0.641462
      19A     -0.632623    20A     -0.615208    21A     -0.601771
      22A     -0.586882    23A     -0.560662    24A     -0.537290
      25A     -0.519206    26A     -0.509755    27A     -0.495372
      28A     -0.480054    29A     -0.466328    30A     -0.459462
      31A     -0.452736    32A     -0.445893    33A     -0.419666

  @DF-RHF Final Energy:  -349.24325765829633

   => Energetics <=

    Nuclear Repulsion Energy =            388.5002872781989254
    One-Electron Energy =               -1243.4317348561698964
    Two-Electron Energy =                 505.6881899196745280
    DFT Exchange-Correlation Energy =       0.0000000000000000
    Empirical Dispersion Energy =           0.0000000000000000
    PCM Polarization Energy =               0.0000000000000000
    EFP Energy =                            0.0000000000000000
    Total Energy =                       -349.2432576582964430
    Molecular point group: c1
  Basis Set: 6-31G*
  Basis Set:

  -Total Gradient:
     Atom            X                  Y                   Z
    ------   -----------------  -----------------  -----------------
       1       -0.000000497415     0.000002242577    -0.000004717620
       2       -0.000003312279     0.000012817229     0.000003170601
       3        0.000005144180    -0.000014527279    -0.000013178113
       4       -0.000007957260     0.000002618891    -0.000021112013
       5        0.000004088906    -0.000002033156     0.000008888306
       6        0.000005634191     0.000003488865     0.000000948356
       7        0.001496610767    -0.004121274996    -0.001521425574
       8        0.000006262675     0.000005636631     0.000005531052
       9       -0.000001356645    -0.000012422430    -0.000009628396
      10       -0.001331902050     0.002982565801     0.001979295164
      11       -0.000991342083     0.002777414507     0.000849839546
      12       -0.000017490477    -0.000008066519    -0.000014293641
      13        0.000818965694    -0.001642342048    -0.001259362362
      14        0.000018442407     0.000006486984    -0.000004003834
      15        0.000002884006     0.000012062205     0.000003489294
      16        0.000002612169    -0.000013886065    -0.000014663339
      17       -0.000000993875    -0.000003870043     0.000012906016
      18        0.000001027552     0.000003600372    -0.000005691776
      19       -0.000003087705     0.000005462974     0.000009380709
      20       -0.000011012476    -0.000005133332    -0.000006072810
      21        0.000006352290    -0.000000436352    -0.000003640815
      22        0.000004354282     0.000009725308     0.000003985044
      23       -0.000001144233    -0.000004670171     0.000003597193
      24       -0.000002282623     0.000004540047    -0.000003240988

  **** Optimization is complete! (in 7 steps) ****
    Final optimized geometry and variables:
    Molecular point group: c1

    Geometry (in Angstrom), charge = 0, multiplicity = 1:

    H           -3.164427635133     0.760935986617    -1.120922312800
    O           -3.230859916226    -0.183107552082    -1.079559016761
    C           -2.984352980888    -0.608119035187     0.236884038280
    C           -1.560451756610    -0.322686675785     0.700588389995
    H           -3.171512030325    -1.674936780901     0.240794789936
    H           -3.696928544959    -0.152046328032     0.922028592662
    C           -0.491411621843    -1.035513699520    -0.133066413712
    H           -1.388733749004     0.754081941182     0.676038738726
    H           -1.473591204643    -0.619096704617     1.744390672693
    C            0.946236967232    -0.657840791572     0.278385318785
    H           -0.656530556706    -0.779820071648    -1.174295590310
    H           -0.639405598693    -2.108428687504    -0.045083893680
    C            1.587073446817     0.376566846709    -0.653036537289
    H            0.948431822615    -0.296896966222     1.302973780569
    H            1.571977717653    -1.547526351387     0.274373344425
    C            3.022567985603     0.768672100988    -0.285708046735
    H            0.969378758261     1.273785034284    -0.684876843166
    H            1.585019636039    -0.026915428411    -1.662910747402
    C            3.154413083571     1.547839761814     1.024341760853
    H            3.431547114331     1.372869808489    -1.091896458280
    H            3.638236829414    -0.127349552600    -0.236982912057
    H            2.544155504292     2.447003049058     1.006185477395
    H            4.183415729765     1.851987778814     1.189982323353
    H            2.848474583790     0.957802140995     1.881784223947

  Mulliken Charges: (a.u.)
   Center  Symbol    Alpha    Beta     Spin     Total
       1     H     0.28335  0.28335  0.00000  0.43330
       2     O     4.36829  4.36829  0.00000 -0.73657
       3     C     2.99668  2.99668  0.00000  0.00665
       4     C     3.17003  3.17003  0.00000 -0.34007
       5     H     0.41641  0.41641  0.00000  0.16718
       6     H     0.42819  0.42819  0.00000  0.14363
       7     C     3.15645  3.15645  0.00000 -0.31291
       8     H     0.42809  0.42809  0.00000  0.14381
       9     H     0.42223  0.42223  0.00000  0.15555
      10     C     3.15716  3.15716  0.00000 -0.31432
      11     H     0.40912  0.40912  0.00000  0.18176
      12     H     0.42063  0.42063  0.00000  0.15875
      13     C     3.15327  3.15327  0.00000 -0.30654
      14     H     0.42099  0.42099  0.00000  0.15801
      15     H     0.42137  0.42137  0.00000  0.15725
      16     C     3.15294  3.15294  0.00000 -0.30587
      17     H     0.42686  0.42686  0.00000  0.14629
      18     H     0.42022  0.42022  0.00000  0.15957
      19     C     3.24075  3.24075  0.00000 -0.48150
      20     H     0.42112  0.42112  0.00000  0.15777
      21     H     0.42318  0.42318  0.00000  0.15364
      22     H     0.42310  0.42310  0.00000  0.15380
      23     H     0.41927  0.41927  0.00000  0.16146
      24     H     0.42031  0.42031  0.00000  0.15937

   Total alpha = 33.00000, Total beta = 33.00000, Total charge =  0.00000
