  ==> Input File <==

--------------------------------------------------------------------------
set {
	reference rhf
	basis 6-31G*
}

set_num_threads( 4 )
memory 2 gb

molecule MOL {
0 1

O	 -2.646636	 -0.181562	 0.849348
C	 -2.001139	 -0.953124	 0.207116
C	 -0.889235	 -0.467034	 -0.705952
C	 -2.232257	 -2.445345	 0.292176
C	 0.379448	 -0.143569	 0.099626
H	 -1.240753	 0.430454	 -1.203197
H	 -0.666809	 -1.210119	 -1.466463
C	 1.631333	 -0.777471	 -0.511575
H	 0.482768	 0.934507	 0.149241
H	 0.263088	 -0.495696	 1.123449
C	 2.915987	 -0.544314	 0.291766
H	 1.766672	 -0.399098	 -1.523130
H	 1.471257	 -1.849544	 -0.605828
C	 3.373361	 0.914346	 0.347591
H	 3.708709	 -1.142521	 -0.150311
H	 2.780642	 -0.921148	 1.303579
H	 3.506512	 1.320010	 -0.651625
H	 4.322697	 0.999599	 0.867103
H	 2.660624	 1.545032	 0.868198
H	 -2.605046	 -2.812130	 -0.660589
H	 -2.952527	 -2.664835	 1.067946
H	 -1.301539	 -2.967627	 0.494145

	symmetry c1
}
set optking {
	frozen_dihedral = ("
		6 3 5 8
	")
}

ee = optimize('scf')
oeprop('DIPOLE', 'QUADRUPOLE', 'MULLIKEN_CHARGES')
f=open( 'psi4out.xyz', 'w' )
f.write( "22  " )
f.write( str(ee) + "\n" )
f.write( MOL.save_string_xyz() )
f.close()
--------------------------------------------------------------------------

    Molecular point group: c1
  Charge       = 0
  Multiplicity = 1
  Basis Set: 6-31G*
  Basis Set:
  @DF-RHF Final Energy:  -348.09261853135337
    Total Energy =                       -348.0926185313531960
    Molecular point group: c1
  Basis Set: 6-31G*
  Basis Set:
  Basis Set: 6-31G*
  Basis Set:
  @DF-RHF Final Energy:  -348.09297337962448
    Total Energy =                       -348.0929733796240271
  Basis Set: 6-31G*
  Basis Set:
  Basis Set: 6-31G*
  Basis Set:
  @DF-RHF Final Energy:  -348.09303607845118
    Total Energy =                       -348.0930360784513482
  Basis Set: 6-31G*
  Basis Set:
  Basis Set: 6-31G*
  Basis Set:
  @DF-RHF Final Energy:  -348.09310738290793
    Total Energy =                       -348.0931073829083857
  Basis Set: 6-31G*
  Basis Set:
  @DF-RHF Final Energy:  -348.09318613949324
    Total Energy =                       -348.0931861394932412
  @DF-RHF Final Energy:  -348.09323849871771
    Total Energy =                       -348.0932384987177102
  @DF-RHF Final Energy:  -348.09332259839681
    Total Energy =                       -348.0933225983968100
  Basis Set: 6-31G*
  Basis Set:
  @DF-RHF Final Energy:  -348.09333660775678
    Total Energy =                       -348.0933366077570099
  Basis Set: 6-31G*
  Basis Set:
  Basis Set: 6-31G*
  Basis Set:
  @DF-RHF Final Energy:  -348.09331317618643
    Total Energy =                       -348.0933131761865980
  Basis Set: 6-31G*
  Basis Set:
  Basis Set: 6-31G*
  Basis Set:
  @DF-RHF Final Energy:  -348.09335303997921
    Total Energy =                       -348.0933530399789788
  Basis Set: 6-31G*
  Basis Set:
  Charge       = 0
  Multiplicity = 1
  Basis Set: 6-31G*
  Basis Set:

    Orbital Energies (a.u.)
    -----------------------

    Doubly Occupied:

       1A    -20.546948     2A    -11.323906     3A    -11.232445
       4A    -11.228990     5A    -11.227821     6A    -11.225721
       7A    -11.223076     8A    -11.213996     9A     -1.392591
      10A     -1.096931    11A     -1.045185    12A     -0.997273
      13A     -0.940595    14A     -0.861412    15A     -0.789948
      16A     -0.733426    17A     -0.658158    18A     -0.647695
      19A     -0.626953    20A     -0.621170    21A     -0.596456
      22A     -0.575578    23A     -0.570793    24A     -0.546112
      25A     -0.536069    26A     -0.514518    27A     -0.505634
      28A     -0.490184    29A     -0.472639    30A     -0.466230
      31A     -0.457933    32A     -0.396089

  @DF-RHF Final Energy:  -348.09335329751889

   => Energetics <=

    Nuclear Repulsion Energy =            373.8776030002966309
    One-Electron Energy =               -1212.4169644009939475
    Two-Electron Energy =                 490.4460081031785421
    DFT Exchange-Correlation Energy =       0.0000000000000000
    Empirical Dispersion Energy =           0.0000000000000000
    PCM Polarization Energy =               0.0000000000000000
    EFP Energy =                            0.0000000000000000
    Total Energy =                       -348.0933532975187745
    Molecular point group: c1
  Basis Set: 6-31G*
  Basis Set:

  -Total Gradient:
     Atom            X                  Y                   Z
    ------   -----------------  -----------------  -----------------
       1       -0.000044031242    -0.000037966471    -0.000034036676
       2        0.000084243256     0.000083438876     0.000098383888
       3        0.001359995622    -0.001046190862    -0.001863413470
       4       -0.000123707348    -0.000020237263    -0.000111927298
       5        0.000194987200     0.002038263119    -0.000683134971
       6       -0.001263692606     0.000336896641     0.001761874778
       7       -0.000003760802    -0.000036399093     0.000006411330
       8       -0.000222983700    -0.001319859149     0.000738158867
       9       -0.000028419403    -0.000060556823     0.000067673493
      10        0.000009146920     0.000064762728    -0.000028202296
      11       -0.000040858883    -0.000034749015     0.000054637652
      12        0.000025778019     0.000004023173    -0.000017096454
      13       -0.000042876448    -0.000007048659    -0.000035177669
      14       -0.000002410481     0.000018489984     0.000003234966
      15       -0.000028682349     0.000009969939    -0.000011235723
      16        0.000030496269    -0.000016689172     0.000016822114
      17        0.000017595899     0.000003276469    -0.000002169899
      18       -0.000012533745     0.000002159563     0.000005847574
      19        0.000030052652     0.000003002423    -0.000005330894
      20        0.000028524592    -0.000017222585     0.000015867282
      21       -0.000000275841     0.000010028246     0.000007149655
      22        0.000033412419     0.000022607930     0.000015663750

  **** Optimization is complete! (in 11 steps) ****
    Final optimized geometry and variables:
    Molecular point group: c1

    Geometry (in Angstrom), charge = 0, multiplicity = 1:

    O           -2.945012484440     0.374153140362     0.465695131606
    C           -2.099395083945    -0.350336985070     0.037297961565
    C           -0.964994337443     0.175069162806    -0.822758424689
    C           -2.107816411418    -1.835686943369     0.333373708458
    C            0.320558994153     0.410626155488     0.014725591282
    H           -1.309658958828     1.103371096907    -1.259319534135
    H           -0.765059164520    -0.528673713646    -1.625661143690
    C            1.572524934959    -0.196829224253    -0.624668595471
    H            0.446010343353     1.475720981634     0.165072878382
    H            0.202479832545    -0.014975167064     1.009114201979
    C            2.855054491138    -0.021041502175     0.195521343534
    H            1.716543458342     0.232252003576    -1.615084489228
    H            1.400564516167    -1.260424531295    -0.777788050682
    C            3.333749583738     1.426264062988     0.324803488053
    H            3.641978566324    -0.608127775726    -0.271056046277
    H            2.709150133050    -0.444441782055     1.187308108110
    H            3.479551609410     1.877621459109    -0.652837941576
    H            4.280975095397     1.471408149247     0.852919423564
    H            2.628053978726     2.042046734241     0.872196539214
    H           -2.382703964623    -2.377617750392    -0.567890134752
    H           -2.828218281969    -2.052637465986     1.109857977644
    H           -1.125269028689    -2.186897934664     0.632236292321

  Mulliken Charges: (a.u.)
   Center  Symbol    Alpha    Beta     Spin     Total
       1     O     4.26060  4.26060  0.00000 -0.52120
       2     C     2.74080  2.74080  0.00000  0.51840
       3     C     3.20291  3.20291  0.00000 -0.40583
       4     C     3.28915  3.28915  0.00000 -0.57830
       5     C     3.16374  3.16374  0.00000 -0.32748
       6     H     0.39821  0.39821  0.00000  0.20358
       7     H     0.41336  0.41336  0.00000  0.17328
       8     C     3.15540  3.15540  0.00000 -0.31081
       9     H     0.40687  0.40687  0.00000  0.18626
      10     H     0.41702  0.41702  0.00000  0.16595
      11     C     3.15410  3.15410  0.00000 -0.30820
      12     H     0.42073  0.42073  0.00000  0.15855
      13     H     0.42240  0.42240  0.00000  0.15520
      14     C     3.24194  3.24194  0.00000 -0.48387
      15     H     0.41912  0.41912  0.00000  0.16176
      16     H     0.42229  0.42229  0.00000  0.15542
      17     H     0.42117  0.42117  0.00000  0.15766
      18     H     0.41746  0.41746  0.00000  0.16508
      19     H     0.41899  0.41899  0.00000  0.16201
      20     H     0.40628  0.40628  0.00000  0.18745
      21     H     0.39692  0.39692  0.00000  0.20616
      22     H     0.41053  0.41053  0.00000  0.17894

   Total alpha = 32.00000, Total beta = 32.00000, Total charge =  0.00000
