                              Psi4 1.0.54 Driver

  ==> Input File <==

--------------------------------------------------------------------------
set {
	reference rhf
	basis cc-pvtz
}

set_num_threads( 4 )
memory 2 gb

molecule MOL {
0 1

H	 -0.449441	 -1.533894	 -0.437849
N	 -0.625934	 -0.663929	 -0.000707
C	 -1.978635	 -0.158664	 0.001017
C	 0.415671	 -0.014306	 0.564651
H	 -2.519057	 -0.493535	 -0.876362
H	 -1.938890	 0.917202	 -0.004137
H	 -2.514266	 -0.485137	 0.884506
C	 1.743193	 -0.730458	 0.447898
O	 0.308408	 1.038608	 1.120477
H	 2.005774	 -0.872737	 -0.593931
H	 2.503096	 -0.139586	 0.932133
H	 1.690274	 -1.705854	 0.917388

	symmetry c1
}
set optking {
	frozen_dihedral = ("
		4 2 3 5
	")
}

ee,wfn = optimize('scf', return_wfn=True)
oeprop( wfn, 'DIPOLE', 'QUADRUPOLE', 'MULLIKEN_CHARGES')
f=open( 'psi4out.xyz', 'w' )
f.write( "12  " )
f.write( str(ee) + "\n" )
f.write( MOL.save_string_xyz() )
f.close()
--------------------------------------------------------------------------

    Molecular point group: c1
  Charge       = 0
  Multiplicity = 1
  Basis Set: CC-PVTZ
  Basis Set:
  @DF-RHF Final Energy:  -247.10086472260681
    Total Energy =                       -247.1008647226070707
    Molecular point group: c1
  Basis Set: CC-PVTZ
  Basis Set:
  Basis Set: CC-PVTZ
  Basis Set:
  @DF-RHF Final Energy:  -247.10103054322437
    Total Energy =                       -247.1010305432243968
  Basis Set: CC-PVTZ
  Basis Set:
  Basis Set: CC-PVTZ
  Basis Set:
  @DF-RHF Final Energy:  -247.10093995388343
    Total Energy =                       -247.1009399538834828
  Basis Set: CC-PVTZ
  Basis Set:
  Basis Set: CC-PVTZ
  Basis Set:
  @DF-RHF Final Energy:  -247.10112268100215
    Total Energy =                       -247.1011226810021526
  Basis Set: CC-PVTZ
  Basis Set:
  @DF-RHF Final Energy:  -247.10113580802070
    Total Energy =                       -247.1011358080206151
  Basis Set: CC-PVTZ
  Basis Set:
  @DF-RHF Final Energy:  -247.10114310160981
    Total Energy =                       -247.1011431016096935
  Basis Set: CC-PVTZ
  Basis Set:
  Basis Set: CC-PVTZ
  Basis Set:
  @DF-RHF Final Energy:  -247.10115645243016
    Total Energy =                       -247.1011564524300184
  Basis Set: CC-PVTZ
  Basis Set:
  Basis Set: CC-PVTZ
  Basis Set:
  @DF-RHF Final Energy:  -247.10115917185306
    Total Energy =                       -247.1011591718531690
  Basis Set: CC-PVTZ
  Basis Set:
  Charge       = 0
  Multiplicity = 1
  Basis Set: CC-PVTZ
  Basis Set:

    Orbital Energies (a.u.)
    -----------------------

    Doubly Occupied:

       1A    -20.507217     2A    -15.574606     3A    -11.336173
       4A    -11.253053     5A    -11.228114     6A     -1.388874
       7A     -1.230771     8A     -1.016582     9A     -0.932835
      10A     -0.788324    11A     -0.690755    12A     -0.651440
      13A     -0.635788    14A     -0.585990    15A     -0.582981
      16A     -0.556390    17A     -0.545850    18A     -0.509677
      19A     -0.417790    20A     -0.389937

  @DF-RHF Final Energy:  -247.10116012853877

   => Energetics <=

    Nuclear Repulsion Energy =            181.7329462667745474
    One-Electron Energy =                -696.0219133074826914
    Two-Electron Energy =                 267.1878069121693784
    DFT Exchange-Correlation Energy =       0.0000000000000000
    Empirical Dispersion Energy =           0.0000000000000000
    PCM Polarization Energy =               0.0000000000000000
    EFP Energy =                            0.0000000000000000
    Total Energy =                       -247.1011601285387655
    Molecular point group: c1
  Basis Set: CC-PVTZ
  Basis Set:

  -Total Gradient:
     Atom            X                  Y                   Z
    ------   -----------------  -----------------  -----------------
       1       -0.000012548883     0.000012786359     0.000035558915
       2       -0.000026008997    -0.000152576696     0.000250753503
       3       -0.000084093231    -0.000206999648     0.000048590240
       4        0.000041748241     0.000118229193    -0.000226608291
       5        0.000075802451     0.000223520187    -0.000115993472
       6       -0.000004099519    -0.000011193844     0.000003793779
       7        0.000004133637     0.000001154961    -0.000011302378
       8       -0.000017981859    -0.000037589790     0.000087885940
       9        0.000008394714     0.000028941133    -0.000013149279
      10       -0.000007550424     0.000038006006    -0.000023667347
      11        0.000004280901     0.000006837925     0.000001422490
      12        0.000017922970    -0.000021115788    -0.000037284099

  **** Optimization is complete! (in 9 steps) ****
    Final optimized geometry and variables:
    Molecular point group: c1

    Geometry (in Angstrom), charge = 0, multiplicity = 1:

    H           -0.429542470773    -1.454889596652    -0.812108050846
    N           -0.582833668804    -0.548500065712    -0.446307668091
    C           -1.936613565015    -0.048160470451    -0.392445208517
    C            0.456336811559     0.090337029669     0.135675877405
    H           -2.469358150592    -0.354529208315    -1.282614133900
    H           -1.912452117138     1.028437166106    -0.352366264425
    H           -2.471553432827    -0.410978183021     0.478375350341
    C            1.784367799862    -0.625983602020     0.027403964937
    O            0.342641479318     1.144985405960     0.686567684481
    H            2.038776195858    -0.799387102769    -1.011537779138
    H            2.547112104755    -0.020985513338     0.489501665274
    H            1.736384093894    -1.587074371852     0.526591019002

  Mulliken Charges: (a.u.)
   Center  Symbol    Alpha    Beta     Spin     Total
       1     H     0.41141  0.41141  0.00000  0.17718
       2     N     3.61990  3.61990  0.00000 -0.23981
       3     C     3.08187  3.08187  0.00000 -0.16374
       4     C     2.83725  2.83725  0.00000  0.32549
       5     H     0.45488  0.45488  0.00000  0.09024
       6     H     0.43557  0.43557  0.00000  0.12885
       7     H     0.45703  0.45703  0.00000  0.08594
       8     C     3.15385  3.15385  0.00000 -0.30770
       9     O     4.21488  4.21488  0.00000 -0.42977
      10     H     0.44939  0.44939  0.00000  0.10123
      11     H     0.43358  0.43358  0.00000  0.13285
      12     H     0.45038  0.45038  0.00000  0.09924

   Total alpha = 20.00000, Total beta = 20.00000, Total charge = -0.00000

*** Psi4 exiting successfully. Buy a developer a beer!
