                              Psi4 1.0.54 Driver

  ==> Input File <==

--------------------------------------------------------------------------
set {
	reference rhf
	basis cc-pvtz
}

set_num_threads( 4 )
memory 2 gb

molecule MOL {
0 1

O	 0.395927	 1.296676	 -0.000076
C	 0.503051	 0.114301	 -0.000074
C	 -0.701422	 -0.805636	 -0.000109
C	 1.858118	 -0.556123	 0.000212
C	 -1.097669	 -1.308132	 -1.379445
H	 -0.479971	 -1.635462	 0.666062
H	 -1.523023	 -0.269838	 0.468220
H	 -0.289305	 -1.862247	 -1.837409
H	 -1.961764	 -1.957938	 -1.309099
H	 -1.341611	 -0.484528	 -2.037017
H	 1.961106	 -1.191101	 -0.872843
H	 2.636688	 0.191085	 -0.000109
H	 1.961070	 -1.190284	 0.873873

	symmetry c1
}
set optking {
	frozen_dihedral = ("
		6 3 2 1
	")
}

ee,wfn = optimize('scf', return_wfn=True)
oeprop( wfn, 'DIPOLE', 'QUADRUPOLE', 'MULLIKEN_CHARGES')
f=open( 'psi4out.xyz', 'w' )
f.write( "13  " )
f.write( str(ee) + "\n" )
f.write( MOL.save_string_xyz() )
f.close()
--------------------------------------------------------------------------

    Molecular point group: c1
  Charge       = 0
  Multiplicity = 1
  Basis Set: CC-PVTZ
  Basis Set:
  @DF-RHF Final Energy:  -231.08053016273217
    Total Energy =                       -231.0805301627318613
    Molecular point group: c1
  Basis Set: CC-PVTZ
  Basis Set:
  Basis Set: CC-PVTZ
  Basis Set:
  @DF-RHF Final Energy:  -231.08116095319934
    Total Energy =                       -231.0811609531994009
  Basis Set: CC-PVTZ
  Basis Set:
  Basis Set: CC-PVTZ
  Basis Set:
  @DF-RHF Final Energy:  -231.08117507527479
    Total Energy =                       -231.0811750752748708
  Basis Set: CC-PVTZ
  Basis Set:
  Basis Set: CC-PVTZ
  Basis Set:
  @DF-RHF Final Energy:  -231.08124567976739
    Total Energy =                       -231.0812456797675338
  Basis Set: CC-PVTZ
  Basis Set:
  Basis Set: CC-PVTZ
  Basis Set:
  @DF-RHF Final Energy:  -231.08128521016553
    Total Energy =                       -231.0812852101656176
  Basis Set: CC-PVTZ
  Basis Set:
  Basis Set: CC-PVTZ
  Basis Set:
  @DF-RHF Final Energy:  -231.08130336344692
    Total Energy =                       -231.0813033634469207
  Basis Set: CC-PVTZ
  Basis Set:
  Basis Set: CC-PVTZ
  Basis Set:
  @DF-RHF Final Energy:  -231.08131370698686
    Total Energy =                       -231.0813137069868617
  Basis Set: CC-PVTZ
  Basis Set:
  Charge       = 0
  Multiplicity = 1
  Basis Set: CC-PVTZ
  Basis Set:

    Orbital Energies (a.u.)
    -----------------------

    Doubly Occupied:

       1A    -20.538439     2A    -11.320423     3A    -11.231937
       4A    -11.227838     5A    -11.227600     6A     -1.398285
       7A     -1.067711     8A     -0.997541     9A     -0.886010
      10A     -0.735145    11A     -0.656484    12A     -0.649911
      13A     -0.611249    14A     -0.595911    15A     -0.564031
      16A     -0.541710    17A     -0.530332    18A     -0.503721
      19A     -0.486175    20A     -0.402235

  @DF-RHF Final Energy:  -231.08131695268878

   => Energetics <=

    Nuclear Repulsion Energy =            177.2600650815217591
    One-Electron Energy =                -664.3373874485650958
    Two-Electron Energy =                 255.9960054143545278
    DFT Exchange-Correlation Energy =       0.0000000000000000
    Empirical Dispersion Energy =           0.0000000000000000
    PCM Polarization Energy =               0.0000000000000000
    EFP Energy =                            0.0000000000000000
    Total Energy =                       -231.0813169526888089
    Molecular point group: c1
  Basis Set: CC-PVTZ
  Basis Set:

  -Total Gradient:
     Atom            X                  Y                   Z
    ------   -----------------  -----------------  -----------------
       1        0.000028515582     0.000074658816     0.000612979172
       2       -0.000061557267    -0.000050015385    -0.000732195792
       3        0.000297885228    -0.000350930816    -0.000371547646
       4       -0.000032680582     0.000156823888    -0.000040516684
       5       -0.000018941064    -0.000030197454    -0.000048381311
       6       -0.000246669361     0.000292148300     0.000498611089
       7       -0.000007349162    -0.000008389266     0.000009238559
       8        0.000000702226     0.000006694087     0.000012379944
       9        0.000006341408     0.000007602907     0.000011198933
      10        0.000006054015     0.000004559721     0.000015710968
      11        0.000002083196    -0.000042984620    -0.000000201077
      12        0.000010275899    -0.000009330202    -0.000001058820
      13        0.000015339881    -0.000050639975     0.000033782663

  **** Optimization is complete! (in 8 steps) ****
    Final optimized geometry and variables:
    Molecular point group: c1

    Geometry (in Angstrom), charge = 0, multiplicity = 1:

    O            0.160367610018     1.540973688260     0.314883221758
    C            0.302543739767     0.361973640162     0.288387972836
    C           -0.889970423724    -0.573622863539     0.311345745511
    C            1.676689039892    -0.264845798503     0.237626886113
    C           -1.264924389875    -1.051930180497    -1.094806191454
    H           -0.671898192696    -1.426557040850     0.945782785386
    H           -1.717410232287    -0.030780196228     0.746933886984
    H           -0.462581671945    -1.613891923996    -1.557970448156
    H           -2.134519843273    -1.695165428594    -1.051511704422
    H           -1.500784278266    -0.210221447348    -1.733950278186
    H            1.729186026585    -1.037573469999    -0.519813896688
    H            2.420532631169     0.492900191168     0.045296532393
    H            1.883902958161    -0.736384333349     1.193168387970

  Mulliken Charges: (a.u.)
   Center  Symbol    Alpha    Beta     Spin     Total
       1     O     4.17449  4.17449  0.00000 -0.34897
       2     C     2.85362  2.85362  0.00000  0.29275
       3     C     3.09692  3.09692  0.00000 -0.19385
       4     C     3.15461  3.15461  0.00000 -0.30923
       5     C     3.15135  3.15135  0.00000 -0.30269
       6     H     0.45148  0.45148  0.00000  0.09704
       7     H     0.43836  0.43836  0.00000  0.12327
       8     H     0.45396  0.45396  0.00000  0.09208
       9     H     0.44489  0.44489  0.00000  0.11021
      10     H     0.44455  0.44455  0.00000  0.11090
      11     H     0.45129  0.45129  0.00000  0.09742
      12     H     0.43577  0.43577  0.00000  0.12846
      13     H     0.44869  0.44869  0.00000  0.10261

   Total alpha = 20.00000, Total beta = 20.00000, Total charge =  0.00000

*** Psi4 exiting successfully. Buy a developer a beer!
