                              Psi4 1.0.54 Driver

  ==> Input File <==

--------------------------------------------------------------------------
set {
	reference rhf
	basis cc-pvtz
}

set_num_threads( 4 )
memory 2 gb

molecule MOL {
0 1

O	 -2.071633	 -1.227563	 -0.223463
C	 -1.652164	 -0.152425	 0.058082
C	 -0.327811	 0.006324	 0.778296
C	 -2.402515	 1.108629	 -0.298924
C	 0.843231	 -0.001575	 -0.211665
H	 -0.319484	 0.928173	 1.350354
H	 -0.227804	 -0.823091	 1.466705
C	 2.197693	 0.138030	 0.476937
H	 0.722944	 0.805202	 -0.930230
H	 0.813976	 -0.926978	 -0.776588
C	 2.098403	 0.779173	 1.856878
H	 2.659438	 -0.841454	 0.565965
H	 2.856832	 0.730965	 -0.150362
H	 1.472888	 0.189725	 2.518933
H	 1.669164	 1.773358	 1.795893
H	 3.075228	 0.868090	 2.317648
H	 -3.240910	 0.874416	 -0.936711
H	 -1.747554	 1.818823	 -0.790984
H	 -2.760419	 1.579708	 0.610998

	symmetry c1
}
set optking {
	frozen_dihedral = ("
		11 8 5 9
	")
}

ee,wfn = optimize('scf', return_wfn=True)
oeprop( wfn, 'DIPOLE', 'QUADRUPOLE', 'MULLIKEN_CHARGES')
f=open( 'psi4out.xyz', 'w' )
f.write( "19  " )
f.write( str(ee) + "\n" )
f.write( MOL.save_string_xyz() )
f.close()
--------------------------------------------------------------------------

    Molecular point group: c1
  Charge       = 0
  Multiplicity = 1
  Basis Set: CC-PVTZ
  Basis Set:
  @DF-RHF Final Energy:  -309.16666727570777
    Total Energy =                       -309.1666672757074821
    Molecular point group: c1
  Basis Set: CC-PVTZ
  Basis Set:
  Basis Set: CC-PVTZ
  Basis Set:
  @DF-RHF Final Energy:  -309.08075945295195
    Total Energy =                       -309.0807594529518383
  Basis Set: CC-PVTZ
  Basis Set:
  Basis Set: CC-PVTZ
  Basis Set:
  @DF-RHF Final Energy:  -309.15598790404209
    Total Energy =                       -309.1559879040416945
  Basis Set: CC-PVTZ
  Basis Set:
  Basis Set: CC-PVTZ
  Basis Set:
  @DF-RHF Final Energy:  -309.16923721884274
    Total Energy =                       -309.1692372188430795
  Basis Set: CC-PVTZ
  Basis Set:
  @DF-RHF Final Energy:  -309.16997762457055
    Total Energy =                       -309.1699776245704925
  @DF-RHF Final Energy:  -309.17006412304625
    Total Energy =                       -309.1700641230465294
  @DF-RHF Final Energy:  -309.16733412252955
    Total Energy =                       -309.1673341225296099
  @DF-RHF Final Energy:  -309.16970366033507
    Total Energy =                       -309.1697036603349034
  @DF-RHF Final Energy:  -309.16997064843525
    Total Energy =                       -309.1699706484351964
  @DF-RHF Final Energy:  -309.16686327254558
    Total Energy =                       -309.1668632725455836
  Basis Set: CC-PVTZ
  Basis Set:
  @DF-RHF Final Energy:  -309.16974721198727
    Total Energy =                       -309.1697472119875556
  Basis Set: CC-PVTZ
  Basis Set:
  Basis Set: CC-PVTZ
  Basis Set:
  @DF-RHF Final Energy:  -309.17009926759590
    Total Energy =                       -309.1700992675961288
  Basis Set: CC-PVTZ
  Basis Set:
  Basis Set: CC-PVTZ
  Basis Set:
  @DF-RHF Final Energy:  -309.17010646333398
    Total Energy =                       -309.1701064633338092
  Basis Set: CC-PVTZ
  Basis Set:
  Charge       = 0
  Multiplicity = 1
  Basis Set: CC-PVTZ
  Basis Set:

    Orbital Energies (a.u.)
    -----------------------

    Doubly Occupied:

       1A    -20.536850     2A    -11.319425     3A    -11.228846
       4A    -11.227875     5A    -11.226878     6A    -11.223474
       7A    -11.214582     8A     -1.397067     9A     -1.090261
      10A     -1.028198    11A     -0.982419    12A     -0.904325
      13A     -0.796010    14A     -0.735409    15A     -0.661309
      16A     -0.654931    17A     -0.622442    18A     -0.606426
      19A     -0.591883    20A     -0.569644    21A     -0.554215
      22A     -0.544502    23A     -0.523613    24A     -0.503483
      25A     -0.481305    26A     -0.469829    27A     -0.460162
      28A     -0.399906

  @DF-RHF Final Energy:  -309.17010687357561

   => Energetics <=

    Nuclear Repulsion Energy =            305.4722667340926137
    One-Electron Energy =               -1024.1742140516557811
    Two-Electron Energy =                 409.5318404439877895
    DFT Exchange-Correlation Energy =       0.0000000000000000
    Empirical Dispersion Energy =           0.0000000000000000
    PCM Polarization Energy =               0.0000000000000000
    EFP Energy =                            0.0000000000000000
    Total Energy =                       -309.1701068735753779
    Molecular point group: c1
  Basis Set: CC-PVTZ
  Basis Set:

  -Total Gradient:
     Atom            X                  Y                   Z
    ------   -----------------  -----------------  -----------------
       1        0.000016906140    -0.000010880852    -0.000021466086
       2       -0.000016572366     0.000024870935    -0.000007811829
       3        0.000005612492     0.000023063975     0.000006521137
       4       -0.000013659155    -0.000013247315     0.000072486426
       5        0.000698422567     0.003303186666     0.006397832135
       6       -0.000004208881    -0.000011174452    -0.000005052506
       7       -0.000006653394     0.000003770611     0.000006732224
       8        0.000519344382     0.004384089869    -0.004554230646
       9       -0.000734061896    -0.004012799862    -0.004304301114
      10        0.000014206652     0.000006220920     0.000000253031
      11       -0.000500706104    -0.003688553888     0.002466443031
      12       -0.000010806866     0.000003033138     0.000003115139
      13       -0.000003879876    -0.000005846489     0.000000919139
      14        0.000016299336     0.000003975676    -0.000003999655
      15       -0.000013186502    -0.000008599679     0.000005007098
      16        0.000008636806     0.000000345661    -0.000013351111
      17        0.000008021869    -0.000004869479    -0.000007883114
      18        0.000006499137    -0.000005795862    -0.000018336535
      19        0.000009785660     0.000009210424    -0.000022876764

  **** Optimization is complete! (in 14 steps) ****
    Final optimized geometry and variables:
    Molecular point group: c1

    Geometry (in Angstrom), charge = 0, multiplicity = 1:

    O           -2.187914435013    -0.874366624173     0.430315320087
    C           -1.494569067545     0.089862934814     0.406825408019
    C            0.014117554304    -0.027474333939     0.501928569130
    C           -2.073162278041     1.477993892491     0.268350811842
    C            0.614901570808    -0.291976298856    -0.883496244031
    H            0.428528684596     0.874954477445     0.934113972887
    H            0.233346587424    -0.856042646144     1.163044200664
    C            2.140740825535    -0.522158938808    -0.932374190334
    H            0.345538223758     0.500394057615    -1.575891123588
    H            0.130557822663    -1.175755617963    -1.282870999488
    C            2.965275084625     0.114493100730     0.184362856950
    H            2.324845322683    -1.591347631994    -0.903931658148
    H            2.510815143783    -0.182086002934    -1.892686116940
    H            2.694570629905    -0.277236511704     1.156701110651
    H            2.846159748414     1.192859082160     0.214671715232
    H            4.018244167724    -0.091276634550     0.031570926130
    H           -3.129220305583     1.420627555912     0.053950786179
    H           -1.563935663761     2.030219976168    -0.513345817942
    H           -1.921374286192     2.020971342320     1.195752757615

  Mulliken Charges: (a.u.)
   Center  Symbol    Alpha    Beta     Spin     Total
       1     O     4.17752  4.17752  0.00000 -0.35505
       2     C     2.85718  2.85718  0.00000  0.28564
       3     C     3.10163  3.10163  0.00000 -0.20325
       4     C     3.15629  3.15629  0.00000 -0.31258
       5     C     3.10664  3.10664  0.00000 -0.21329
       6     H     0.44594  0.44594  0.00000  0.10813
       7     H     0.43825  0.43825  0.00000  0.12351
       8     C     3.08787  3.08787  0.00000 -0.17573
       9     H     0.44985  0.44985  0.00000  0.10030
      10     H     0.43937  0.43937  0.00000  0.12127
      11     C     3.15879  3.15879  0.00000 -0.31757
      12     H     0.44984  0.44984  0.00000  0.10031
      13     H     0.44812  0.44812  0.00000  0.10377
      14     H     0.45095  0.45095  0.00000  0.09810
      15     H     0.45437  0.45437  0.00000  0.09126
      16     H     0.44261  0.44261  0.00000  0.11479
      17     H     0.43585  0.43585  0.00000  0.12829
      18     H     0.45054  0.45054  0.00000  0.09893
      19     H     0.44841  0.44841  0.00000  0.10319

   Total alpha = 28.00000, Total beta = 28.00000, Total charge = -0.00000

*** Psi4 exiting successfully. Buy a developer a beer!
