  ==> Input File <==

--------------------------------------------------------------------------
set {
	reference rhf
	basis 6-31G*
}

set_num_threads( 1 )
memory 2 gb

molecule MOL {
0 1

H	 -2.798360	 -0.862255	 -0.071053
N	 -1.863561	 -0.715187	 0.256814
C	 -1.344686	 0.554728	 -0.219830
H	 -1.300452	 -1.461917	 -0.101532
C	 0.081427	 0.741154	 0.254071
H	 -1.362155	 0.656231	 -1.305829
H	 -1.952773	 1.354456	 0.191809
O	 0.874168	 -0.245412	 -0.342030
H	 0.444037	 1.730782	 -0.023037
H	 0.121165	 0.653424	 1.337565
C	 1.836787	 -0.794954	 0.499954
H	 2.382795	 -1.537155	 -0.066360
H	 2.535425	 -0.038456	 0.852937
H	 1.381941	 -1.274673	 1.364126

	symmetry c1
}
set optking {
	frozen_dihedral = ("
		8 5 3 6,
		6 3 2 4,
		5 8 11 13
	")
}

ee = energy('scf')
oeprop('DIPOLE', 'QUADRUPOLE', 'MULLIKEN_CHARGES')
f=open( 'psi4out.xyz', 'w' )
f.write( "14  " )
f.write( str(ee) + "\n" )
f.write( MOL.save_string_xyz() )
f.close()
--------------------------------------------------------------------------

    Molecular point group: c1

    Geometry (in Angstrom), charge = 0, multiplicity = 1:

       Center              X                  Y                   Z               Mass
    ------------   -----------------  -----------------  -----------------  -----------------
           H         -2.721314651119    -0.746165061155    -0.160723985007     1.007825032070
           N         -1.786515651119    -0.599097061155     0.167143014993    14.003074004780
           C         -1.267640651119     0.670817938845    -0.309500985007    12.000000000000
           H         -1.223406651119    -1.345827061155    -0.191202985007     1.007825032070
           C          0.158472348881     0.857243938845     0.164400014993    12.000000000000
           H         -1.285109651119     0.772320938845    -1.395499985007     1.007825032070
           H         -1.875727651119     1.470545938845     0.102138014993     1.007825032070
           O          0.951213348881    -0.129322061155    -0.431700985007    15.994914619560
           H          0.521082348881     1.846871938845    -0.112707985007     1.007825032070
           H          0.198210348881     0.769513938845     1.247894014993     1.007825032070
           C          1.913832348881    -0.678864061155     0.410283014993    12.000000000000
           H          2.459840348881    -1.421065061155    -0.156030985007     1.007825032070
           H          2.612470348881     0.077633938845     0.763266014993     1.007825032070
           H          1.458986348881    -1.158583061155     1.274455014993     1.007825032070

  Charge       = 0
  Multiplicity = 1
  Basis Set: 6-31G*
  Basis Set:

    Orbital Energies (a.u.)
    -----------------------

    Doubly Occupied:

       1A    -20.555936     2A    -15.530144     3A    -11.265581
       4A    -11.265137     5A    -11.239872     6A     -1.381125
       7A     -1.174525     8A     -0.999058     9A     -0.907123
      10A     -0.815520    11A     -0.686351    12A     -0.670204
      13A     -0.645810    14A     -0.614829    15A     -0.600464
      16A     -0.540718    17A     -0.530327    18A     -0.498532
      19A     -0.474216    20A     -0.415086    21A     -0.380446

  @DF-RHF Final Energy:  -248.12271749979880

   => Energetics <=

    Nuclear Repulsion Energy =            196.0493308401726154
    One-Electron Energy =                -725.9620475167339464
    Two-Electron Energy =                 281.7899991767625352
    DFT Exchange-Correlation Energy =       0.0000000000000000
    Empirical Dispersion Energy =           0.0000000000000000
    PCM Polarization Energy =               0.0000000000000000
    EFP Energy =                            0.0000000000000000
    Total Energy =                       -248.1227174997987959

  Mulliken Charges: (a.u.)
   Center  Symbol    Alpha    Beta     Spin     Total
       1     H     0.33205  0.33205  0.00000  0.33590
       2     N     3.92697  3.92697  0.00000 -0.85394
       3     C     3.06706  3.06706  0.00000 -0.13411
       4     H     0.32573  0.32573  0.00000  0.34855
       5     C     2.99304  2.99304  0.00000  0.01392
       6     H     0.42614  0.42614  0.00000  0.14772
       7     H     0.42164  0.42164  0.00000  0.15671
       8     O     4.30936  4.30936  0.00000 -0.61871
       9     H     0.42596  0.42596  0.00000  0.14809
      10     H     0.42221  0.42221  0.00000  0.15557
      11     C     3.08261  3.08261  0.00000 -0.16523
      12     H     0.41382  0.41382  0.00000  0.17237
      13     H     0.42894  0.42894  0.00000  0.14211
      14     H     0.42447  0.42447  0.00000  0.15105

   Total alpha = 21.00000, Total beta = 21.00000, Total charge =  0.00000
