  ==> Input File <==

--------------------------------------------------------------------------
set {
	reference rhf
	basis 6-31G*
}

set_num_threads( 4 )
memory 2 gb

molecule MOL {
0 1

H	 -3.420663	 1.227371	 -1.044276
O	 -3.452007	 0.283848	 -0.965577
C	 -3.181085	 -0.079926	 0.364119
C	 -1.765924	 0.277073	 0.805136
H	 -3.327791	 -1.152017	 0.410903
H	 -3.905698	 0.375695	 1.036898
C	 -0.709015	 0.023533	 -0.270586
H	 -1.741491	 1.325291	 1.104477
H	 -1.530459	 -0.298529	 1.698702
C	 0.704118	 0.406165	 0.174191
H	 -0.973239	 0.575815	 -1.167180
H	 -0.728075	 -1.030008	 -0.544594
C	 1.757337	 0.144012	 -0.905666
H	 0.714031	 1.456456	 0.455632
H	 0.965070	 -0.152926	 1.071925
C	 3.201198	 0.428481	 -0.476133
H	 1.522634	 0.736887	 -1.788337
H	 1.688019	 -0.897225	 -1.213622
C	 3.500352	 1.900693	 -0.187163
H	 3.868344	 0.085834	 -1.263406
H	 3.438990	 -0.167578	 0.402714
H	 3.260041	 2.523143	 -1.045036
H	 4.552771	 2.043104	 0.038600
H	 2.933509	 2.271999	 0.660176

	symmetry c1
}
set optking {
	frozen_dihedral = ("
		7 4 3 2
	")
}

ee = optimize('scf')
oeprop('DIPOLE', 'QUADRUPOLE', 'MULLIKEN_CHARGES')
f=open( 'psi4out.xyz', 'w' )
f.write( "24  " )
f.write( str(ee) + "\n" )
f.write( MOL.save_string_xyz() )
f.close()
--------------------------------------------------------------------------

    Molecular point group: c1
  Charge       = 0
  Multiplicity = 1
  Basis Set: 6-31G*
  Basis Set:
  @DF-RHF Final Energy:  -349.24529456677953
    Total Energy =                       -349.2452945667795348
    Molecular point group: c1
  Basis Set: 6-31G*
  Basis Set:
  Basis Set: 6-31G*
  Basis Set:
  @DF-RHF Final Energy:  -349.24549962008371
    Total Energy =                       -349.2454996200838195
  Basis Set: 6-31G*
  Basis Set:
  Basis Set: 6-31G*
  Basis Set:
  @DF-RHF Final Energy:  -349.24562527842272
    Total Energy =                       -349.2456252784227786
  Basis Set: 6-31G*
  Basis Set:
  Basis Set: 6-31G*
  Basis Set:
  @DF-RHF Final Energy:  -349.24562267585191
    Total Energy =                       -349.2456226758520756
  Basis Set: 6-31G*
  Basis Set:
  Basis Set: 6-31G*
  Basis Set:
  @DF-RHF Final Energy:  -349.24562817066459
    Total Energy =                       -349.2456281706646450
  Basis Set: 6-31G*
  Basis Set:
  Charge       = 0
  Multiplicity = 1
  Basis Set: 6-31G*
  Basis Set:

    Orbital Energies (a.u.)
    -----------------------

    Doubly Occupied:

       1A    -20.554484     2A    -11.267859     3A    -11.216840
       4A    -11.213921     5A    -11.212063     6A    -11.211359
       7A    -11.210977     8A    -11.207363     9A     -1.360788
      10A     -1.087944    11A     -1.047196    12A     -0.985135
      13A     -0.915931    14A     -0.851056    15A     -0.797774
      16A     -0.776083    17A     -0.681128    18A     -0.652906
      19A     -0.626285    20A     -0.617269    21A     -0.597876
      22A     -0.585583    23A     -0.554654    24A     -0.544136
      25A     -0.513074    26A     -0.505924    27A     -0.501734
      28A     -0.472825    29A     -0.463862    30A     -0.459887
      31A     -0.454187    32A     -0.449742    33A     -0.420728

  @DF-RHF Final Energy:  -349.24562784600982

   => Energetics <=

    Nuclear Repulsion Energy =            385.1676947281245020
    One-Electron Energy =               -1236.7895004443580547
    Two-Electron Energy =                 502.3761778702238416
    DFT Exchange-Correlation Energy =       0.0000000000000000
    Empirical Dispersion Energy =           0.0000000000000000
    PCM Polarization Energy =               0.0000000000000000
    EFP Energy =                            0.0000000000000000
    Total Energy =                       -349.2456278460097110
    Molecular point group: c1
  Basis Set: 6-31G*
  Basis Set:

  -Total Gradient:
     Atom            X                  Y                   Z
    ------   -----------------  -----------------  -----------------
       1        0.000025778539    -0.000044727092     0.000093668257
       2        0.001401218198    -0.003801711701    -0.001048962164
       3       -0.002108004359     0.006626572644     0.000890420386
       4        0.001297269998    -0.006213192245     0.001553882782
       5       -0.000016244716     0.000034022318    -0.000052460555
       6       -0.000061626962     0.000021980452    -0.000048978673
       7       -0.000627277785     0.003492195296    -0.001394695605
       8       -0.000012181491    -0.000017079607     0.000016886954
       9        0.000044561247    -0.000033856599    -0.000004808897
      10        0.000073839316    -0.000091906248     0.000005487618
      11       -0.000103005508     0.000018967157    -0.000051757383
      12        0.000058643174     0.000037051416     0.000055490906
      13        0.000049465425    -0.000004802099     0.000011649892
      14        0.000007714377     0.000006999109     0.000005096551
      15        0.000001203626    -0.000014630540     0.000005622656
      16        0.000013798016     0.000018583311    -0.000061086738
      17       -0.000005951372    -0.000027274715    -0.000020053613
      18        0.000010071275    -0.000005331706     0.000031153107
      19       -0.000016316966    -0.000011382096     0.000008430963
      20        0.000009094678     0.000019082153    -0.000007378123
      21        0.000000642410    -0.000010144753    -0.000015758476
      22        0.000005517216    -0.000005962941     0.000001295824
      23       -0.000000634610     0.000004446284     0.000011712055
      24       -0.000047573716     0.000002102204     0.000015142279

  **** Optimization is complete! (in 6 steps) ****
    Final optimized geometry and variables:
    Molecular point group: c1

    Geometry (in Angstrom), charge = 0, multiplicity = 1:

    H           -3.483218452943     0.705901604474    -0.880701174484
    O           -3.452146622271    -0.232723073948    -0.755390466899
    C           -3.127737504895    -0.518878647580     0.580404183959
    C           -1.708366600798    -0.107399522282     0.978505372770
    H           -3.230400831359    -1.593702774222     0.666323170708
    H           -3.851522194748    -0.071753504053     1.258713714515
    C           -0.654894939286    -0.380886348183    -0.096376876477
    H           -1.693540487405     0.956753755247     1.216083960573
    H           -1.452317908058    -0.623515899914     1.901347135726
    C            0.761985759884    -0.025475745724     0.359807582725
    H           -0.900686394962     0.179914158084    -0.991983728195
    H           -0.691407099173    -1.430646300476    -0.381063348983
    C            1.813945238818    -0.273893707811    -0.724608147127
    H            0.784280558774     1.017591771621     0.666610085064
    H            1.015018993705    -0.608899532787     1.244094665227
    C            3.259670760626    -0.010207867381    -0.288262945580
    H            1.585213644262     0.339229138916    -1.595000230205
    H            1.736128914311    -1.307759668792    -1.054463004356
    C            3.568624254200     1.452160478125     0.037908753365
    H            3.924629311717    -0.337455257341    -1.083851688214
    H            3.493134264248    -0.629793314882     0.575323653719
    H            3.334028517897     2.097600776699    -0.804446171681
    H            4.621662070100     1.581594546810     0.268582551200
    H            3.002946035212     1.806018030056     0.893441525364

  Mulliken Charges: (a.u.)
   Center  Symbol    Alpha    Beta     Spin     Total
       1     H     0.28343  0.28343  0.00000  0.43314
       2     O     4.36738  4.36738  0.00000 -0.73476
       3     C     2.99411  2.99411  0.00000  0.01177
       4     C     3.17688  3.17688  0.00000 -0.35376
       5     H     0.41641  0.41641  0.00000  0.16719
       6     H     0.42774  0.42774  0.00000  0.14451
       7     C     3.14534  3.14534  0.00000 -0.29067
       8     H     0.42713  0.42713  0.00000  0.14574
       9     H     0.42033  0.42033  0.00000  0.15935
      10     C     3.15428  3.15428  0.00000 -0.30855
      11     H     0.41864  0.41864  0.00000  0.16271
      12     H     0.42104  0.42104  0.00000  0.15792
      13     C     3.15210  3.15210  0.00000 -0.30421
      14     H     0.42344  0.42344  0.00000  0.15311
      15     H     0.42512  0.42512  0.00000  0.14975
      16     C     3.15225  3.15225  0.00000 -0.30450
      17     H     0.42439  0.42439  0.00000  0.15123
      18     H     0.42158  0.42158  0.00000  0.15684
      19     C     3.24105  3.24105  0.00000 -0.48210
      20     H     0.42109  0.42109  0.00000  0.15783
      21     H     0.42368  0.42368  0.00000  0.15264
      22     H     0.42260  0.42260  0.00000  0.15480
      23     H     0.41952  0.41952  0.00000  0.16096
      24     H     0.42047  0.42047  0.00000  0.15906

   Total alpha = 33.00000, Total beta = 33.00000, Total charge =  0.00000
