  ==> Input File <==

--------------------------------------------------------------------------
set {
	reference rhf
	basis 6-31G*
}

set_num_threads( 4 )
memory 2 gb

molecule MOL {
0 1

H	 -2.477269	 0.785776	 -1.738170
C	 -1.789711	 -0.055521	 -1.677961
O	 -1.392607	 -0.295399	 -0.366433
H	 -2.291987	 -0.944261	 -2.034334
H	 -0.936822	 0.149059	 -2.323837
C	 -0.719715	 0.768384	 0.229244
C	 0.719720	 0.768376	 -0.229267
H	 -1.185038	 1.714362	 -0.050570
H	 -0.750528	 0.687237	 1.313896
O	 1.392611	 -0.295398	 0.366430
H	 0.750534	 0.687200	 -1.313918
H	 1.185043	 1.714359	 0.050526
C	 2.706965	 -0.449871	 -0.062409
H	 2.756559	 -0.644779	 -1.131878
H	 3.305899	 0.433456	 0.155466
H	 3.125548	 -1.294566	 0.467107

	symmetry c1
}
set optking {
	frozen_dihedral = ("
		2 3 6 7
	")
}

ee = optimize('scf')
oeprop('DIPOLE', 'QUADRUPOLE', 'MULLIKEN_CHARGES')
f=open( 'psi4out.xyz', 'w' )
f.write( "16  " )
f.write( str(ee) + "\n" )
f.write( MOL.save_string_xyz() )
f.close()
--------------------------------------------------------------------------

    Molecular point group: c1
  Charge       = 0
  Multiplicity = 1
  Basis Set: 6-31G*
  Basis Set:
  @DF-RHF Final Energy:  -306.97222109081730
    Total Energy =                       -306.9722210908173565
    Molecular point group: c1
  Basis Set: 6-31G*
  Basis Set:
  Basis Set: 6-31G*
  Basis Set:
  @DF-RHF Final Energy:  -306.97407263603588
    Total Energy =                       -306.9740726360359417
  Basis Set: 6-31G*
  Basis Set:
  Basis Set: 6-31G*
  Basis Set:
  @DF-RHF Final Energy:  -306.97477189552046
    Total Energy =                       -306.9747718955204618
  Basis Set: 6-31G*
  Basis Set:
  Basis Set: 6-31G*
  Basis Set:
  @DF-RHF Final Energy:  -306.97480051318104
    Total Energy =                       -306.9748005131812079
  Basis Set: 6-31G*
  Basis Set:
  Charge       = 0
  Multiplicity = 1
  Basis Set: 6-31G*
  Basis Set:

    Orbital Energies (a.u.)
    -----------------------

    Doubly Occupied:

       1A    -20.555976     2A    -20.553142     3A    -11.270906
       4A    -11.269147     5A    -11.265914     6A    -11.264581
       7A     -1.388612     8A     -1.370577     9A     -1.028278
      10A     -0.944218    11A     -0.898687    12A     -0.817708
      13A     -0.688103    14A     -0.679718    15A     -0.658543
      16A     -0.637654    17A     -0.626984    18A     -0.601548
      19A     -0.556022    20A     -0.527759    21A     -0.516552
      22A     -0.486898    23A     -0.461231    24A     -0.418321
      25A     -0.409228

  @DF-RHF Final Energy:  -306.97480270665983

   => Energetics <=

    Nuclear Repulsion Energy =            261.1919254241723820
    One-Electron Energy =                -936.5408384923798621
    Two-Electron Energy =                 368.3741103615476504
    DFT Exchange-Correlation Energy =       0.0000000000000000
    Empirical Dispersion Energy =           0.0000000000000000
    PCM Polarization Energy =               0.0000000000000000
    EFP Energy =                            0.0000000000000000
    Total Energy =                       -306.9748027066598297
    Molecular point group: c1
  Basis Set: 6-31G*
  Basis Set:

  -Total Gradient:
     Atom            X                  Y                   Z
    ------   -----------------  -----------------  -----------------
       1       -0.000010480929     0.000002207557    -0.000010126062
       2       -0.000041713391     0.000071417603     0.000080067872
       3        0.000090331972    -0.000161371510    -0.000011686891
       4        0.000009773409     0.000008829245     0.000009954661
       5        0.000004428233     0.000003235846    -0.000026504846
       6       -0.000079568406     0.000157926479    -0.000100832249
       7       -0.000086747690     0.000059540288    -0.000034702380
       8        0.000004201675    -0.000020599957    -0.000000112134
       9        0.000010971742    -0.000012053739     0.000003993804
      10        0.000060095707    -0.000061677162     0.000038219630
      11        0.000007382649     0.000003338128     0.000021266213
      12        0.000023500815    -0.000015190639     0.000005359883
      13        0.000001365710    -0.000039301813     0.000028295061
      14       -0.000013630403     0.000008171689     0.000002724636
      15       -0.000008079137     0.000001886444    -0.000003013165
      16        0.000028168045    -0.000006358460    -0.000002904035

  **** Optimization is complete! (in 5 steps) ****
    Final optimized geometry and variables:
    Molecular point group: c1

    Geometry (in Angstrom), charge = 0, multiplicity = 1:

    H           -2.610416681129     0.741870584942    -1.464700647251
    C           -2.016157876077    -0.164151016126    -1.356173938959
    O           -1.591858697132    -0.338322180996    -0.041609516391
    H           -2.631318249946    -1.016438582805    -1.609561190114
    H           -1.187044907904    -0.118745056002    -2.057674019577
    C           -0.856339149382     0.712658272305     0.505626699767
    C            0.604193164253     0.727122759322     0.093634520936
    H           -1.307324313931     1.670609637455     0.245969301143
    H           -0.907794556267     0.595375181291     1.579971681783
    O            1.235579943949    -0.399397023770     0.612667987894
    H            0.703980765115     0.753867635523    -0.990613559288
    H            1.065829538053     1.636538794394     0.481939677418
    C            2.579190805718    -0.511164215406     0.269775070240
    H            2.711187287631    -0.580529346033    -0.808577849660
    H            3.156784800372     0.337472701556     0.633172996591
    H            2.958841087840    -1.414245737318     0.727225779572

  Mulliken Charges: (a.u.)
   Center  Symbol    Alpha    Beta     Spin     Total
       1     H     0.43149  0.43149  0.00000  0.13703
       2     C     3.08106  3.08106  0.00000 -0.16211
       3     O     4.29906  4.29906  0.00000 -0.59812
       4     H     0.41042  0.41042  0.00000  0.17916
       5     H     0.43009  0.43009  0.00000  0.13981
       6     C     2.99892  2.99892  0.00000  0.00215
       7     C     2.99849  2.99849  0.00000  0.00302
       8     H     0.43209  0.43209  0.00000  0.13582
       9     H     0.40648  0.40648  0.00000  0.18703
      10     O     4.29820  4.29820  0.00000 -0.59640
      11     H     0.43068  0.43068  0.00000  0.13863
      12     H     0.43233  0.43233  0.00000  0.13534
      13     C     3.07924  3.07924  0.00000 -0.15848
      14     H     0.43014  0.43014  0.00000  0.13972
      15     H     0.43107  0.43107  0.00000  0.13787
      16     H     0.41024  0.41024  0.00000  0.17952

   Total alpha = 25.00000, Total beta = 25.00000, Total charge =  0.00000
