  ==> Input File <==

--------------------------------------------------------------------------
set {
	reference rhf
	basis 6-31G*
}

set_num_threads( 1 )
memory 2 gb

molecule MOL {
0 1

H	 -3.892951	 0.981613	 -0.358725
C	 -3.196921	 0.361773	 0.172313
C	 -2.076860	 -0.007332	 -0.404944
H	 -3.439953	 0.057760	 1.173024
O	 -1.748574	 0.392374	 -1.661656
H	 -1.347455	 -0.627766	 0.085185
C	 -0.638775	 -0.179825	 -2.263973
C	 -0.988605	 -1.470279	 -2.970118
H	 0.154269	 -0.387553	 -1.554308
H	 -0.271754	 0.514406	 -3.005475
F	 0.093595	 -1.957843	 -3.559126
F	 -1.433656	 -2.386493	 -2.126132
F	 -1.909758	 -1.294539	 -3.894770

	symmetry c1
}
set optking {
	frozen_dihedral = ("
		11 8 7 9,
		3 5 7 9,
		6 3 5 7
	")
}

ee = energy('scf')
oeprop('DIPOLE', 'QUADRUPOLE', 'MULLIKEN_CHARGES')
f=open( 'psi4out.xyz', 'w' )
f.write( "13  " )
f.write( str(ee) + "\n" )
f.write( MOL.save_string_xyz() )
f.close()
--------------------------------------------------------------------------

    Molecular point group: c1

    Geometry (in Angstrom), charge = 0, multiplicity = 1:

       Center              X                  Y                   Z               Mass
    ------------   -----------------  -----------------  -----------------  -----------------
           H         -2.453679689544     1.900914792147     1.846103536660     1.007825032070
           C         -1.757649689544     1.281074792147     2.377141536660    12.000000000000
           C         -0.637588689544     0.911969792147     1.799884536660    12.000000000000
           H         -2.000681689544     0.977061792147     3.377852536660     1.007825032070
           O         -0.309302689544     1.311675792147     0.543172536660    15.994914619560
           H          0.091816310456     0.291535792147     2.290013536660     1.007825032070
           C          0.800496310456     0.739476792147    -0.059144463340    12.000000000000
           C          0.450666310456    -0.550977207853    -0.765289463340    12.000000000000
           H          1.593540310456     0.531748792147     0.650520536660     1.007825032070
           H          1.167517310456     1.433707792147    -0.800646463340     1.007825032070
           F          1.532866310456    -1.038541207853    -1.354297463340    18.998403224000
           F          0.005615310456    -1.467191207853     0.078696536660    18.998403224000
           F         -0.470486689544    -0.375237207853    -1.689941463340    18.998403224000

  Charge       = 0
  Multiplicity = 1
  Basis Set: 6-31G*
  Basis Set:

    Orbital Energies (a.u.)
    -----------------------

    Doubly Occupied:

       1A    -26.344698     2A    -26.343738     3A    -26.340652
       4A    -20.608760     5A    -11.503253     6A    -11.319133
       7A    -11.299386     8A    -11.215656     9A     -1.741812
      10A     -1.639926    11A     -1.638332    12A     -1.438543
      13A     -1.084353    14A     -1.016319    15A     -0.925342
      16A     -0.836633    17A     -0.831037    18A     -0.821328
      19A     -0.792019    20A     -0.721925    21A     -0.711393
      22A     -0.696524    23A     -0.675867    24A     -0.660471
      25A     -0.654701    26A     -0.643175    27A     -0.634472
      28A     -0.585606    29A     -0.562437    30A     -0.524162
      31A     -0.513759    32A     -0.351418

  @DF-RHF Final Energy:  -527.53579678204869

   => Energetics <=

    Nuclear Repulsion Energy =            413.5462985042627224
    One-Electron Energy =               -1550.8103997849134430
    Two-Electron Energy =                 609.7283044986018012
    DFT Exchange-Correlation Energy =       0.0000000000000000
    Empirical Dispersion Energy =           0.0000000000000000
    PCM Polarization Energy =               0.0000000000000000
    EFP Energy =                            0.0000000000000000
    Total Energy =                       -527.5357967820489193

  Mulliken Charges: (a.u.)
   Center  Symbol    Alpha    Beta     Spin     Total
       1     H     0.40275  0.40275  0.00000  0.19450
       2     C     3.23712  3.23712  0.00000 -0.47424
       3     C     2.89422  2.89422  0.00000  0.21157
       4     H     0.40550  0.40550  0.00000  0.18899
       5     O     4.30190  4.30190  0.00000 -0.60381
       6     H     0.40705  0.40705  0.00000  0.18589
       7     C     3.06387  3.06387  0.00000 -0.12775
       8     C     2.45564  2.45564  0.00000  1.08873
       9     H     0.40541  0.40541  0.00000  0.18918
      10     H     0.38970  0.38970  0.00000  0.22060
      11     F     4.68280  4.68280  0.00000 -0.36560
      12     F     4.67957  4.67957  0.00000 -0.35914
      13     F     4.67446  4.67446  0.00000 -0.34893

   Total alpha = 32.00000, Total beta = 32.00000, Total charge =  0.00000
