  ==> Input File <==

--------------------------------------------------------------------------
set {
	reference rhf
	basis 6-31G*
}

set_num_threads( 1 )
memory 2 gb

molecule MOL {
0 1

H	 2.284426	 4.666297	 1.305580
C	 2.540421	 4.120614	 2.222269
C	 1.431535	 3.270901	 2.788811
O	 3.625037	 4.224719	 2.696105
C	 0.828445	 2.318828	 1.746652
H	 1.817872	 2.731015	 3.645535
H	 0.657417	 3.950253	 3.143603
C	 1.798735	 1.230516	 1.280376
H	 -0.055029	 1.854983	 2.175146
H	 0.482431	 2.894077	 0.889262
C	 1.180775	 0.282413	 0.250794
H	 2.135105	 0.659981	 2.143621
H	 2.690540	 1.688157	 0.856359
C	 2.148627	 -0.814315	 -0.201312
H	 0.285150	 -0.163568	 0.675869
H	 0.855931	 0.854828	 -0.617079
C	 3.580890	 -0.659131	 0.322722
H	 2.166869	 -0.852443	 -1.289387
H	 1.762857	 -1.776509	 0.128956
C	 4.324889	 0.564933	 -0.213704
H	 4.142010	 -1.551473	 0.056605
H	 3.564836	 -0.624694	 1.410140
H	 4.342616	 0.565491	 -1.300421
H	 3.866655	 1.493402	 0.110242
H	 5.353900	 0.572371	 0.132816

	symmetry c1
}
set optking {
	frozen_dihedral = ("
		6 3 5 8,
		6 3 2 4,
		3 5 8 12,
		12 8 11 14,
		20 17 14 18
	")
}

ee = energy('scf')
oeprop('DIPOLE', 'QUADRUPOLE', 'MULLIKEN_CHARGES')
f=open( 'psi4out.xyz', 'w' )
f.write( "25  " )
f.write( str(ee) + "\n" )
f.write( MOL.save_string_xyz() )
f.close()
--------------------------------------------------------------------------

    Molecular point group: c1

    Geometry (in Angstrom), charge = 0, multiplicity = 1:

       Center              X                  Y                   Z               Mass
    ------------   -----------------  -----------------  -----------------  -----------------
           H         -0.124501083498     3.039339164461     0.095344662407     1.007825032070
           C          0.131493916502     2.493656164461     1.012033662407    12.000000000000
           C         -0.977392083498     1.643943164461     1.578575662407    12.000000000000
           O          1.216109916502     2.597761164461     1.485869662407    15.994914619560
           C         -1.580482083498     0.691870164461     0.536416662407    12.000000000000
           H         -0.591055083498     1.104057164461     2.435299662407     1.007825032070
           H         -1.751510083498     2.323295164461     1.933367662407     1.007825032070
           C         -0.610192083498    -0.396441835539     0.070140662407    12.000000000000
           H         -2.463956083498     0.228025164461     0.964910662407     1.007825032070
           H         -1.926496083498     1.267119164461    -0.320973337593     1.007825032070
           C         -1.228152083498    -1.344544835539    -0.959441337593    12.000000000000
           H         -0.273822083498    -0.966976835539     0.933385662407     1.007825032070
           H          0.281612916502     0.061199164461    -0.353876337593     1.007825032070
           C         -0.260300083498    -2.441272835539    -1.411547337593    12.000000000000
           H         -2.123777083498    -1.790525835539    -0.534366337593     1.007825032070
           H         -1.552996083498    -0.772129835539    -1.827314337593     1.007825032070
           C          1.171962916502    -2.286088835539    -0.887513337593    12.000000000000
           H         -0.242058083498    -2.479400835539    -2.499622337593     1.007825032070
           H         -0.646070083498    -3.403466835539    -1.081279337593     1.007825032070
           C          1.915961916502    -1.062024835539    -1.423939337593    12.000000000000
           H          1.733082916502    -3.178430835539    -1.153630337593     1.007825032070
           H          1.155908916502    -2.251651835539     0.199904662407     1.007825032070
           H          1.933688916502    -1.061466835539    -2.510656337593     1.007825032070
           H          1.457727916502    -0.133555835539    -1.099993337593     1.007825032070
           H          2.944972916502    -1.054586835539    -1.077419337593     1.007825032070

  Charge       = 0
  Multiplicity = 1
  Basis Set: 6-31G*
  Basis Set:

    Orbital Energies (a.u.)
    -----------------------

    Doubly Occupied:

       1A    -20.562186     2A    -11.326107     3A    -11.233905
       4A    -11.232526     5A    -11.218341     6A    -11.217103
       7A    -11.216163     8A    -11.215308     9A    -11.205956
      10A     -1.402209    11A     -1.107314    12A     -1.068232
      13A     -1.004907    14A     -0.950114    15A     -0.875522
      16A     -0.828211    17A     -0.788810    18A     -0.768882
      19A     -0.668300    20A     -0.662511    21A     -0.635172
      22A     -0.629538    23A     -0.608798    24A     -0.590289
      25A     -0.563677    26A     -0.558450    27A     -0.540982
      28A     -0.521937    29A     -0.512955    30A     -0.496732
      31A     -0.493464    32A     -0.477884    33A     -0.449412
      34A     -0.445183    35A     -0.436549    36A     -0.409012

  @DF-RHF Final Energy:  -387.09249151558981

   => Energetics <=

    Nuclear Repulsion Energy =            461.9443133923471123
    One-Electron Energy =               -1440.2282568554603586
    Two-Electron Energy =                 591.1914519475241150
    DFT Exchange-Correlation Energy =       0.0000000000000000
    Empirical Dispersion Energy =           0.0000000000000000
    PCM Polarization Energy =               0.0000000000000000
    EFP Energy =                            0.0000000000000000
    Total Energy =                       -387.0924915155891313

  Mulliken Charges: (a.u.)
   Center  Symbol    Alpha    Beta     Spin     Total
       1     H     0.43260  0.43260  0.00000  0.13481
       2     C     2.83238  2.83238  0.00000  0.33523
       3     C     3.20731  3.20731  0.00000 -0.41462
       4     O     4.23781  4.23781  0.00000 -0.47562
       5     C     3.16264  3.16264  0.00000 -0.32529
       6     H     0.40028  0.40028  0.00000  0.19943
       7     H     0.40683  0.40683  0.00000  0.18635
       8     C     3.15813  3.15813  0.00000 -0.31626
       9     H     0.41421  0.41421  0.00000  0.17157
      10     H     0.42092  0.42092  0.00000  0.15816
      11     C     3.15504  3.15504  0.00000 -0.31008
      12     H     0.41720  0.41720  0.00000  0.16560
      13     H     0.42494  0.42494  0.00000  0.15013
      14     C     3.15596  3.15596  0.00000 -0.31193
      15     H     0.41914  0.41914  0.00000  0.16171
      16     H     0.42120  0.42120  0.00000  0.15760
      17     C     3.16265  3.16265  0.00000 -0.32530
      18     H     0.42046  0.42046  0.00000  0.15907
      19     H     0.41926  0.41926  0.00000  0.16148
      20     C     3.24159  3.24159  0.00000 -0.48319
      21     H     0.41703  0.41703  0.00000  0.16595
      22     H     0.41923  0.41923  0.00000  0.16155
      23     H     0.42235  0.42235  0.00000  0.15530
      24     H     0.41478  0.41478  0.00000  0.17044
      25     H     0.41605  0.41605  0.00000  0.16791

   Total alpha = 36.00000, Total beta = 36.00000, Total charge = -0.00000
