                              Psi4 1.0.54 Driver

  ==> Input File <==

--------------------------------------------------------------------------
set {
	reference rhf
	basis cc-pvtz
}

set_num_threads( 4 )
memory 2 gb

molecule MOL {
0 1

O	 -2.375798	 0.694606	 -1.659096
C	 -2.431726	 -0.191472	 -0.875411
C	 -3.588955	 -1.148325	 -0.777747
O	 -1.481217	 -0.452708	 0.001092
H	 -3.711197	 -1.639212	 -1.733868
H	 -3.440272	 -1.882857	 -0.002507
H	 -4.488734	 -0.580801	 -0.581822
C	 -0.332055	 0.384012	 -0.000250
C	 0.892252	 -0.506059	 -0.000295
H	 -0.360822	 1.020205	 -0.874146
H	 -0.359817	 1.021310	 0.872861
C	 2.188199	 0.299473	 -0.001416
H	 0.857046	 -1.152781	 -0.871031
H	 0.857910	 -1.151798	 0.871202
C	 3.437151	 -0.577593	 -0.000991
H	 2.209565	 0.950707	 -0.871712
H	 2.210062	 0.952234	 0.867721
C	 4.732399	 0.226982	 -0.000914
H	 3.417321	 -1.229122	 -0.869998
H	 3.416993	 -1.228707	 0.868337
H	 4.797903	 0.863451	 -0.876963
H	 5.598517	 -0.424436	 -0.000420
H	 4.797415	 0.864118	 0.874691

	symmetry c1
}
set optking {
	frozen_dihedral = ("
		2 4 8 10
	")
}

ee,wfn = optimize('scf', return_wfn=True)
oeprop( wfn, 'DIPOLE', 'QUADRUPOLE', 'MULLIKEN_CHARGES')
f=open( 'psi4out.xyz', 'w' )
f.write( "23  " )
f.write( str(ee) + "\n" )
f.write( MOL.save_string_xyz() )
f.close()
--------------------------------------------------------------------------

    Molecular point group: c1
  Charge       = 0
  Multiplicity = 1
  Basis Set: CC-PVTZ
  Basis Set:
  @DF-RHF Final Energy:  -423.13224045263769
    Total Energy =                       -423.1322404526374612
    Molecular point group: c1
  Basis Set: CC-PVTZ
  Basis Set:
  Basis Set: CC-PVTZ
  Basis Set:
  @DF-RHF Final Energy:  -423.13238865032929
    Total Energy =                       -423.1323886503288350
  Basis Set: CC-PVTZ
  Basis Set:
  Basis Set: CC-PVTZ
  Basis Set:
  @DF-RHF Final Energy:  -423.13277782141097
    Total Energy =                       -423.1327778214108548
  Basis Set: CC-PVTZ
  Basis Set:
  Basis Set: CC-PVTZ
  Basis Set:
  @DF-RHF Final Energy:  -423.13291472064776
    Total Energy =                       -423.1329147206481593
  Basis Set: CC-PVTZ
  Basis Set:
  Basis Set: CC-PVTZ
  Basis Set:
  @DF-RHF Final Energy:  -423.13293960515722
    Total Energy =                       -423.1329396051569347
  Basis Set: CC-PVTZ
  Basis Set:
  Charge       = 0
  Multiplicity = 1
  Basis Set: CC-PVTZ
  Basis Set:

    Orbital Energies (a.u.)
    -----------------------

    Doubly Occupied:

       1A    -20.594981     2A    -20.528844     3A    -11.367732
       4A    -11.278060     5A    -11.230091     6A    -11.222193
       7A    -11.221196     8A    -11.219307     9A    -11.210750
      10A     -1.468688    11A     -1.364479    12A     -1.094858
      13A     -1.043015    14A     -1.003751    15A     -0.932367
      16A     -0.845907    17A     -0.801481    18A     -0.774543
      19A     -0.699168    20A     -0.683525    21A     -0.665122
      22A     -0.649426    23A     -0.606798    24A     -0.588684
      25A     -0.586146    26A     -0.571961    27A     -0.554136
      28A     -0.539245    29A     -0.523908    30A     -0.507813
      31A     -0.490552    32A     -0.478933    33A     -0.473638
      34A     -0.470880    35A     -0.446563    36A     -0.437315

  @DF-RHF Final Energy:  -423.13295026999322

   => Energetics <=

    Nuclear Repulsion Energy =            451.4285791807777741
    One-Electron Energy =               -1470.7709471199373183
    Two-Electron Energy =                 596.2094176691661005
    DFT Exchange-Correlation Energy =       0.0000000000000000
    Empirical Dispersion Energy =           0.0000000000000000
    PCM Polarization Energy =               0.0000000000000000
    EFP Energy =                            0.0000000000000000
    Total Energy =                       -423.1329502699934437
    Molecular point group: c1
  Basis Set: CC-PVTZ
  Basis Set:

  -Total Gradient:
     Atom            X                  Y                   Z
    ------   -----------------  -----------------  -----------------
       1       -0.000010691148     0.000057610618    -0.000056712751
       2        0.000334337670    -0.000454178529    -0.000241764923
       3       -0.000012048355     0.000019592039    -0.000022734643
       4       -0.000512384667     0.000662655296     0.000635021203
       5        0.000004661101     0.000003942852     0.000010313566
       6        0.000005425967     0.000004846716    -0.000002643329
       7        0.000009222496    -0.000003313025    -0.000008125114
       8        0.000471626639    -0.000774607876    -0.000658565380
       9       -0.000005506883     0.000009476155     0.000009942417
      10       -0.000313324777     0.000499299236     0.000340029487
      11       -0.000011458341    -0.000017381323    -0.000017835602
      12        0.000006939898    -0.000016079685    -0.000005065338
      13       -0.000004053227     0.000012060855     0.000010591398
      14        0.000010278582    -0.000008400755     0.000000779207
      15        0.000013891205     0.000011361059     0.000006951598
      16       -0.000004511934    -0.000003309925     0.000000634700
      17        0.000006846809    -0.000002752511    -0.000001696265
      18        0.000009835729    -0.000006636340     0.000002103558
      19       -0.000003277907     0.000004568336    -0.000001627888
      20       -0.000000169017     0.000000502852    -0.000000360919
      21       -0.000001291458    -0.000001155143    -0.000000756144
      22        0.000005795295     0.000001778946     0.000000554482
      23       -0.000000143677     0.000000120151     0.000000966680

  **** Optimization is complete! (in 6 steps) ****
    Final optimized geometry and variables:
    Molecular point group: c1

    Geometry (in Angstrom), charge = 0, multiplicity = 1:

    O           -2.568019607331     0.844108788303    -1.279149260035
    C           -2.564929580146    -0.035947225163    -0.486955496301
    C           -3.705811136503    -1.003752493206    -0.320873256489
    O           -1.573580512873    -0.284638839064     0.348516758595
    H           -3.873916051401    -1.501372421115    -1.266553056912
    H           -3.508935360059    -1.731668549014     0.449741230196
    H           -4.599199187206    -0.442907462554    -0.081024574745
    C           -0.402305238291     0.523030798693     0.321048268802
    C            0.818249425176    -0.375079102177     0.325032522360
    H           -0.426786269503     1.162298961619    -0.545640701678
    H           -0.425476848441     1.146926406919     1.205696346172
    C            2.118167296007     0.423050774360     0.366239223256
    H            0.795674474323    -0.999978525917    -0.562369458718
    H            0.764539943399    -1.041433922877     1.179901547666
    C            3.362949345658    -0.459880703770     0.366269098614
    H            2.157138117161     1.095798092224    -0.486883719417
    H            2.128119240655     1.053531227286     1.252176646175
    C            4.661549018764     0.338153175964     0.408991441955
    H            3.355383972998    -1.089008012067    -0.519297376091
    H            3.324790028143    -1.132685721800     1.218399788269
    H            4.744848875902     0.996438299242    -0.449274999028
    H            5.524564091183    -0.317439607939     0.407490943456
    H            4.714531208702     0.952393794330     1.301713664565

  Mulliken Charges: (a.u.)
   Center  Symbol    Alpha    Beta     Spin     Total
       1     O     4.20327  4.20327  0.00000 -0.40654
       2     C     2.80775  2.80775  0.00000  0.38449
       3     C     3.14291  3.14291  0.00000 -0.28582
       4     O     4.15156  4.15156  0.00000 -0.30312
       5     H     0.44245  0.44245  0.00000  0.11511
       6     H     0.44213  0.44213  0.00000  0.11574
       7     H     0.44215  0.44215  0.00000  0.11569
       8     C     2.98625  2.98625  0.00000  0.02749
       9     C     3.08384  3.08384  0.00000 -0.16768
      10     H     0.44127  0.44127  0.00000  0.11747
      11     H     0.45261  0.45261  0.00000  0.09478
      12     C     3.09868  3.09868  0.00000 -0.19735
      13     H     0.45166  0.45166  0.00000  0.09668
      14     H     0.45016  0.45016  0.00000  0.09967
      15     C     3.08472  3.08472  0.00000 -0.16943
      16     H     0.45132  0.45132  0.00000  0.09737
      17     H     0.45393  0.45393  0.00000  0.09213
      18     C     3.14976  3.14976  0.00000 -0.29952
      19     H     0.45311  0.45311  0.00000  0.09379
      20     H     0.45365  0.45365  0.00000  0.09270
      21     H     0.45425  0.45425  0.00000  0.09150
      22     H     0.44766  0.44766  0.00000  0.10468
      23     H     0.45491  0.45491  0.00000  0.09018

   Total alpha = 36.00000, Total beta = 36.00000, Total charge = -0.00000

*** Psi4 exiting successfully. Buy a developer a beer!
