  ==> Input File <==

--------------------------------------------------------------------------
set {
	reference rhf
	basis 6-31G*
}

set_num_threads( 4 )
memory 2 gb

molecule MOL {
0 1

H	 2.005973	 -0.591839	 0.850222
O	 1.586534	 -0.678666	 -0.000226
C	 0.489431	 0.077273	 0.000046
C	 -0.764129	 -0.759190	 0.000191
O	 0.537743	 1.263962	 0.000257
C	 -2.038368	 0.075731	 -0.000248
H	 -0.717284	 -1.412404	 -0.866059
H	 -0.717458	 -1.411724	 0.866967
H	 -2.086483	 0.712501	 -0.875098
H	 -2.908485	 -0.571682	 -0.000042
H	 -2.086576	 0.713280	 0.874068

	symmetry c1
}
set optking {
	frozen_dihedral = ("
		1 2 3 5
	")
}

ee = optimize('scf')
oeprop('DIPOLE', 'QUADRUPOLE', 'MULLIKEN_CHARGES')
f=open( 'psi4out.xyz', 'w' )
f.write( "11  " )
f.write( str(ee) + "\n" )
f.write( MOL.save_string_xyz() )
f.close()
--------------------------------------------------------------------------

    Molecular point group: c1
  Charge       = 0
  Multiplicity = 1
  Basis Set: 6-31G*
  Basis Set:
  @DF-RHF Final Energy:  -266.82658743546222
    Total Energy =                       -266.8265874354622724
    Molecular point group: c1
  Basis Set: 6-31G*
  Basis Set:
  Basis Set: 6-31G*
  Basis Set:
  @DF-RHF Final Energy:  -266.82525611591444
    Total Energy =                       -266.8252561159146126
  Basis Set: 6-31G*
  Basis Set:
  Basis Set: 6-31G*
  Basis Set:
  @DF-RHF Final Energy:  -266.82780101630544
    Total Energy =                       -266.8278010163052159
  Basis Set: 6-31G*
  Basis Set:
  Basis Set: 6-31G*
  Basis Set:
  @DF-RHF Final Energy:  -266.82820296012926
    Total Energy =                       -266.8282029601294880
  Basis Set: 6-31G*
  Basis Set:
  Basis Set: 6-31G*
  Basis Set:
  @DF-RHF Final Energy:  -266.82820755821223
    Total Energy =                       -266.8282075582121706
  Basis Set: 6-31G*
  Basis Set:
  Charge       = 0
  Multiplicity = 1
  Basis Set: 6-31G*
  Basis Set:

    Orbital Energies (a.u.)
    -----------------------

    Doubly Occupied:

       1A    -20.597417     2A    -20.561959     3A    -11.382278
       4A    -11.244435     5A    -11.220721     6A     -1.462489
       7A     -1.367976     8A     -1.063636     9A     -0.911559
      10A     -0.803691    11A     -0.708826    12A     -0.678584
      13A     -0.657915    14A     -0.611596    15A     -0.568202
      16A     -0.527383    17A     -0.522890    18A     -0.501852
      19A     -0.487915    20A     -0.445958

  @DF-RHF Final Energy:  -266.82820801000025

   => Energetics <=

    Nuclear Repulsion Energy =            179.0645408257829843
    One-Electron Energy =                -719.1309341393493924
    Two-Electron Energy =                 273.2381853035663539
    DFT Exchange-Correlation Energy =       0.0000000000000000
    Empirical Dispersion Energy =           0.0000000000000000
    PCM Polarization Energy =               0.0000000000000000
    EFP Energy =                            0.0000000000000000
    Total Energy =                       -266.8282080100000826
    Molecular point group: c1
  Basis Set: 6-31G*
  Basis Set:

  -Total Gradient:
     Atom            X                  Y                   Z
    ------   -----------------  -----------------  -----------------
       1       -0.004440714274    -0.006876160513     0.003416039541
       2        0.005250500467     0.008616730449    -0.007883919315
       3       -0.000267372621    -0.001669290703     0.012265550507
       4        0.000009263518     0.000022302107     0.000061302824
       5       -0.000562659127    -0.000091046764    -0.007819126412
       6       -0.000001258798    -0.000005678520    -0.000017641003
       7        0.000004088389     0.000003133299    -0.000016952711
       8        0.000002215588    -0.000000865478    -0.000015189920
       9        0.000003508797    -0.000000487239    -0.000000761088
      10        0.000001663113     0.000000674196     0.000002981001
      11        0.000000764941     0.000000689167     0.000007716576

  **** Optimization is complete! (in 6 steps) ****
    Final optimized geometry and variables:
    Molecular point group: c1

    Geometry (in Angstrom), charge = 0, multiplicity = 1:

    H            2.125873981354    -0.609430155201     0.754786195469
    O            1.614137809457    -0.674781984440    -0.042664748137
    C            0.490799901845     0.086372063603     0.026639020599
    C           -0.766182382506    -0.745341163232    -0.000049094932
    O            0.529329214844     1.266671963135     0.011924063942
    C           -2.043553236680     0.083176892002    -0.037613987693
    H           -0.691482814877    -1.403347639732    -0.861102740779
    H           -0.741545185668    -1.399142216464     0.868135212740
    H           -2.070173917038     0.715324052425    -0.916821487503
    H           -2.911597099727    -0.566844391314    -0.057443298621
    H           -2.118281800506     0.725576038043     0.831584702781

  Mulliken Charges: (a.u.)
   Center  Symbol    Alpha    Beta     Spin     Total
       1     H     0.26556  0.26556  0.00000  0.46888
       2     O     4.36695  4.36695  0.00000 -0.73390
       3     C     2.63272  2.63272  0.00000  0.73457
       4     C     3.20676  3.20676  0.00000 -0.41351
       5     O     4.25025  4.25025  0.00000 -0.50050
       6     C     3.23985  3.23985  0.00000 -0.47969
       7     H     0.39639  0.39639  0.00000  0.20722
       8     H     0.40591  0.40591  0.00000  0.18818
       9     H     0.40812  0.40812  0.00000  0.18375
      10     H     0.41685  0.41685  0.00000  0.16630
      11     H     0.41065  0.41065  0.00000  0.17870

   Total alpha = 20.00000, Total beta = 20.00000, Total charge =  0.00000
