  ==> Input File <==

--------------------------------------------------------------------------
set {
	reference rhf
	basis cc-pvtz
}

set_num_threads( 4 )
memory 2 gb

molecule MOL {
0 1

H	 -2.228978	 1.172681	 2.213577
O	 -1.313473	 1.047255	 2.388421
C	 -0.564950	 1.429321	 1.276052
C	 -0.793473	 0.591216	 0.050087
H	 0.476250	 1.357958	 1.567792
H	 -0.745909	 2.473269	 1.026801
C	 -1.534243	 -0.493009	 -0.013340
H	 -0.286908	 0.941685	 -0.834114
H	 -1.101195	 -1.466332	 -0.144046
H	 -2.604242	 -0.437780	 0.050785

	symmetry c1
}
set optking {
	frozen_dihedral = ("
		3 4 7 9
	")
}

ee = optimize('scf')
oeprop('DIPOLE', 'QUADRUPOLE', 'MULLIKEN_CHARGES')
f=open( 'psi4out.xyz', 'w' )
f.write( "10  " )
f.write( str(ee) + "\n" )
f.write( MOL.save_string_xyz() )
f.close()
--------------------------------------------------------------------------

    Molecular point group: c1
  Charge       = 0
  Multiplicity = 1
  Basis Set: CC-PVTZ
  Basis Set:
  @DF-RHF Final Energy:  -191.88750881651120
    Total Energy =                       -191.8875088165109446
    Molecular point group: c1
  Basis Set: CC-PVTZ
  Basis Set:
  Basis Set: CC-PVTZ
  Basis Set:
  @DF-RHF Final Energy:  -191.91871844570392
    Total Energy =                       -191.9187184457040019
  Basis Set: CC-PVTZ
  Basis Set:
  Basis Set: CC-PVTZ
  Basis Set:
  @DF-RHF Final Energy:  -191.93989675931428
    Total Energy =                       -191.9398967593143084
  Basis Set: CC-PVTZ
  Basis Set:
  Basis Set: CC-PVTZ
  Basis Set:
  @DF-RHF Final Energy:  -191.95257805473170
    Total Energy =                       -191.9525780547318163
  Basis Set: CC-PVTZ
  Basis Set:
  @DF-RHF Final Energy:  -191.95347716630090
    Total Energy =                       -191.9534771663009280
  @DF-RHF Final Energy:  -191.95359049685311
    Total Energy =                       -191.9535904968532805
  @DF-RHF Final Energy:  -191.95357979254231
    Total Energy =                       -191.9535797925423708
  @DF-RHF Final Energy:  -191.95361512260178
    Total Energy =                       -191.9536151226017466
  @DF-RHF Final Energy:  -191.90810610120505
    Total Energy =                       -191.9081061012051919
  @DF-RHF Final Energy:  -191.94124346978202
    Total Energy =                       -191.9412434697818526
  @DF-RHF Final Energy:  -191.95257875242675
    Total Energy =                       -191.9525787524267741
  @DF-RHF Final Energy:  -191.95358573233671
    Total Energy =                       -191.9535857323366486
  @DF-RHF Final Energy:  -191.95362270073156
    Total Energy =                       -191.9536227007316711
  @DF-RHF Final Energy:  -191.95363740314963
    Total Energy =                       -191.9536374031494574
  @DF-RHF Final Energy:  -191.95305920573389
    Total Energy =                       -191.9530592057338367
  @DF-RHF Final Energy:  -191.95362871432579
    Total Energy =                       -191.9536287143257596
  @DF-RHF Final Energy:  -191.95363179263404
    Total Energy =                       -191.9536317926339564
  @DF-RHF Final Energy:  -191.95363168214001
    Total Energy =                       -191.9536316821401272
  @DF-RHF Final Energy:  -191.95363107619039
    Total Energy =                       -191.9536310761905611
  @DF-RHF Final Energy:  -191.95044237255462
    Total Energy =                       -191.9504423725547326
  @DF-RHF Final Energy:  -191.95350887915316
    Total Energy =                       -191.9535088791531336
  @DF-RHF Final Energy:  -191.95350949856987
    Total Energy =                       -191.9535094985699288
  @DF-RHF Final Energy:  -191.95351000056047
    Total Energy =                       -191.9535100005604704
  @DF-RHF Final Energy:  -191.95349474547874
    Total Energy =                       -191.9534947454786220
  @DF-RHF Final Energy:  -191.95349662323565
    Total Energy =                       -191.9534966232357647
  @DF-RHF Final Energy:  -191.95350096206471
    Total Energy =                       -191.9535009620647656
  @DF-RHF Final Energy:  -191.95350907065841
    Total Energy =                       -191.9535090706583560
  @DF-RHF Final Energy:  -191.95353795699918
    Total Energy =                       -191.9535379569992415
  @DF-RHF Final Energy:  -191.95356265911047
    Total Energy =                       -191.9535626591105029
  @DF-RHF Final Energy:  -191.95356839671678
    Total Energy =                       -191.9535683967168040
  @DF-RHF Final Energy:  -191.95356628551662
    Total Energy =                       -191.9535662855167004
  @DF-RHF Final Energy:  -191.95356418424217
    Total Energy =                       -191.9535641842423104
  @DF-RHF Final Energy:  -191.95354256102721
    Total Energy =                       -191.9535425610273478
  @DF-RHF Final Energy:  -191.95356973417429
    Total Energy =                       -191.9535697341742662
  @DF-RHF Final Energy:  -191.95356817430962
    Total Energy =                       -191.9535681743097371
  @DF-RHF Final Energy:  -191.95354919725088
    Total Energy =                       -191.9535491972507657
  Basis Set: CC-PVTZ
  Basis Set:
  @DF-RHF Final Energy:  -191.95356960090191
    Total Energy =                       -191.9535696009020285
  Basis Set: CC-PVTZ
  Basis Set:
  Basis Set: CC-PVTZ
  Basis Set:
  @DF-RHF Final Energy:  -191.95356789679772
    Total Energy =                       -191.9535678967977219
  Basis Set: CC-PVTZ
  Basis Set:
  Basis Set: CC-PVTZ
  Basis Set:
  @DF-RHF Final Energy:  -191.95315019599303
    Total Energy =                       -191.9531501959930324
  Basis Set: CC-PVTZ
  Basis Set:
  Charge       = 0
  Multiplicity = 1
  Basis Set: CC-PVTZ
  Basis Set:

    Orbital Energies (a.u.)
    -----------------------

    Doubly Occupied:

       1A    -20.557791     2A    -11.288383     3A    -11.237420
       4A    -11.216425     5A     -1.377605     6A     -1.063281
       7A     -0.934178     8A     -0.773082     9A     -0.695780
      10A     -0.653225    11A     -0.624976    12A     -0.581071
      13A     -0.538399    14A     -0.488268    15A     -0.457354
      16A     -0.349336

  @DF-RHF Final Energy:  -191.95356888943070

   => Energetics <=

    Nuclear Repulsion Energy =            118.6365889163591447
    One-Electron Energy =                -495.5071609662493302
    Two-Electron Energy =                 184.9170031604595579
    DFT Exchange-Correlation Energy =       0.0000000000000000
    Empirical Dispersion Energy =           0.0000000000000000
    PCM Polarization Energy =               0.0000000000000000
    EFP Energy =                            0.0000000000000000
    Total Energy =                       -191.9535688894306418
    Molecular point group: c1
  Basis Set: CC-PVTZ
  Basis Set:

  -Total Gradient:
     Atom            X                  Y                   Z
    ------   -----------------  -----------------  -----------------
       1        0.001382459400    -0.000211487435    -0.000560068651
       2       -0.002130989481     0.000374853841     0.002385898705
       3        0.028551289585    -0.012517777334     0.001882540658
       4       -0.040380327366     0.022752805050     0.014238855880
       5       -0.000195702106    -0.000350369551    -0.000817032184
       6       -0.000924692497    -0.001700951496     0.000420214370
       7        0.004630742268    -0.000052266774    -0.056410348680
       8       -0.000211129411    -0.000169821721    -0.000245157291
       9        0.008377124579    -0.008897592763     0.040194775905
      10        0.000901225029     0.000772608184    -0.001089678709

    Molecular point group: c1

    Geometry (in Angstrom), charge = 0, multiplicity = 1:

    H           -1.157369521179     0.799967600671     1.275451090438
    O           -0.312049774491     0.408067114075     1.399114365035
    C            0.516696968525     0.705617225536     0.328411245350
    C            0.208267722952    -0.021266311487    -0.960227256676
    H            1.501038559157     0.347894087963     0.566596825137
    H            0.585371283157     1.783767563024     0.203691534179
    C           -0.385246712760    -1.194822181888    -1.112231110529
    H            0.978535081975     0.214053980525    -1.684565684422
    H            0.096644221926    -2.098927494430    -1.445663268557
    H           -1.096727028276    -1.444983031012    -0.354400485924

  Mulliken Charges: (a.u.)
   Center  Symbol    Alpha    Beta     Spin     Total
       1     H     0.39133  0.39133  0.00000  0.21734
       2     O     4.19580  4.19580  0.00000 -0.39160
       3     C     2.95539  2.95539  0.00000  0.08921
       4     C     3.08732  3.08732  0.00000 -0.17465
       5     H     0.44699  0.44699  0.00000  0.10602
       6     H     0.46133  0.46133  0.00000  0.07733
       7     C     3.16190  3.16190  0.00000 -0.32381
       8     H     0.43571  0.43571  0.00000  0.12859
       9     H     0.42097  0.42097  0.00000  0.15806
      10     H     0.44325  0.44325  0.00000  0.11350

   Total alpha = 16.00000, Total beta = 16.00000, Total charge =  0.00000
