  ==> Input File <==

--------------------------------------------------------------------------
set {
	reference rhf
	basis 6-31G*
}

set_num_threads( 1 )
memory 2 gb

molecule MOL {
0 1

H	 -2.829228	 -0.107664	 2.050633
O	 -1.981620	 0.172419	 1.736167
C	 -2.026376	 0.340750	 0.341611
C	 -0.673256	 0.843270	 -0.132153
H	 -2.258742	 -0.603776	 -0.147075
H	 -2.804175	 1.052405	 0.067331
C	 0.486613	 -0.083066	 0.235839
H	 -0.715586	 0.970948	 -1.210718
H	 -0.508072	 1.829858	 0.297090
C	 1.840406	 0.433480	 -0.254303
H	 0.300215	 -1.068318	 -0.178947
H	 0.519509	 -0.203625	 1.318070
C	 3.000220	 -0.489290	 0.118523
H	 1.809207	 0.553576	 -1.335192
H	 2.021860	 1.424500	 0.157276
H	 2.864959	 -1.479103	 -0.307933
H	 3.946603	 -0.099227	 -0.243630
H	 3.080049	 -0.602997	 1.196117

	symmetry c1
}
set optking {
	frozen_dihedral = ("
		14 10 7 11,
		10 7 4 8,
		1 2 3 4
	")
}

ee = energy('scf')
oeprop('DIPOLE', 'QUADRUPOLE', 'MULLIKEN_CHARGES')
f=open( 'psi4out.xyz', 'w' )
f.write( "18  " )
f.write( str(ee) + "\n" )
f.write( MOL.save_string_xyz() )
f.close()
--------------------------------------------------------------------------

    Molecular point group: c1

    Geometry (in Angstrom), charge = 0, multiplicity = 1:

       Center              X                  Y                   Z               Mass
    ------------   -----------------  -----------------  -----------------  -----------------
           H         -2.889445674656    -0.300414614268     1.674193810426     1.007825032070
           O         -2.041837674656    -0.020331614268     1.359727810426    15.994914619560
           C         -2.086593674656     0.147999385732    -0.034828189574    12.000000000000
           C         -0.733473674656     0.650519385732    -0.508592189574    12.000000000000
           H         -2.318959674656    -0.796526614268    -0.523514189574     1.007825032070
           H         -2.864392674656     0.859654385732    -0.309108189574     1.007825032070
           C          0.426395325344    -0.275816614268    -0.140600189574    12.000000000000
           H         -0.775803674656     0.778197385732    -1.587157189574     1.007825032070
           H         -0.568289674656     1.637107385732    -0.079349189574     1.007825032070
           C          1.780188325344     0.240729385732    -0.630742189574    12.000000000000
           H          0.239997325344    -1.261068614268    -0.555386189574     1.007825032070
           H          0.459291325344    -0.396375614268     0.941630810426     1.007825032070
           C          2.940002325344    -0.682040614268    -0.257916189574    12.000000000000
           H          1.748989325344     0.360825385732    -1.711631189574     1.007825032070
           H          1.961642325344     1.231749385732    -0.219163189574     1.007825032070
           H          2.804741325344    -1.671853614268    -0.684372189574     1.007825032070
           H          3.886385325344    -0.291977614268    -0.620069189574     1.007825032070
           H          3.019831325344    -0.795747614268     0.819677810426     1.007825032070

  Charge       = 0
  Multiplicity = 1
  Basis Set: 6-31G*
  Basis Set:

    Orbital Energies (a.u.)
    -----------------------

    Doubly Occupied:

       1A    -20.553130     2A    -11.268118     3A    -11.211965
       4A    -11.210189     5A    -11.205473     6A    -11.204045
       7A     -1.359928     8A     -1.074154     9A     -1.008432
      10A     -0.912864    11A     -0.817357    12A     -0.783024
      13A     -0.704362    14A     -0.644575    15A     -0.622984
      16A     -0.579136    17A     -0.571109    18A     -0.556578
      19A     -0.521413    20A     -0.502265    21A     -0.488112
      22A     -0.466530    23A     -0.456790    24A     -0.445784
      25A     -0.429955

  @DF-RHF Final Energy:  -271.17971057075590

   => Energetics <=

    Nuclear Repulsion Energy =            249.3784661330166443
    One-Electron Energy =                -861.9196219008674689
    Two-Electron Energy =                 341.3614451970953496
    DFT Exchange-Correlation Energy =       0.0000000000000000
    Empirical Dispersion Energy =           0.0000000000000000
    PCM Polarization Energy =               0.0000000000000000
    EFP Energy =                            0.0000000000000000
    Total Energy =                       -271.1797105707554465

  Mulliken Charges: (a.u.)
   Center  Symbol    Alpha    Beta     Spin     Total
       1     H     0.28050  0.28050  0.00000  0.43900
       2     O     4.36952  4.36952  0.00000 -0.73904
       3     C     2.99709  2.99709  0.00000  0.00583
       4     C     3.16085  3.16085  0.00000 -0.32169
       5     H     0.43243  0.43243  0.00000  0.13513
       6     H     0.42943  0.42943  0.00000  0.14114
       7     C     3.15229  3.15229  0.00000 -0.30458
       8     H     0.42391  0.42391  0.00000  0.15218
       9     H     0.41675  0.41675  0.00000  0.16651
      10     C     3.15178  3.15178  0.00000 -0.30356
      11     H     0.42673  0.42673  0.00000  0.14653
      12     H     0.40743  0.40743  0.00000  0.18513
      13     C     3.23883  3.23883  0.00000 -0.47766
      14     H     0.42570  0.42570  0.00000  0.14859
      15     H     0.42274  0.42274  0.00000  0.15452
      16     H     0.42259  0.42259  0.00000  0.15482
      17     H     0.42053  0.42053  0.00000  0.15895
      18     H     0.42090  0.42090  0.00000  0.15821

   Total alpha = 25.00000, Total beta = 25.00000, Total charge =  0.00000
