  ==> Input File <==

--------------------------------------------------------------------------
set {
	reference rhf
	basis 6-31G*
}

set_num_threads( 1 )
memory 2 gb

molecule MOL {
0 1

H	 -2.788440	 1.677263	 1.668116
C	 -2.561336	 0.672695	 1.368235
C	 -1.491076	 0.431329	 0.646926
H	 -3.224471	 -0.115734	 1.670795
O	 -1.180634	 -0.819263	 0.215062
H	 -0.810518	 1.205708	 0.339724
C	 0.051604	 -1.018856	 -0.387932
C	 1.043764	 0.054862	 -0.001873
H	 -0.017620	 -1.041351	 -1.469781
H	 0.437898	 -1.966374	 -0.042284
F	 2.212596	 -0.199467	 -0.571921
F	 0.652529	 1.252447	 -0.405055
F	 1.230877	 0.110694	 1.300533

	symmetry c1
}
set optking {
	frozen_dihedral = ("
		11 8 7 9,
		6 3 2 1,
		6 3 5 7
	")
}

ee = energy('scf')
oeprop('DIPOLE', 'QUADRUPOLE', 'MULLIKEN_CHARGES')
f=open( 'psi4out.xyz', 'w' )
f.write( "13  " )
f.write( str(ee) + "\n" )
f.write( MOL.save_string_xyz() )
f.close()
--------------------------------------------------------------------------

    Molecular point group: c1

    Geometry (in Angstrom), charge = 0, multiplicity = 1:

       Center              X                  Y                   Z               Mass
    ------------   -----------------  -----------------  -----------------  -----------------
           H         -2.923294200809     1.594410040418     1.419961224060     1.007825032070
           C         -2.696190200809     0.589842040418     1.120080224060    12.000000000000
           C         -1.625930200809     0.348476040418     0.398771224060    12.000000000000
           H         -3.359325200809    -0.198586959582     1.422640224060     1.007825032070
           O         -1.315488200809    -0.902115959582    -0.033092775940    15.994914619560
           H         -0.945372200809     1.122855040418     0.091569224060     1.007825032070
           C         -0.083250200809    -1.101708959582    -0.636086775940    12.000000000000
           C          0.908909799191    -0.027990959582    -0.250027775940    12.000000000000
           H         -0.152474200809    -1.124203959582    -1.717935775940     1.007825032070
           H          0.303043799191    -2.049226959582    -0.290438775940     1.007825032070
           F          2.077741799191    -0.282319959582    -0.820075775940    18.998403224000
           F          0.517674799191     1.169594040418    -0.653209775940    18.998403224000
           F          1.096022799191     0.027841040418     1.052378224060    18.998403224000

  Charge       = 0
  Multiplicity = 1
  Basis Set: 6-31G*
  Basis Set:

    Orbital Energies (a.u.)
    -----------------------

    Doubly Occupied:

       1A    -26.362517     2A    -26.354931     3A    -26.354608
       4A    -20.602029     5A    -11.517218     6A    -11.319972
       7A    -11.279630     8A    -11.204633     9A     -1.759292
      10A     -1.660623    11A     -1.651280    12A     -1.434476
      13A     -1.082818    14A     -1.016032    15A     -0.937003
      16A     -0.864325    17A     -0.848194    18A     -0.836633
      19A     -0.767643    20A     -0.733599    21A     -0.720178
      22A     -0.711268    23A     -0.687438    24A     -0.663385
      25A     -0.660766    26A     -0.659741    27A     -0.643916
      28A     -0.581166    29A     -0.553249    30A     -0.525429
      31A     -0.491489    32A     -0.341185

  @DF-RHF Final Energy:  -527.50775216013108

   => Energetics <=

    Nuclear Repulsion Energy =            424.8125885490970290
    One-Electron Energy =               -1572.9872950192041117
    Two-Electron Energy =                 620.6669543099758357
    DFT Exchange-Correlation Energy =       0.0000000000000000
    Empirical Dispersion Energy =           0.0000000000000000
    PCM Polarization Energy =               0.0000000000000000
    EFP Energy =                            0.0000000000000000
    Total Energy =                       -527.5077521601313038

  Mulliken Charges: (a.u.)
   Center  Symbol    Alpha    Beta     Spin     Total
       1     H     0.40912  0.40912  0.00000  0.18175
       2     C     3.24098  3.24098  0.00000 -0.48196
       3     C     2.92519  2.92519  0.00000  0.14962
       4     H     0.40694  0.40694  0.00000  0.18612
       5     O     4.31363  4.31363  0.00000 -0.62725
       6     H     0.36577  0.36577  0.00000  0.26846
       7     C     3.02347  3.02347  0.00000 -0.04694
       8     C     2.48541  2.48541  0.00000  1.02918
       9     H     0.40294  0.40294  0.00000  0.19412
      10     H     0.39462  0.39462  0.00000  0.21076
      11     F     4.68112  4.68112  0.00000 -0.36223
      12     F     4.67760  4.67760  0.00000 -0.35520
      13     F     4.67322  4.67322  0.00000 -0.34643

   Total alpha = 32.00000, Total beta = 32.00000, Total charge = -0.00000
