  ==> Input File <==

--------------------------------------------------------------------------
set {
	reference rhf
	basis 6-31G*
}

set_num_threads( 1 )
memory 2 gb

molecule MOL {
0 1

H	 -3.261111	 -0.295142	 1.469456
C	 -3.306842	 -0.277400	 0.373456
C	 -2.660244	 0.921717	 -0.272021
O	 -3.838538	 -1.161155	 -0.216482
C	 -2.886560	 0.966836	 -1.789585
H	 -3.034994	 1.815275	 0.213597
H	 -1.591626	 0.855718	 -0.071135
C	 -4.348101	 1.197240	 -2.182154
H	 -2.272023	 1.759708	 -2.205499
H	 -2.528155	 0.040538	 -2.235986
C	 -4.556930	 1.251360	 -3.696841
H	 -4.694684	 2.126296	 -1.734290
H	 -4.971525	 0.410117	 -1.762252
C	 -6.017057	 1.497936	 -4.085658
H	 -3.924309	 2.031965	 -4.111786
H	 -4.220182	 0.315501	 -4.140859
C	 -6.289266	 1.478118	 -5.594161
H	 -6.342945	 2.452236	 -3.674803
H	 -6.635908	 0.737817	 -3.613475
C	 -5.629185	 2.616299	 -6.374198
H	 -7.364164	 1.527667	 -5.749364
H	 -5.967658	 0.523594	 -6.005710
H	 -5.920235	 3.583880	 -5.973767
H	 -4.546414	 2.556888	 -6.341777
H	 -5.924827	 2.589280	 -7.418641

	symmetry c1
}
set optking {
	frozen_dihedral = ("
		6 3 5 8,
		3 5 8 12,
		12 8 11 14,
		8 11 14 18,
		20 17 14 18
	")
}

ee = energy('scf')
oeprop('DIPOLE', 'QUADRUPOLE', 'MULLIKEN_CHARGES')
f=open( 'psi4out.xyz', 'w' )
f.write( "25  " )
f.write( str(ee) + "\n" )
f.write( MOL.save_string_xyz() )
f.close()
--------------------------------------------------------------------------

    Molecular point group: c1

    Geometry (in Angstrom), charge = 0, multiplicity = 1:

       Center              X                  Y                   Z               Mass
    ------------   -----------------  -----------------  -----------------  -----------------
           H          1.137112224237    -1.235386673903     4.128604100531     1.007825032070
           C          1.091381224237    -1.217644673903     3.032604100531    12.000000000000
           C          1.737979224237    -0.018527673903     2.387127100531    12.000000000000
           O          0.559685224237    -2.101399673903     2.442666100531    15.994914619560
           C          1.511663224237     0.026591326097     0.869563100531    12.000000000000
           H          1.363229224237     0.875030326097     2.872745100531     1.007825032070
           H          2.806597224237    -0.084526673903     2.588013100531     1.007825032070
           C          0.050122224237     0.256995326097     0.476994100531    12.000000000000
           H          2.126200224237     0.819463326097     0.453649100531     1.007825032070
           H          1.870068224237    -0.899706673903     0.423162100531     1.007825032070
           C         -0.158706775763     0.311115326097    -1.037692899469    12.000000000000
           H         -0.296460775763     1.186051326097     0.924858100531     1.007825032070
           H         -0.573301775763    -0.530127673903     0.896896100531     1.007825032070
           C         -1.618833775763     0.557691326097    -1.426509899469    12.000000000000
           H          0.473914224237     1.091720326097    -1.452637899469     1.007825032070
           H          0.178041224237    -0.624743673903    -1.481710899469     1.007825032070
           C         -1.891042775763     0.537873326097    -2.935012899469    12.000000000000
           H         -1.944721775763     1.511991326097    -1.015654899469     1.007825032070
           H         -2.237684775763    -0.202427673903    -0.954326899469     1.007825032070
           C         -1.230961775763     1.676054326097    -3.715049899469    12.000000000000
           H         -2.965940775763     0.587422326097    -3.090215899469     1.007825032070
           H         -1.569434775763    -0.416650673903    -3.346561899469     1.007825032070
           H         -1.522011775763     2.643635326097    -3.314618899469     1.007825032070
           H         -0.148190775763     1.616643326097    -3.682628899469     1.007825032070
           H         -1.526603775763     1.649035326097    -4.759492899469     1.007825032070

  Charge       = 0
  Multiplicity = 1
  Basis Set: 6-31G*
  Basis Set:

    Orbital Energies (a.u.)
    -----------------------

    Doubly Occupied:

       1A    -20.565099     2A    -11.329331     3A    -11.237303
       4A    -11.221421     5A    -11.212099     6A    -11.210208
       7A    -11.209822     8A    -11.209368     9A    -11.205844
      10A     -1.406211    11A     -1.093179    12A     -1.062752
      13A     -1.008383    14A     -0.939998    15A     -0.874359
      16A     -0.814693    17A     -0.775357    18A     -0.764329
      19A     -0.687425    20A     -0.646903    21A     -0.627753
      22A     -0.624830    23A     -0.605571    24A     -0.586349
      25A     -0.559498    26A     -0.545324    27A     -0.531441
      28A     -0.517880    29A     -0.501304    30A     -0.495903
      31A     -0.480146    32A     -0.470030    33A     -0.456537
      34A     -0.451180    35A     -0.434249    36A     -0.410516

  @DF-RHF Final Energy:  -387.12230541088127

   => Energetics <=

    Nuclear Repulsion Energy =            445.8803548267427459
    One-Electron Energy =               -1408.4603239472573932
    Two-Electron Energy =                 575.4576637096317882
    DFT Exchange-Correlation Energy =       0.0000000000000000
    Empirical Dispersion Energy =           0.0000000000000000
    PCM Polarization Energy =               0.0000000000000000
    EFP Energy =                            0.0000000000000000
    Total Energy =                       -387.1223054108828592

  Mulliken Charges: (a.u.)
   Center  Symbol    Alpha    Beta     Spin     Total
       1     H     0.42735  0.42735  0.00000  0.14530
       2     C     2.83592  2.83592  0.00000  0.32815
       3     C     3.21482  3.21482  0.00000 -0.42964
       4     O     4.23735  4.23735  0.00000 -0.47470
       5     C     3.15259  3.15259  0.00000 -0.30517
       6     H     0.40733  0.40733  0.00000  0.18534
       7     H     0.40361  0.40361  0.00000  0.19279
       8     C     3.15830  3.15830  0.00000 -0.31661
       9     H     0.41999  0.41999  0.00000  0.16001
      10     H     0.41041  0.41041  0.00000  0.17919
      11     C     3.15416  3.15416  0.00000 -0.30833
      12     H     0.42860  0.42860  0.00000  0.14280
      13     H     0.40471  0.40471  0.00000  0.19057
      14     C     3.15280  3.15280  0.00000 -0.30561
      15     H     0.42404  0.42404  0.00000  0.15193
      16     H     0.42151  0.42151  0.00000  0.15698
      17     C     3.15238  3.15238  0.00000 -0.30477
      18     H     0.42560  0.42560  0.00000  0.14879
      19     H     0.42033  0.42033  0.00000  0.15935
      20     C     3.24093  3.24093  0.00000 -0.48187
      21     H     0.42143  0.42143  0.00000  0.15714
      22     H     0.42275  0.42275  0.00000  0.15450
      23     H     0.42301  0.42301  0.00000  0.15399
      24     H     0.42035  0.42035  0.00000  0.15931
      25     H     0.41971  0.41971  0.00000  0.16058

   Total alpha = 36.00000, Total beta = 36.00000, Total charge = -0.00000
