  ==> Input File <==

--------------------------------------------------------------------------
set {
	reference rhf
	basis 6-31G*
}

set_num_threads( 4 )
memory 2 gb

molecule MOL {
0 1

H	 2.591676	 2.013956	 0.335017
O	 3.341076	 1.666752	 -0.126416
C	 3.569581	 0.339145	 0.272707
C	 2.539767	 -0.640285	 -0.279495
H	 4.553106	 0.084646	 -0.100901
H	 3.608576	 0.269204	 1.359154
C	 1.115811	 -0.397273	 0.226630
H	 2.556196	 -0.582511	 -1.364741
H	 2.852081	 -1.648031	 -0.010655
C	 0.115918	 -1.429151	 -0.302766
H	 0.797950	 0.599468	 -0.066350
H	 1.109961	 -0.420744	 1.316472
C	 -1.311898	 -1.276689	 0.234297
H	 0.097951	 -1.385067	 -1.390231
H	 0.475914	 -2.423241	 -0.046077
C	 -2.034887	 -0.002175	 -0.209979
H	 -1.893284	 -2.136601	 -0.091828
H	 -1.293230	 -1.320262	 1.322226
C	 -3.488953	 0.054098	 0.263265
H	 -2.008965	 0.065018	 -1.296682
H	 -1.510458	 0.874663	 0.162086
C	 -4.211061	 1.328278	 -0.173416
H	 -4.025103	 -0.812604	 -0.117339
H	 -3.517429	 -0.022688	 1.348244
H	 -4.228263	 1.417755	 -1.255970
H	 -5.239137	 1.337437	 0.175309
H	 -3.720050	 2.212943	 0.222362

	symmetry c1
}
set optking {
	frozen_dihedral = ("
		14 10 7 4
	")
}

ee = optimize('scf')
oeprop('DIPOLE', 'QUADRUPOLE', 'MULLIKEN_CHARGES')
f=open( 'psi4out.xyz', 'w' )
f.write( "27  " )
f.write( str(ee) + "\n" )
f.write( MOL.save_string_xyz() )
f.close()
--------------------------------------------------------------------------

    Molecular point group: c1
  Charge       = 0
  Multiplicity = 1
  Basis Set: 6-31G*
  Basis Set:
  @DF-RHF Final Energy:  -388.28175562031873
    Total Energy =                       -388.2817556203183358
    Molecular point group: c1
  Basis Set: 6-31G*
  Basis Set:
  Basis Set: 6-31G*
  Basis Set:
  @DF-RHF Final Energy:  -388.28175291411520
    Total Energy =                       -388.2817529141152590
  Basis Set: 6-31G*
  Basis Set:
  Basis Set: 6-31G*
  Basis Set:
  @DF-RHF Final Energy:  -388.28175577939896
    Total Energy =                       -388.2817557793997594
  Basis Set: 6-31G*
  Basis Set:
  Charge       = 0
  Multiplicity = 1
  Basis Set: 6-31G*
  Basis Set:

    Orbital Energies (a.u.)
    -----------------------

    Doubly Occupied:

       1A    -20.552309     2A    -11.267061     3A    -11.219818
       4A    -11.217329     5A    -11.216154     6A    -11.215742
       7A    -11.215231     8A    -11.214356     9A    -11.209424
      10A     -1.359069    11A     -1.095261    12A     -1.061598
      13A     -1.011578    14A     -0.948545    15A     -0.888092
      16A     -0.819990    17A     -0.801626    18A     -0.778308
      19A     -0.693729    20A     -0.651856    21A     -0.638379
      22A     -0.614608    23A     -0.600262    24A     -0.583027
      25A     -0.580224    26A     -0.552524    27A     -0.541305
      28A     -0.531562    29A     -0.505293    30A     -0.493871
      31A     -0.485442    32A     -0.474277    33A     -0.469162
      34A     -0.461303    35A     -0.452128    36A     -0.441800
      37A     -0.422934

  @DF-RHF Final Energy:  -388.28175580034991

   => Energetics <=

    Nuclear Repulsion Energy =            459.7288947582497372
    One-Electron Energy =               -1437.4509378798875332
    Two-Electron Energy =                 589.4402873212875420
    DFT Exchange-Correlation Energy =       0.0000000000000000
    Empirical Dispersion Energy =           0.0000000000000000
    PCM Polarization Energy =               0.0000000000000000
    EFP Energy =                            0.0000000000000000
    Total Energy =                       -388.2817558003503109
    Molecular point group: c1
  Basis Set: 6-31G*
  Basis Set:

  -Total Gradient:
     Atom            X                  Y                   Z
    ------   -----------------  -----------------  -----------------
       1        0.000002051392    -0.000001439226     0.000001387204
       2        0.000007409989    -0.000004567218    -0.000004974619
       3       -0.000006373580     0.000001966688     0.000014065941
       4       -0.000012879105     0.000030790229    -0.000047888745
       5       -0.000002569147     0.000003486437    -0.000000465987
       6        0.000002685887     0.000001590112     0.000000913514
       7        0.000027989342    -0.000053680492     0.000055990050
       8       -0.000002310910     0.000001064449     0.000000905293
       9       -0.000002260825    -0.000000628226    -0.000002633760
      10       -0.000064333338     0.000071602882    -0.000014978397
      11        0.000004702244    -0.000004406413    -0.000004024584
      12       -0.000001867787     0.000003375472    -0.000001952798
      13       -0.000003124652     0.000000819929     0.000005290859
      14        0.000052757734    -0.000047961194    -0.000001864773
      15        0.000001702487    -0.000000476689    -0.000004043149
      16        0.000001610809     0.000000529341     0.000004089509
      17       -0.000001493295     0.000002724827     0.000002170184
      18        0.000000058934     0.000000992126    -0.000000128592
      19       -0.000002791344    -0.000003614697    -0.000003819277
      20        0.000003516528    -0.000001648449     0.000002087498
      21       -0.000004578513    -0.000000065151    -0.000000844587
      22        0.000001065002     0.000000882217     0.000000436772
      23       -0.000000955373    -0.000000918275    -0.000000614501
      24       -0.000000950278     0.000000456648    -0.000000697961
      25       -0.000000894954    -0.000001282333     0.000001993304
      26        0.000001259178    -0.000000165791     0.000000419643
      27        0.000000573580     0.000000572798    -0.000000818043

  **** Optimization is complete! (in 4 steps) ****
    Final optimized geometry and variables:
    Molecular point group: c1

    Geometry (in Angstrom), charge = 0, multiplicity = 1:

    H            2.593575002615     2.009144957547     0.346791846582
    O            3.342422128608     1.662027053169    -0.115615069175
    C            3.570021752106     0.333748279138     0.281664423317
    C            2.539184153278    -0.644083585967    -0.271467474529
    H            4.553109716406     0.079159108184    -0.092970367490
    H            3.609693658139     0.262256555889     1.367984732043
    C            1.115631456810    -0.400367755842     0.235358566462
    H            2.555253255592    -0.585023194931    -1.356635449347
    H            2.850703838302    -1.652429200149    -0.003962816584
    C            0.114776076759    -1.430945758331    -0.294715029026
    H            0.798805523427     0.596930699752    -0.056846585986
    H            1.109841608516    -0.424652985741     1.325176871948
    C           -1.312613900751    -1.278650869684     0.243515303121
    H            0.096433694865    -1.385894455922    -1.382142343631
    H            0.474580047089    -2.425481959809    -0.039424252303
    C           -2.036890824948    -0.005205698501    -0.201655945784
    H           -1.893776458813    -2.139284134633    -0.081046893174
    H           -1.292956393449    -1.320964104416     1.331474074521
    C           -3.490711129393     0.050369289063     0.272463487367
    H           -2.011664042282     0.060800311912    -1.288443532417
    H           -1.512998934551     0.872493959616     0.169104520137
    C           -4.214400290245     1.323056310639    -0.165916607013
    H           -4.026195702097    -0.817523227671    -0.106358794903
    H           -3.518454090386    -0.024605625764     1.357593466268
    H           -4.232551311065     1.410554438488    -1.248600984578
    H           -5.242204620814     1.331793522598     0.183594225907
    H           -3.723958724091     2.208912396617     0.227893591542

  Mulliken Charges: (a.u.)
   Center  Symbol    Alpha    Beta     Spin     Total
       1     H     0.27991  0.27991  0.00000  0.44017
       2     O     4.37092  4.37092  0.00000 -0.74185
       3     C     2.99738  2.99738  0.00000  0.00525
       4     C     3.16094  3.16094  0.00000 -0.32189
       5     H     0.41444  0.41444  0.00000  0.17113
       6     H     0.43205  0.43205  0.00000  0.13591
       7     C     3.16330  3.16330  0.00000 -0.32661
       8     H     0.41495  0.41495  0.00000  0.17010
       9     H     0.42433  0.42433  0.00000  0.15134
      10     C     3.15209  3.15209  0.00000 -0.30417
      11     H     0.42286  0.42286  0.00000  0.15427
      12     H     0.42544  0.42544  0.00000  0.14912
      13     C     3.15355  3.15355  0.00000 -0.30710
      14     H     0.42161  0.42161  0.00000  0.15678
      15     H     0.42149  0.42149  0.00000  0.15701
      16     C     3.15231  3.15231  0.00000 -0.30462
      17     H     0.42121  0.42121  0.00000  0.15758
      18     H     0.42428  0.42428  0.00000  0.15144
      19     C     3.15125  3.15125  0.00000 -0.30249
      20     H     0.42355  0.42355  0.00000  0.15291
      21     H     0.42392  0.42392  0.00000  0.15216
      22     C     3.23916  3.23916  0.00000 -0.47833
      23     H     0.42283  0.42283  0.00000  0.15434
      24     H     0.42331  0.42331  0.00000  0.15338
      25     H     0.42142  0.42142  0.00000  0.15716
      26     H     0.41921  0.41921  0.00000  0.16159
      27     H     0.42228  0.42228  0.00000  0.15543

   Total alpha = 37.00000, Total beta = 37.00000, Total charge =  0.00000
