  ==> Input File <==

--------------------------------------------------------------------------
set {
	reference rhf
	basis 6-31G*
}

set_num_threads( 1 )
memory 2 gb

molecule MOL {
0 1

O	 -2.042549	 -1.228399	 -0.269030
C	 -1.653912	 -0.146171	 0.050137
C	 -0.332303	 0.024011	 0.778412
C	 -2.438579	 1.106236	 -0.272369
C	 0.845713	 -0.001731	 -0.208243
H	 -0.323783	 0.953829	 1.340327
H	 -0.235459	 -0.796807	 1.480410
C	 2.032183	 -0.814345	 0.312312
H	 1.172340	 1.015326	 -0.417987
H	 0.499682	 -0.417771	 -1.149685
C	 3.201674	 -0.849095	 -0.670689
H	 2.367784	 -0.398064	 1.259681
H	 1.705470	 -1.830103	 0.522220
H	 3.573210	 0.151113	 -0.874642
H	 2.904479	 -1.290654	 -1.617338
H	 4.026642	 -1.434196	 -0.276848
H	 -3.277823	 0.863061	 -0.908988
H	 -1.806773	 1.843019	 -0.759671
H	 -2.802853	 1.554979	 0.648059

	symmetry c1
}
set optking {
	frozen_dihedral = ("
		11 8 5 9,
		5 3 2 4
	")
}

ee = energy('scf')
oeprop('DIPOLE', 'QUADRUPOLE', 'MULLIKEN_CHARGES')
f=open( 'psi4out.xyz', 'w' )
f.write( "19  " )
f.write( str(ee) + "\n" )
f.write( MOL.save_string_xyz() )
f.close()
--------------------------------------------------------------------------

    Molecular point group: c1

    Geometry (in Angstrom), charge = 0, multiplicity = 1:

       Center              X                  Y                   Z               Mass
    ------------   -----------------  -----------------  -----------------  -----------------
           O         -1.993101808592    -0.952585237365    -0.217188467365    15.994914619560
           C         -1.604464808592     0.129642762635     0.101978532635    12.000000000000
           C         -0.282855808592     0.299824762635     0.830253532635    12.000000000000
           C         -2.389131808592     1.382049762635    -0.220527467365    12.000000000000
           C          0.895160191408     0.274082762635    -0.156401467365    12.000000000000
           H         -0.274335808592     1.229642762635     1.392168532635     1.007825032070
           H         -0.186011808592    -0.520993237365     1.532251532635     1.007825032070
           C          2.081630191408    -0.538531237365     0.364153532635    12.000000000000
           H          1.221787191408     1.291139762635    -0.366145467365     1.007825032070
           H          0.549129191408    -0.141957237365    -1.097843467365     1.007825032070
           C          3.251121191408    -0.573281237365    -0.618847467365    12.000000000000
           H          2.417231191408    -0.122250237365     1.311522532635     1.007825032070
           H          1.754917191408    -1.554289237365     0.574061532635     1.007825032070
           H          3.622657191408     0.426926762635    -0.822800467365     1.007825032070
           H          2.953926191408    -1.014840237365    -1.565496467365     1.007825032070
           H          4.076089191408    -1.158382237365    -0.225006467365     1.007825032070
           H         -3.228375808592     1.138874762635    -0.857146467365     1.007825032070
           H         -1.757325808592     2.118832762635    -0.707829467365     1.007825032070
           H         -2.753405808592     1.830792762635     0.699900532635     1.007825032070

  Charge       = 0
  Multiplicity = 1
  Basis Set: 6-31G*
  Basis Set:

    Orbital Energies (a.u.)
    -----------------------

    Doubly Occupied:

       1A    -20.546963     2A    -11.324730     3A    -11.229378
       4A    -11.228330     5A    -11.228039     6A    -11.223056
       7A    -11.213013     8A     -1.393128     9A     -1.090484
      10A     -1.028655    11A     -0.983169    12A     -0.888673
      13A     -0.806666    14A     -0.734085    15A     -0.663738
      16A     -0.639679    17A     -0.624072    18A     -0.611987
      19A     -0.581479    20A     -0.574617    21A     -0.553899
      22A     -0.529548    23A     -0.523162    24A     -0.495231
      25A     -0.479067    26A     -0.469923    27A     -0.467862
      28A     -0.396844

  @DF-RHF Final Energy:  -309.06065839038098

   => Energetics <=

    Nuclear Repulsion Energy =            302.2876710978148935
    One-Electron Energy =               -1017.6378759526148770
    Two-Electron Energy =                 406.2895464644190042
    DFT Exchange-Correlation Energy =       0.0000000000000000
    Empirical Dispersion Energy =           0.0000000000000000
    PCM Polarization Energy =               0.0000000000000000
    EFP Energy =                            0.0000000000000000
    Total Energy =                       -309.0606583903810360

  Mulliken Charges: (a.u.)
   Center  Symbol    Alpha    Beta     Spin     Total
       1     O     4.26239  4.26239  0.00000 -0.52477
       2     C     2.74120  2.74120  0.00000  0.51760
       3     C     3.20077  3.20077  0.00000 -0.40154
       4     C     3.28953  3.28953  0.00000 -0.57907
       5     C     3.15986  3.15986  0.00000 -0.31972
       6     H     0.41502  0.41502  0.00000  0.16996
       7     H     0.39947  0.39947  0.00000  0.20106
       8     C     3.15392  3.15392  0.00000 -0.30783
       9     H     0.41948  0.41948  0.00000  0.16103
      10     H     0.40841  0.40841  0.00000  0.18319
      11     C     3.24129  3.24129  0.00000 -0.48258
      12     H     0.42179  0.42179  0.00000  0.15642
      13     H     0.41532  0.41532  0.00000  0.16936
      14     H     0.42194  0.42194  0.00000  0.15612
      15     H     0.41874  0.41874  0.00000  0.16252
      16     H     0.41738  0.41738  0.00000  0.16525
      17     H     0.39718  0.39718  0.00000  0.20564
      18     H     0.40969  0.40969  0.00000  0.18063
      19     H     0.40663  0.40663  0.00000  0.18674

   Total alpha = 28.00000, Total beta = 28.00000, Total charge =  0.00000
