  ==> Input File <==

--------------------------------------------------------------------------
set {
	reference rhf
	basis cc-pvtz
}

set_num_threads( 4 )
memory 2 gb

molecule MOL {
0 1

H	 -0.000342	 -0.223902	 -3.352295
C	 -0.027146	 0.371068	 -2.446756
C	 0.024493	 -0.518541	 -1.216015
H	 -0.932586	 0.964979	 -2.449855
H	 0.819708	 1.049865	 -2.473332
N	 -0.042516	 0.263377	 -0.000000
H	 -0.822211	 -1.197105	 -1.225584
H	 0.921114	 -1.142847	 -1.255206
C	 0.024493	 -0.518541	 1.216015
H	 0.682568	 0.950412	 -0.000000
C	 1.409790	 -1.110257	 1.415056
H	 -0.211428	 0.135696	 2.048940
H	 -0.719447	 -1.319491	 1.232025
H	 2.157244	 -0.327471	 1.448521
H	 1.457532	 -1.674193	 2.339396
H	 1.666157	 -1.784804	 0.603948

	symmetry c1
}
set optking {
	frozen_dihedral = ("
		12 9 6 3
	")
}

ee = optimize('scf')
oeprop('DIPOLE', 'QUADRUPOLE', 'MULLIKEN_CHARGES')
f=open( 'psi4out.xyz', 'w' )
f.write( "16  " )
f.write( str(ee) + "\n" )
f.write( MOL.save_string_xyz() )
f.close()
--------------------------------------------------------------------------

    Molecular point group: c1
  Charge       = 0
  Multiplicity = 1
  Basis Set: CC-PVTZ
  Basis Set:
  @DF-RHF Final Energy:  -212.38944048556741
    Total Energy =                       -212.3894404855673201
    Molecular point group: c1
  Basis Set: CC-PVTZ
  Basis Set:
  Basis Set: CC-PVTZ
  Basis Set:
  @DF-RHF Final Energy:  -212.39148218507606
    Total Energy =                       -212.3914821850761427
  Basis Set: CC-PVTZ
  Basis Set:
  Basis Set: CC-PVTZ
  Basis Set:
  @DF-RHF Final Energy:  -212.39204978509724
    Total Energy =                       -212.3920497850972424
  Basis Set: CC-PVTZ
  Basis Set:
  Basis Set: CC-PVTZ
  Basis Set:
  @DF-RHF Final Energy:  -212.39207082869643
    Total Energy =                       -212.3920708286963759
  Basis Set: CC-PVTZ
  Basis Set:
  Basis Set: CC-PVTZ
  Basis Set:
  @DF-RHF Final Energy:  -212.39207303478142
    Total Energy =                       -212.3920730347812196
  Basis Set: CC-PVTZ
  Basis Set:
  Charge       = 0
  Multiplicity = 1
  Basis Set: CC-PVTZ
  Basis Set:

    Orbital Energies (a.u.)
    -----------------------

    Doubly Occupied:

       1A    -15.527273     2A    -11.239227     3A    -11.238490
       4A    -11.206245     5A    -11.205234     6A     -1.204314
       7A     -1.025396     8A     -0.965933     9A     -0.847401
      10A     -0.811236    11A     -0.656340    12A     -0.626881
      13A     -0.614565    14A     -0.569095    15A     -0.554639
      16A     -0.532618    17A     -0.511147    18A     -0.489310
      19A     -0.484515    20A     -0.474629    21A     -0.356551

  @DF-RHF Final Energy:  -212.39207319829094

   => Energetics <=

    Nuclear Repulsion Energy =            191.1480128349409426
    One-Electron Energy =                -664.7980931680313006
    Two-Electron Energy =                 261.2580071347995840
    DFT Exchange-Correlation Energy =       0.0000000000000000
    Empirical Dispersion Energy =           0.0000000000000000
    PCM Polarization Energy =               0.0000000000000000
    EFP Energy =                            0.0000000000000000
    Total Energy =                       -212.3920731982908023
    Molecular point group: c1
  Basis Set: CC-PVTZ
  Basis Set:

  -Total Gradient:
     Atom            X                  Y                   Z
    ------   -----------------  -----------------  -----------------
       1       -0.000001059041    -0.000000156967     0.000009972538
       2        0.000001533621     0.000004110510     0.000005160159
       3       -0.000160776217    -0.000014003880    -0.000002425022
       4       -0.000003929964     0.000004247740    -0.000004248555
       5        0.000000792723     0.000001129121    -0.000003857544
       6        0.000211534946    -0.000001178517     0.000005924840
       7       -0.000002629568    -0.000000276632     0.000001113215
       8        0.000003132653    -0.000003791444     0.000002502293
       9        0.000173364599     0.000069671810     0.000005266554
      10       -0.000003288443     0.000004619001    -0.000010142280
      11       -0.000005780889    -0.000001660527    -0.000008228304
      12       -0.000213818200    -0.000046912586    -0.000011728047
      13       -0.000006060615    -0.000013705712     0.000016278362
      14        0.000001462263    -0.000002316368     0.000000859871
      15       -0.000001872051     0.000004868403    -0.000006735532
      16        0.000007394183    -0.000004643953     0.000000287454

  **** Optimization is complete! (in 6 steps) ****
    Final optimized geometry and variables:
    Molecular point group: c1

    Geometry (in Angstrom), charge = 0, multiplicity = 1:

    H           -0.384086997141     0.119474747429    -3.173837423779
    C           -0.416779923564     0.697878997750    -2.257560208545
    C           -0.220721321559    -0.199249924722    -1.046214616103
    H           -1.369688773932     1.209002757339    -2.202899938464
    H            0.364230897634     1.449794095297    -2.314918902730
    N           -0.295064331296     0.567569769608     0.179883721868
    H           -1.008886519291    -0.944839356118    -1.019095597188
    H            0.717975462047    -0.744025048133    -1.155851482550
    C           -0.235946649168    -0.185906789737     1.415964952522
    H            0.393830814492     1.290124924490     0.179695080013
    C            1.092110430142    -0.874389828230     1.729776573105
    H           -0.480350900451     0.492686052699     2.225783233059
    H           -1.028763204329    -0.926395620518     1.391370904676
    H            1.902602403285    -0.152886921277     1.766835742876
    H            1.043223478140    -1.367149595925     2.694981731605
    H            1.346063156349    -1.624119981152     0.990244631049

  Mulliken Charges: (a.u.)
   Center  Symbol    Alpha    Beta     Spin     Total
       1     H     0.45494  0.45494  0.00000  0.09012
       2     C     3.14056  3.14056  0.00000 -0.28113
       3     C     3.02171  3.02171  0.00000 -0.04341
       4     H     0.44960  0.44960  0.00000  0.10080
       5     H     0.45930  0.45930  0.00000  0.08139
       6     N     3.63862  3.63862  0.00000 -0.27723
       7     H     0.45898  0.45898  0.00000  0.08204
       8     H     0.47272  0.47272  0.00000  0.05456
       9     C     3.04207  3.04207  0.00000 -0.08414
      10     H     0.44583  0.44583  0.00000  0.10834
      11     C     3.14760  3.14760  0.00000 -0.29519
      12     H     0.44918  0.44918  0.00000  0.10164
      13     H     0.45613  0.45613  0.00000  0.08775
      14     H     0.45857  0.45857  0.00000  0.08287
      15     H     0.45047  0.45047  0.00000  0.09905
      16     H     0.45373  0.45373  0.00000  0.09254

   Total alpha = 21.00000, Total beta = 21.00000, Total charge =  0.00000
