  ==> Input File <==

--------------------------------------------------------------------------
set {
	reference rhf
	basis 6-31G*
}

set_num_threads( 4 )
memory 2 gb

molecule MOL {
0 1

H	 -3.066676	 2.620693	 -1.451982
O	 -2.361513	 2.033699	 -1.684549
C	 -1.708992	 1.594948	 -0.520804
C	 -0.587090	 0.657409	 -0.930809
H	 -1.304384	 2.440704	 0.033540
H	 -2.405758	 1.077220	 0.137082
C	 0.198102	 0.111031	 0.262842
H	 0.077815	 1.193232	 -1.602764
H	 -1.016704	 -0.160125	 -1.503126
C	 1.331804	 -0.827780	 -0.158768
H	 0.600023	 0.942329	 0.836930
H	 -0.478057	 -0.423485	 0.928890
C	 2.723619	 -0.410569	 0.329459
H	 1.342964	 -0.912588	 -1.244120
H	 1.116806	 -1.824343	 0.220779
C	 3.243875	 0.895854	 -0.272975
H	 3.424222	 -1.207124	 0.091250
H	 2.714788	 -0.329854	 1.414619
H	 3.251977	 0.848779	 -1.358681
H	 2.637085	 1.747371	 0.016682
H	 4.259473	 1.094070	 0.055697

	symmetry c1
}
set optking {
	frozen_dihedral = ("
		4 7 10 14
	")
}

ee = optimize('scf')
oeprop('DIPOLE', 'QUADRUPOLE', 'MULLIKEN_CHARGES')
f=open( 'psi4out.xyz', 'w' )
f.write( "21  " )
f.write( str(ee) + "\n" )
f.write( MOL.save_string_xyz() )
f.close()
--------------------------------------------------------------------------

    Molecular point group: c1
  Charge       = 0
  Multiplicity = 1
  Basis Set: 6-31G*
  Basis Set:
  @DF-RHF Final Energy:  -310.20733659297730
    Total Energy =                       -310.2073365929772990
    Molecular point group: c1
  Basis Set: 6-31G*
  Basis Set:
  Basis Set: 6-31G*
  Basis Set:
  @DF-RHF Final Energy:  -310.20756623512716
    Total Energy =                       -310.2075662351271603
  Basis Set: 6-31G*
  Basis Set:
  Basis Set: 6-31G*
  Basis Set:
  @DF-RHF Final Energy:  -310.20747133758022
    Total Energy =                       -310.2074713375800457
  Basis Set: 6-31G*
  Basis Set:
  Basis Set: 6-31G*
  Basis Set:
  @DF-RHF Final Energy:  -310.20773141690444
    Total Energy =                       -310.2077314169041529
  Basis Set: 6-31G*
  Basis Set:
  Basis Set: 6-31G*
  Basis Set:
  @DF-RHF Final Energy:  -310.20773468136025
    Total Energy =                       -310.2077346813599092
  Basis Set: 6-31G*
  Basis Set:
  Basis Set: 6-31G*
  Basis Set:
  @DF-RHF Final Energy:  -310.20773769306754
    Total Energy =                       -310.2077376930670880
  Basis Set: 6-31G*
  Basis Set:
  Charge       = 0
  Multiplicity = 1
  Basis Set: 6-31G*
  Basis Set:

    Orbital Energies (a.u.)
    -----------------------

    Doubly Occupied:

       1A    -20.551772     2A    -11.266777     3A    -11.215638
       4A    -11.215070     5A    -11.213208     6A    -11.210750
       7A    -11.207686     8A     -1.358551     9A     -1.084354
      10A     -1.032274    11A     -0.953256    12A     -0.875779
      13A     -0.806896    14A     -0.780077    15A     -0.692231
      16A     -0.659714    17A     -0.619255    18A     -0.610734
      19A     -0.585904    20A     -0.556110    21A     -0.551582
      22A     -0.519611    23A     -0.500233    24A     -0.492757
      25A     -0.480904    26A     -0.460057    27A     -0.450358
      28A     -0.442406    29A     -0.434077

  @DF-RHF Final Energy:  -310.20773808748453

   => Energetics <=

    Nuclear Repulsion Energy =            315.7912475868839124
    One-Electron Energy =               -1046.3419352091343626
    Two-Electron Energy =                 420.3429495347662623
    DFT Exchange-Correlation Energy =       0.0000000000000000
    Empirical Dispersion Energy =           0.0000000000000000
    PCM Polarization Energy =               0.0000000000000000
    EFP Energy =                            0.0000000000000000
    Total Energy =                       -310.2077380874842447
    Molecular point group: c1
  Basis Set: 6-31G*
  Basis Set:

  -Total Gradient:
     Atom            X                  Y                   Z
    ------   -----------------  -----------------  -----------------
       1       -0.000002464317     0.000002377950    -0.000004441550
       2       -0.000008137872     0.000008986100     0.000000066245
       3        0.000007528306    -0.000004950139    -0.000002396017
       4        0.000188713966     0.000224484158     0.000006498080
       5       -0.000001638726    -0.000000518984     0.000000516942
       6        0.000001585162     0.000000729403    -0.000000042641
       7       -0.000319965237    -0.000397278980     0.000017863389
       8        0.000001859634    -0.000006592614     0.000004142725
       9       -0.000003086356     0.000000888912     0.000002503136
      10        0.000398135178     0.000496275781    -0.000042400784
      11       -0.000006744976     0.000003082619     0.000002738821
      12       -0.000006418894    -0.000000170551    -0.000007245091
      13       -0.000002808084     0.000000976527     0.000022104225
      14       -0.000257247215    -0.000335319500     0.000010598390
      15       -0.000009643251     0.000005980550    -0.000000414418
      16        0.000015448438    -0.000006129718    -0.000013205009
      17        0.000005531991     0.000011516562     0.000003960512
      18        0.000000164366    -0.000011710556     0.000004510117
      19        0.000001274719     0.000009004139    -0.000004240141
      20        0.000000932268    -0.000006458655     0.000004174344
      21       -0.000003019094     0.000004826994    -0.000005291274

  **** Optimization is complete! (in 7 steps) ****
    Final optimized geometry and variables:
    Molecular point group: c1

    Geometry (in Angstrom), charge = 0, multiplicity = 1:

    H           -3.436527062283     2.000922981629    -0.976524165982
    O           -2.723462119673     1.427269439316    -1.218105168858
    C           -2.076251337803     0.964927432852    -0.060482543832
    C           -0.941457247228     0.049919064471    -0.484441245914
    H           -1.685173471486     1.800103072530     0.519288654667
    H           -2.773111941594     0.423290535152     0.577860000688
    C           -0.158927067291    -0.518385075012     0.701362315874
    H           -0.276348306118     0.607172134456    -1.138477158062
    H           -1.357321445862    -0.758710580138    -1.079385356794
    C            0.994720346767    -1.460884433622     0.285303716767
    H            0.232902874751     0.304913628395     1.294120690150
    H           -0.843787859795    -1.051357505715     1.356267083340
    C            2.377992526945    -1.037856326352     0.793532507780
    H            1.029966489314    -1.541519557555    -0.798879947731
    H            0.787054947403    -2.463688183198     0.647393563700
    C            2.909095544121     0.244325161581     0.150780642269
    H            3.082933903506    -1.843000093842     0.601207048634
    H            2.342622190055    -0.916633331294     1.874332144992
    H            3.000173740031     0.129385293776    -0.925730541675
    H            2.256660894222     1.091878308992     0.336918618233
    H            3.890515102624     0.497100759347     0.540298242865

  Mulliken Charges: (a.u.)
   Center  Symbol    Alpha    Beta     Spin     Total
       1     H     0.28120  0.28120  0.00000  0.43761
       2     O     4.37169  4.37169  0.00000 -0.74338
       3     C     2.99037  2.99037  0.00000  0.01927
       4     C     3.16136  3.16136  0.00000 -0.32272
       5     H     0.43310  0.43310  0.00000  0.13380
       6     H     0.43289  0.43289  0.00000  0.13421
       7     C     3.16449  3.16449  0.00000 -0.32898
       8     H     0.41398  0.41398  0.00000  0.17204
       9     H     0.41439  0.41439  0.00000  0.17121
      10     C     3.15545  3.15545  0.00000 -0.31090
      11     H     0.42117  0.42117  0.00000  0.15766
      12     H     0.42065  0.42065  0.00000  0.15870
      13     C     3.15381  3.15381  0.00000 -0.30763
      14     H     0.41928  0.41928  0.00000  0.16145
      15     H     0.41916  0.41916  0.00000  0.16168
      16     C     3.24060  3.24060  0.00000 -0.48121
      17     H     0.42154  0.42154  0.00000  0.15692
      18     H     0.42349  0.42349  0.00000  0.15302
      19     H     0.42111  0.42111  0.00000  0.15779
      20     H     0.42089  0.42089  0.00000  0.15821
      21     H     0.41938  0.41938  0.00000  0.16124

   Total alpha = 29.00000, Total beta = 29.00000, Total charge =  0.00000
