  ==> Input File <==

--------------------------------------------------------------------------
set {
	reference rhf
	basis cc-pvtz
}

set_num_threads( 4 )
memory 2 gb

molecule MOL {
0 1

H	 0.819153	 -1.186842	 -0.052137
C	 0.773196	 -0.384631	 -0.801259
C	 0.062554	 0.862911	 -0.350953
O	 1.267767	 -0.538269	 -1.863779
C	 -1.339253	 0.577611	 0.196911
H	 0.031424	 1.559650	 -1.178649
H	 0.671417	 1.302782	 0.435733
C	 -1.813142	 -0.849710	 -0.061612
H	 -2.032833	 1.276441	 -0.256032
H	 -1.357249	 0.782269	 1.263793
H	 -1.839268	 -1.063526	 -1.124230
H	 -2.810118	 -1.001930	 0.334000
H	 -1.159274	 -1.579980	 0.402282

	symmetry c1
}
set optking {
	frozen_dihedral = ("
		6 3 5 9
	")
}

ee = optimize('scf')
oeprop('DIPOLE', 'QUADRUPOLE', 'MULLIKEN_CHARGES')
f=open( 'psi4out.xyz', 'w' )
f.write( "13  " )
f.write( str(ee) + "\n" )
f.write( MOL.save_string_xyz() )
f.close()
--------------------------------------------------------------------------

    Molecular point group: c1
  Charge       = 0
  Multiplicity = 1
  Basis Set: CC-PVTZ
  Basis Set:
  @DF-RHF Final Energy:  -231.06023541736258
    Total Energy =                       -231.0602354173624917
    Molecular point group: c1
  Basis Set: CC-PVTZ
  Basis Set:
  Basis Set: CC-PVTZ
  Basis Set:
  @DF-RHF Final Energy:  -231.06076972571412
    Total Energy =                       -231.0607697257139250
  Basis Set: CC-PVTZ
  Basis Set:
  Basis Set: CC-PVTZ
  Basis Set:
  @DF-RHF Final Energy:  -231.06252307936339
    Total Energy =                       -231.0625230793633307
  Basis Set: CC-PVTZ
  Basis Set:
  Basis Set: CC-PVTZ
  Basis Set:
  @DF-RHF Final Energy:  -231.06239431802834
    Total Energy =                       -231.0623943180284243
  Basis Set: CC-PVTZ
  Basis Set:
  @DF-RHF Final Energy:  -231.06219656634576
    Total Energy =                       -231.0621965663455342
  Basis Set: CC-PVTZ
  Basis Set:
  @DF-RHF Final Energy:  -231.06288262997543
    Total Energy =                       -231.0628826299753200
  Basis Set: CC-PVTZ
  Basis Set:
  Basis Set: CC-PVTZ
  Basis Set:
  @DF-RHF Final Energy:  -231.06288958156381
    Total Energy =                       -231.0628895815638657
  Basis Set: CC-PVTZ
  Basis Set:
  Basis Set: CC-PVTZ
  Basis Set:
  @DF-RHF Final Energy:  -231.06289599313467
    Total Energy =                       -231.0628959931346742
  Basis Set: CC-PVTZ
  Basis Set:
  Charge       = 0
  Multiplicity = 1
  Basis Set: CC-PVTZ
  Basis Set:

    Orbital Energies (a.u.)
    -----------------------

    Doubly Occupied:

       1A    -20.551310     2A    -11.321288     3A    -11.237242
       4A    -11.234271     5A    -11.221518     6A     -1.406227
       7A     -1.082521     8A     -0.974453     9A     -0.857157
      10A     -0.779526    11A     -0.674722    12A     -0.636331
      13A     -0.635214    14A     -0.603450    15A     -0.557945
      16A     -0.531530    17A     -0.516488    18A     -0.488201
      19A     -0.478850    20A     -0.411724

  @DF-RHF Final Energy:  -231.06289639979613

   => Energetics <=

    Nuclear Repulsion Energy =            174.3548490602858294
    One-Electron Energy =                -658.4355537336210773
    Two-Electron Energy =                 253.0178082735390888
    DFT Exchange-Correlation Energy =       0.0000000000000000
    Empirical Dispersion Energy =           0.0000000000000000
    PCM Polarization Energy =               0.0000000000000000
    EFP Energy =                            0.0000000000000000
    Total Energy =                       -231.0628963997961876
    Molecular point group: c1
  Basis Set: CC-PVTZ
  Basis Set:

  -Total Gradient:
     Atom            X                  Y                   Z
    ------   -----------------  -----------------  -----------------
       1       -0.000000084119     0.000000769984     0.000001175424
       2       -0.000036452628    -0.000018500667     0.000007344385
       3       -0.000600813264    -0.003661515740    -0.003183456571
       4        0.000023571915     0.000020946173     0.000006088502
       5        0.000795794545     0.003200408204     0.003483815118
       6        0.000339197988     0.002548419963     0.002135412749
       7        0.000024259555     0.000008906554    -0.000005585505
       8        0.000012014737    -0.000008309600     0.000002943201
       9       -0.000554977034    -0.002097654405    -0.002437492711
      10       -0.000006724765    -0.000001194468    -0.000003811764
      11        0.000000202841     0.000005635423    -0.000007192377
      12        0.000000637102     0.000000803023     0.000003288356
      13        0.000003373124     0.000001285555    -0.000002528807

  **** Optimization is complete! (in 9 steps) ****
    Final optimized geometry and variables:
    Molecular point group: c1

    Geometry (in Angstrom), charge = 0, multiplicity = 1:

    H            1.274586188837    -1.022668792084     0.560904273322
    C            1.065693239645    -0.276370096059    -0.214178640001
    C            0.284585601971     0.928044443058     0.234739231428
    O            1.471169245088    -0.439698783696    -1.313080599367
    C           -1.128501785677     0.635354582702     0.806995315395
    H            0.232622210147     1.626894412803    -0.588154015541
    H            0.886081357313     1.404267163126     1.005290159652
    C           -1.675636281851    -0.767763842840     0.535370409146
    H           -1.815223299407     1.340851112760     0.356863208505
    H           -1.140098304852     0.819728719510     1.873576102262
    H           -1.675673676058    -0.994316962044    -0.524961500393
    H           -2.696991124336    -0.842022930958     0.888334783592
    H           -1.102974139255    -1.537194374991     1.039558826925

  Mulliken Charges: (a.u.)
   Center  Symbol    Alpha    Beta     Spin     Total
       1     H     0.46195  0.46195  0.00000  0.07609
       2     C     2.90429  2.90429  0.00000  0.19142
       3     C     3.08822  3.08822  0.00000 -0.17645
       4     O     4.16707  4.16707  0.00000 -0.33414
       5     C     3.09504  3.09504  0.00000 -0.19008
       6     H     0.44150  0.44150  0.00000  0.11701
       7     H     0.44838  0.44838  0.00000  0.10324
       8     C     3.15519  3.15519  0.00000 -0.31039
       9     H     0.44592  0.44592  0.00000  0.10815
      10     H     0.44747  0.44747  0.00000  0.10506
      11     H     0.44556  0.44556  0.00000  0.10889
      12     H     0.44509  0.44509  0.00000  0.10983
      13     H     0.45431  0.45431  0.00000  0.09137

   Total alpha = 20.00000, Total beta = 20.00000, Total charge = -0.00000
