  ==> Input File <==

--------------------------------------------------------------------------
set {
	reference rhf
	basis 6-31G*
}

set_num_threads( 4 )
memory 2 gb

molecule MOL {
0 1

H	 1.261372	 -4.227035	 -3.729205
C	 1.382731	 -3.476339	 -2.969733
C	 0.503677	 -3.412517	 -1.893900
C	 2.412392	 -2.561271	 -3.046543
H	 -0.304850	 -4.117708	 -1.817623
C	 0.656140	 -2.451333	 -0.918155
H	 3.101940	 -2.595427	 -3.871432
C	 2.580053	 -1.585073	 -2.070129
H	 -0.015526	 -2.390806	 -0.082072
C	 1.698281	 -1.530410	 -1.002154
H	 3.390451	 -0.887790	 -2.157987
O	 1.765256	 -0.628444	 0.000000
C	 2.778419	 0.335181	 0.000000
H	 2.731280	 0.961222	 -0.884976
H	 3.711703	 -0.207767	 0.000000
H	 2.731280	 0.961222	 0.884976

	symmetry c1
}
set optking {
	frozen_dihedral = ("
		10 12 13 14
	")
}

ee = optimize('scf')
oeprop('DIPOLE', 'QUADRUPOLE', 'MULLIKEN_CHARGES')
f=open( 'psi4out.xyz', 'w' )
f.write( "16  " )
f.write( str(ee) + "\n" )
f.write( MOL.save_string_xyz() )
f.close()
--------------------------------------------------------------------------

    Molecular point group: c1
  Charge       = 0
  Multiplicity = 1
  Basis Set: 6-31G*
  Basis Set:
  @DF-RHF Final Energy:  -344.58068140928475
    Total Energy =                       -344.5806814092849777
    Molecular point group: c1
  Basis Set: 6-31G*
  Basis Set:
  Basis Set: 6-31G*
  Basis Set:
  @DF-RHF Final Energy:  -344.58227890854363
    Total Energy =                       -344.5822789085436852
  Basis Set: 6-31G*
  Basis Set:
  Basis Set: 6-31G*
  Basis Set:
  @DF-RHF Final Energy:  -344.58278915588892
    Total Energy =                       -344.5827891558891451
  Basis Set: 6-31G*
  Basis Set:
  Basis Set: 6-31G*
  Basis Set:
  @DF-RHF Final Energy:  -344.58279233624347
    Total Energy =                       -344.5827923362434717
  Basis Set: 6-31G*
  Basis Set:
  Charge       = 0
  Multiplicity = 1
  Basis Set: 6-31G*
  Basis Set:

    Orbital Energies (a.u.)
    -----------------------

    Doubly Occupied:

       1A    -20.585254     2A    -11.294030     3A    -11.279997
       4A    -11.232811     5A    -11.231299     6A    -11.223720
       7A    -11.219189     8A    -11.219108     9A     -1.414418
      10A     -1.145713    11A     -1.021763    12A     -1.012617
      13A     -0.941644    14A     -0.830283    15A     -0.804533
      16A     -0.721754    17A     -0.663839    18A     -0.661521
      19A     -0.656505    20A     -0.616856    21A     -0.586599
      22A     -0.575535    23A     -0.523753    24A     -0.520716
      25A     -0.508737    26A     -0.475360    27A     -0.462293
      28A     -0.334579    29A     -0.304831

  @DF-RHF Final Energy:  -344.58279319715177

   => Energetics <=

    Nuclear Repulsion Energy =            348.1398059262820652
    One-Electron Energy =               -1157.3066840421336110
    Two-Electron Energy =                 464.5840849186998298
    DFT Exchange-Correlation Energy =       0.0000000000000000
    Empirical Dispersion Energy =           0.0000000000000000
    PCM Polarization Energy =               0.0000000000000000
    EFP Energy =                            0.0000000000000000
    Total Energy =                       -344.5827931971517160
    Molecular point group: c1
  Basis Set: 6-31G*
  Basis Set:

  -Total Gradient:
     Atom            X                  Y                   Z
    ------   -----------------  -----------------  -----------------
       1        0.000000362628     0.000005779106    -0.000004084563
       2        0.000027507322    -0.000014279765     0.000010201872
       3       -0.000014926332     0.000026224912    -0.000005803616
       4       -0.000008843733     0.000001023993    -0.000016791539
       5        0.000004654786     0.000000199170     0.000007264928
       6       -0.000020680258     0.000034658787    -0.000015990812
       7       -0.000000835534     0.000000346195    -0.000003972015
       8       -0.000012807940     0.000013504426    -0.000021141532
       9       -0.000000148357    -0.000002755088     0.000006352009
      10       -0.000010950517     0.000004008348    -0.000016024583
      11       -0.000009106341    -0.000007184047    -0.000009831237
      12        0.000167705461    -0.000082906641     0.000062045178
      13       -0.000172145276     0.000188793981     0.000118623577
      14        0.000075599271    -0.000129062124    -0.000098085138
      15       -0.000004571833    -0.000021399846    -0.000005585674
      16       -0.000020813346    -0.000016951405    -0.000007176854

  **** Optimization is complete! (in 5 steps) ****
    Final optimized geometry and variables:
    Molecular point group: c1

    Geometry (in Angstrom), charge = 0, multiplicity = 1:

    H           -0.512936431861    -2.377073422153    -2.304929436797
    C           -0.382876692235    -1.630149654004    -1.543155883437
    C           -1.257771515855    -1.563461234780    -0.463762808355
    C            0.653341026778    -0.722889959548    -1.620310879276
    H           -2.071422415722    -2.262785441546    -0.387396806908
    C           -1.094488744037    -0.607137869606     0.514648503156
    H            1.339863042477    -0.759228781460    -2.447640083205
    C            0.832127525844     0.248506175382    -0.640726790720
    H           -1.762636614996    -0.544137987790     1.353368462521
    C           -0.045347222816     0.306117597883     0.430317605057
    H            1.648085919654     0.939213891089    -0.728635236942
    O            0.031967572537     1.203366026759     1.435766192110
    C            1.039986792864     2.172215490028     1.425449091089
    H            0.976274330142     2.802282505359     0.544411842290
    H            2.025457259096     1.720258774536     1.471490388637
    H            0.886550918503     2.777361641499     2.306377033744

  Mulliken Charges: (a.u.)
   Center  Symbol    Alpha    Beta     Spin     Total
       1     H     0.40127  0.40127  0.00000  0.19747
       2     C     3.11208  3.11208  0.00000 -0.22416
       3     C     3.09182  3.09182  0.00000 -0.18365
       4     C     3.09096  3.09096  0.00000 -0.18193
       5     H     0.39880  0.39880  0.00000  0.20241
       6     C     3.12542  3.12542  0.00000 -0.25083
       7     H     0.39970  0.39970  0.00000  0.20061
       8     C     3.14507  3.14507  0.00000 -0.29015
       9     H     0.39294  0.39294  0.00000  0.21412
      10     C     2.78223  2.78223  0.00000  0.43555
      11     H     0.39741  0.39741  0.00000  0.20518
      12     O     4.32593  4.32593  0.00000 -0.65186
      13     C     3.09240  3.09240  0.00000 -0.18480
      14     H     0.41968  0.41968  0.00000  0.16065
      15     H     0.41972  0.41972  0.00000  0.16057
      16     H     0.40458  0.40458  0.00000  0.19083

   Total alpha = 29.00000, Total beta = 29.00000, Total charge =  0.00000
