  ==> Input File <==

--------------------------------------------------------------------------
set {
	reference rhf
	basis cc-pvtz
}

set_num_threads( 4 )
memory 2 gb

molecule MOL {
0 1

O	 -1.510770	 1.240811	 -0.054933
C	 -1.081510	 0.147522	 0.122720
C	 0.327029	 -0.064006	 0.641890
C	 -1.903028	 -1.084121	 -0.174656
C	 1.349460	 -0.017068	 -0.500215
H	 0.399029	 -1.014606	 1.159950
H	 0.538021	 0.726928	 1.350471
C	 1.631599	 -1.395893	 -1.085865
H	 0.991088	 0.641335	 -1.286289
H	 2.268041	 0.418277	 -0.124703
H	 2.364336	 -1.336019	 -1.881818
H	 0.731384	 -1.840642	 -1.496428
H	 2.018195	 -2.068902	 -0.328585
H	 -1.341891	 -1.779207	 -0.789259
H	 -2.820449	 -0.808163	 -0.671328
H	 -2.133314	 -1.593056	 0.755831

	symmetry c1
}
set optking {
	frozen_dihedral = ("
		9 5 3 2
	")
}

ee = optimize('scf')
oeprop('DIPOLE', 'QUADRUPOLE', 'MULLIKEN_CHARGES')
f=open( 'psi4out.xyz', 'w' )
f.write( "16  " )
f.write( str(ee) + "\n" )
f.write( MOL.save_string_xyz() )
f.close()
--------------------------------------------------------------------------

    Molecular point group: c1
  Charge       = 0
  Multiplicity = 1
  Basis Set: CC-PVTZ
  Basis Set:
  @DF-RHF Final Energy:  -270.12436585794092
    Total Energy =                       -270.1243658579408589
    Molecular point group: c1
  Basis Set: CC-PVTZ
  Basis Set:
  Basis Set: CC-PVTZ
  Basis Set:
  @DF-RHF Final Energy:  -270.12512435902261
    Total Energy =                       -270.1251243590222657
  Basis Set: CC-PVTZ
  Basis Set:
  Basis Set: CC-PVTZ
  Basis Set:
  @DF-RHF Final Energy:  -270.12339487626082
    Total Energy =                       -270.1233948762607611
  Basis Set: CC-PVTZ
  Basis Set:
  Basis Set: CC-PVTZ
  Basis Set:
  @DF-RHF Final Energy:  -270.12551895611807
    Total Energy =                       -270.1255189561181282
  Basis Set: CC-PVTZ
  Basis Set:
  @DF-RHF Final Energy:  -270.12592452454606
    Total Energy =                       -270.1259245245462353
  @DF-RHF Final Energy:  -270.12610385444384
    Total Energy =                       -270.1261038544437270
  @DF-RHF Final Energy:  -270.12624574894994
    Total Energy =                       -270.1262457489498274
  @DF-RHF Final Energy:  -270.12668382140657
    Total Energy =                       -270.1266838214063455
  @DF-RHF Final Energy:  -270.12718636775668
    Total Energy =                       -270.1271863677565648
  @DF-RHF Final Energy:  -270.12785957565393
    Total Energy =                       -270.1278595756538152
  @DF-RHF Final Energy:  -270.12737176653508
    Total Energy =                       -270.1273717665353615
  @DF-RHF Final Energy:  -270.12857599126016
    Total Energy =                       -270.1285759912602771
  @DF-RHF Final Energy:  -270.12882718922333
    Total Energy =                       -270.1288271892233865
  @DF-RHF Final Energy:  -270.12858649226729
    Total Energy =                       -270.1285864922672317
  Basis Set: CC-PVTZ
  Basis Set:
  @DF-RHF Final Energy:  -270.12902318295875
    Total Energy =                       -270.1290231829587469
  Basis Set: CC-PVTZ
  Basis Set:
  Basis Set: CC-PVTZ
  Basis Set:
  @DF-RHF Final Energy:  -270.12903990288441
    Total Energy =                       -270.1290399028844149
  Basis Set: CC-PVTZ
  Basis Set:
  Basis Set: CC-PVTZ
  Basis Set:
  @DF-RHF Final Energy:  -270.12904224251565
    Total Energy =                       -270.1290422425156521
  Basis Set: CC-PVTZ
  Basis Set:
  Charge       = 0
  Multiplicity = 1
  Basis Set: CC-PVTZ
  Basis Set:

    Orbital Energies (a.u.)
    -----------------------

    Doubly Occupied:

       1A    -20.540102     2A    -11.322328     3A    -11.231054
       4A    -11.227555     5A    -11.216996     6A    -11.208145
       7A     -1.400562     8A     -1.076734     9A     -1.016443
      10A     -0.945956    11A     -0.826560    12A     -0.730173
      13A     -0.667262    14A     -0.639028    15A     -0.625422
      16A     -0.595357    17A     -0.581906    18A     -0.555524
      19A     -0.548394    20A     -0.504442    21A     -0.487745
      22A     -0.480922    23A     -0.475012    24A     -0.404625

  @DF-RHF Final Energy:  -270.12904280116970

   => Energetics <=

    Nuclear Repulsion Energy =            240.1808343659472484
    One-Electron Energy =                -842.0032615955035453
    Two-Electron Energy =                 331.6933844283865938
    DFT Exchange-Correlation Energy =       0.0000000000000000
    Empirical Dispersion Energy =           0.0000000000000000
    PCM Polarization Energy =               0.0000000000000000
    EFP Energy =                            0.0000000000000000
    Total Energy =                       -270.1290428011697031
    Molecular point group: c1
  Basis Set: CC-PVTZ
  Basis Set:

  -Total Gradient:
     Atom            X                  Y                   Z
    ------   -----------------  -----------------  -----------------
       1        0.000005575479    -0.000001139778    -0.000024464150
       2       -0.000185706039     0.002382670383     0.001176565084
       3        0.000124120370    -0.003900701866    -0.002219053459
       4        0.000001199225     0.000060197418     0.000046755946
       5        0.000894950512     0.003813611348     0.003805603104
       6       -0.000008866054    -0.000006181744    -0.000013339406
       7       -0.000023944644     0.000003428674    -0.000003377719
       8        0.000011059791    -0.000004391484    -0.000011948490
       9       -0.000808385688    -0.002262646538    -0.002709466285
      10       -0.000009785407    -0.000027711230    -0.000000672201
      11        0.000005536790    -0.000005413156    -0.000006499149
      12       -0.000002830525    -0.000001587435    -0.000000340163
      13        0.000001461019    -0.000001030424    -0.000002688972
      14        0.000002745002    -0.000015686252    -0.000024897539
      15       -0.000004914448    -0.000009847052    -0.000003815022
      16       -0.000002215383    -0.000023570865    -0.000008361580

  **** Optimization is complete! (in 18 steps) ****
    Final optimized geometry and variables:
    Molecular point group: c1

    Geometry (in Angstrom), charge = 0, multiplicity = 1:

    O           -1.034057960791     0.768727394996    -0.891767510414
    C           -0.952138807379     0.145181035631     0.115209580677
    C            0.365458723905    -0.083788167645     0.833161876884
    C           -2.174071855664    -0.464255515141     0.764037843149
    C            1.605785788094     0.383096201243     0.071841710088
    H            0.434084503210    -1.133776835660     1.102755984421
    H            0.275056383997     0.449038084990     1.777399623023
    C            2.194496778747    -0.705121638259    -0.823593315194
    H            1.333772993851     1.224078849586    -0.550613587392
    H            2.357154894921     0.716588814545     0.777828096742
    H            3.054885003557    -0.335390130065    -1.368899123186
    H            1.465670469054    -1.044809154002    -1.551042494494
    H            2.514934448158    -1.564419002214    -0.243021625713
    H           -2.128202352976    -1.544196446522     0.668346840125
    H           -3.067224096073    -0.101312899390     0.279123740069
    H           -2.206395108096    -0.234944658505     1.822733471193

  Mulliken Charges: (a.u.)
   Center  Symbol    Alpha    Beta     Spin     Total
       1     O     4.17253  4.17253  0.00000 -0.34506
       2     C     2.86076  2.86076  0.00000  0.27847
       3     C     3.11397  3.11397  0.00000 -0.22795
       4     C     3.15064  3.15064  0.00000 -0.30129
       5     C     3.08871  3.08871  0.00000 -0.17743
       6     H     0.44553  0.44553  0.00000  0.10894
       7     H     0.43801  0.43801  0.00000  0.12397
       8     C     3.14939  3.14939  0.00000 -0.29878
       9     H     0.44093  0.44093  0.00000  0.11815
      10     H     0.44802  0.44802  0.00000  0.10397
      11     H     0.44774  0.44774  0.00000  0.10452
      12     H     0.45000  0.45000  0.00000  0.10000
      13     H     0.45865  0.45865  0.00000  0.08269
      14     H     0.44876  0.44876  0.00000  0.10248
      15     H     0.43547  0.43547  0.00000  0.12905
      16     H     0.45087  0.45087  0.00000  0.09825

   Total alpha = 24.00000, Total beta = 24.00000, Total charge =  0.00000
