  ==> Input File <==

--------------------------------------------------------------------------
set {
	reference rhf
	basis 6-31G*
}

set_num_threads( 4 )
memory 2 gb

molecule MOL {
0 1

H	 -3.135461	 -1.215070	 0.001379
O	 -2.310168	 -0.871793	 -0.309793
C	 -2.026376	 0.340750	 0.341611
C	 -0.673256	 0.843270	 -0.132153
H	 -2.792215	 1.080697	 0.115987
H	 -2.013526	 0.200402	 1.421792
C	 0.486613	 -0.083066	 0.235839
H	 -0.715586	 0.970948	 -1.210718
H	 -0.508072	 1.829858	 0.297090
C	 1.840406	 0.433480	 -0.254303
H	 0.300215	 -1.068318	 -0.178947
H	 0.519509	 -0.203625	 1.318070
C	 3.022395	 -0.293033	 0.386599
H	 1.895680	 0.326545	 -1.335611
H	 1.918539	 1.499428	 -0.049138
H	 2.991393	 -1.356989	 0.169973
H	 3.968542	 0.092314	 0.018826
H	 3.015316	 -0.176475	 1.466818

	symmetry c1
}
set optking {
	frozen_dihedral = ("
		14 10 7 11
	")
}

ee = optimize('scf')
oeprop('DIPOLE', 'QUADRUPOLE', 'MULLIKEN_CHARGES')
f=open( 'psi4out.xyz', 'w' )
f.write( "18  " )
f.write( str(ee) + "\n" )
f.write( MOL.save_string_xyz() )
f.close()
--------------------------------------------------------------------------

    Molecular point group: c1
  Charge       = 0
  Multiplicity = 1
  Basis Set: 6-31G*
  Basis Set:
  @DF-RHF Final Energy:  -271.17923267616089
    Total Energy =                       -271.1792326761608365
    Molecular point group: c1
  Basis Set: 6-31G*
  Basis Set:
  Basis Set: 6-31G*
  Basis Set:
  @DF-RHF Final Energy:  -271.17930355304918
    Total Energy =                       -271.1793035530492375
  Basis Set: 6-31G*
  Basis Set:
  Basis Set: 6-31G*
  Basis Set:
  @DF-RHF Final Energy:  -271.17934632058063
    Total Energy =                       -271.1793463205805210
  Basis Set: 6-31G*
  Basis Set:
  Charge       = 0
  Multiplicity = 1
  Basis Set: 6-31G*
  Basis Set:

    Orbital Energies (a.u.)
    -----------------------

    Doubly Occupied:

       1A    -20.553115     2A    -11.267948     3A    -11.211794
       4A    -11.210654     5A    -11.206304     6A    -11.204498
       7A     -1.359793     8A     -1.074452     9A     -1.008533
      10A     -0.912855    11A     -0.817378    12A     -0.783469
      13A     -0.705314    14A     -0.640754    15A     -0.626015
      16A     -0.580842    17A     -0.571220    18A     -0.556478
      19A     -0.522554    20A     -0.500058    21A     -0.488499
      22A     -0.466850    23A     -0.458523    24A     -0.447717
      25A     -0.428263

  @DF-RHF Final Energy:  -271.17934696732459

   => Energetics <=

    Nuclear Repulsion Energy =            249.0124118210721633
    One-Electron Energy =                -861.1757585230864152
    Two-Electron Energy =                 340.9839997346897462
    DFT Exchange-Correlation Energy =       0.0000000000000000
    Empirical Dispersion Energy =           0.0000000000000000
    PCM Polarization Energy =               0.0000000000000000
    EFP Energy =                            0.0000000000000000
    Total Energy =                       -271.1793469673244772
    Molecular point group: c1
  Basis Set: 6-31G*
  Basis Set:

  -Total Gradient:
     Atom            X                  Y                   Z
    ------   -----------------  -----------------  -----------------
       1        0.000002379323    -0.000003332629     0.000003917759
       2        0.000050953208    -0.000029650407     0.000029237286
       3       -0.000056269305     0.000039350971    -0.000099883032
       4        0.000015650708    -0.000014884960     0.000078433698
       5       -0.000002371196     0.000020353021     0.000013626209
       6        0.000017653321    -0.000006976624    -0.000011907136
       7        0.001664207933    -0.001814919181     0.002593878090
       8       -0.000031231941    -0.000009052391     0.000016409527
       9        0.000007641245     0.000011421778     0.000004401126
      10       -0.001481267431     0.003126359736    -0.000851733905
      11       -0.001175941609     0.001029185508    -0.002047318134
      12       -0.000013970861     0.000006309220    -0.000006503962
      13       -0.000005347976     0.000015852660    -0.000021081182
      14        0.000996784830    -0.002350753248     0.000299717301
      15        0.000002331874    -0.000002619866    -0.000003296193
      16        0.000010183610    -0.000011584704    -0.000004257733
      17        0.000007861339     0.000000901218     0.000010004224
      18       -0.000009247070    -0.000005960099    -0.000003643946

  **** Optimization is complete! (in 4 steps) ****
    Final optimized geometry and variables:
    Molecular point group: c1

    Geometry (in Angstrom), charge = 0, multiplicity = 1:

    H           -3.124397498139    -1.267497152592    -0.079318913792
    O           -2.297732718842    -0.914633463560    -0.375817258473
    C           -2.037506360991     0.299069076153     0.283421166271
    C           -0.681085292441     0.816010252142    -0.164752817542
    H           -2.806562390163     1.032006331110     0.046150334642
    H           -2.042397607994     0.155911034243     1.363333862665
    C            0.482283366138    -0.098244043477     0.225893169725
    H           -0.704599254592     0.942190459746    -1.244189508216
    H           -0.534415501604     1.804666052136     0.266154275969
    C            1.831781661681     0.409221400401    -0.289757633434
    H            0.290057474031    -1.086971480780    -0.177084146245
    H            0.515087983793    -0.192794894082     1.310167761896
    C            3.017457038511    -0.337740340746     0.322655260981
    H            1.867436515347     0.288948406764    -1.370068283323
    H            1.932110456610     1.473054958612    -0.086002496776
    H            2.952785841089    -1.403769599068     0.123161580986
    H            3.959955592812     0.017754105340    -0.082730152236
    H            3.049909271595    -0.205997688895     1.400576913724

  Mulliken Charges: (a.u.)
   Center  Symbol    Alpha    Beta     Spin     Total
       1     H     0.28054  0.28054  0.00000  0.43892
       2     O     4.36976  4.36976  0.00000 -0.73952
       3     C     2.99725  2.99725  0.00000  0.00551
       4     C     3.16061  3.16061  0.00000 -0.32122
       5     H     0.42925  0.42925  0.00000  0.14150
       6     H     0.43271  0.43271  0.00000  0.13458
       7     C     3.15387  3.15387  0.00000 -0.30774
       8     H     0.41519  0.41519  0.00000  0.16962
       9     H     0.42422  0.42422  0.00000  0.15157
      10     C     3.15203  3.15203  0.00000 -0.30406
      11     H     0.40695  0.40695  0.00000  0.18609
      12     H     0.42739  0.42739  0.00000  0.14522
      13     C     3.23909  3.23909  0.00000 -0.47818
      14     H     0.42149  0.42149  0.00000  0.15702
      15     H     0.42497  0.42497  0.00000  0.15006
      16     H     0.42120  0.42120  0.00000  0.15760
      17     H     0.42056  0.42056  0.00000  0.15887
      18     H     0.42291  0.42291  0.00000  0.15418

   Total alpha = 25.00000, Total beta = 25.00000, Total charge =  0.00000
