  ==> Input File <==

--------------------------------------------------------------------------
set {
	reference rhf
	basis 6-31G*
}

set_num_threads( 4 )
memory 2 gb

molecule MOL {
0 1

H	 1.178007	 -0.235549	 -0.796557
C	 0.850167	 0.441173	 0.000644
C	 -0.623425	 0.760064	 0.000248
O	 1.635149	 0.864060	 0.785956
C	 -1.518387	 -0.473136	 -0.000101
H	 -0.818289	 1.390622	 -0.866171
H	 -0.818694	 1.390413	 0.866696
H	 -1.333417	 -1.085530	 -0.874338
H	 -2.563510	 -0.183466	 -0.000351
H	 -1.333864	 -1.085676	 0.874123

	symmetry c1
}
set optking {
	frozen_dihedral = ("
		4 2 3 6
	")
}

ee = optimize('scf')
oeprop('DIPOLE', 'QUADRUPOLE', 'MULLIKEN_CHARGES')
f=open( 'psi4out.xyz', 'w' )
f.write( "10  " )
f.write( str(ee) + "\n" )
f.write( MOL.save_string_xyz() )
f.close()
--------------------------------------------------------------------------

    Molecular point group: c1
  Charge       = 0
  Multiplicity = 1
  Basis Set: 6-31G*
  Basis Set:
  @DF-RHF Final Energy:  -191.94977474229131
    Total Energy =                       -191.9497747422913392
    Molecular point group: c1
  Basis Set: 6-31G*
  Basis Set:
  Basis Set: 6-31G*
  Basis Set:
  @DF-RHF Final Energy:  -191.94996754571810
    Total Energy =                       -191.9499675457182093
  Basis Set: 6-31G*
  Basis Set:
  Basis Set: 6-31G*
  Basis Set:
  @DF-RHF Final Energy:  -191.94897257752172
    Total Energy =                       -191.9489725775217721
  Basis Set: 6-31G*
  Basis Set:
  Basis Set: 6-31G*
  Basis Set:
  @DF-RHF Final Energy:  -191.95021305895864
    Total Energy =                       -191.9502130589586386
  Basis Set: 6-31G*
  Basis Set:
  Basis Set: 6-31G*
  Basis Set:
  @DF-RHF Final Energy:  -191.95022149863391
    Total Energy =                       -191.9502214986339368
  Basis Set: 6-31G*
  Basis Set:
  Charge       = 0
  Multiplicity = 1
  Basis Set: 6-31G*
  Basis Set:

    Orbital Energies (a.u.)
    -----------------------

    Doubly Occupied:

       1A    -20.563996     2A    -11.328040     3A    -11.239240
       4A    -11.234075     5A     -1.403931     6A     -1.067155
       7A     -0.904130     8A     -0.794765     9A     -0.672199
      10A     -0.640498    11A     -0.618517    12A     -0.564815
      13A     -0.543904    14A     -0.516784    15A     -0.494968
      16A     -0.412666

  @DF-RHF Final Energy:  -191.95022186375797

   => Energetics <=

    Nuclear Repulsion Energy =            117.2142207827143352
    One-Electron Energy =                -492.3295209903254204
    Two-Electron Energy =                 183.1650783438530823
    DFT Exchange-Correlation Energy =       0.0000000000000000
    Empirical Dispersion Energy =           0.0000000000000000
    PCM Polarization Energy =               0.0000000000000000
    EFP Energy =                            0.0000000000000000
    Total Energy =                       -191.9502218637580029
    Molecular point group: c1
  Basis Set: 6-31G*
  Basis Set:

  -Total Gradient:
     Atom            X                  Y                   Z
    ------   -----------------  -----------------  -----------------
       1        0.000010495941     0.000002934188     0.000008730518
       2       -0.000047326244    -0.000169879624     0.000156006988
       3       -0.000039457486    -0.000136625405    -0.000141237949
       4        0.000036858320     0.000141116953    -0.000104798437
       5        0.000008123618     0.000017278656    -0.000004052124
       6        0.000030779449     0.000140297980     0.000093208765
       7        0.000002274538     0.000001637356    -0.000007549413
       8        0.000002315080    -0.000004827029    -0.000001645154
       9       -0.000002472891     0.000008241145     0.000001134091
      10       -0.000001590332    -0.000000174221     0.000000202714

  **** Optimization is complete! (in 6 steps) ****
    Final optimized geometry and variables:
    Molecular point group: c1

    Geometry (in Angstrom), charge = 0, multiplicity = 1:

    H            1.060184176732    -0.661031320506    -0.985145798125
    C            0.754999879375     0.039386900014    -0.198250744154
    C           -0.713009635116     0.382597573786    -0.179051413119
    O            1.559996549898     0.475104527757     0.559072042612
    C           -1.597259673285    -0.867919635732    -0.202058644359
    H           -0.918070716913     0.989195263280    -1.059741213670
    H           -0.906774886896     0.992418729925     0.694860103101
    H           -1.393766865072    -1.480521161297    -1.075285106210
    H           -2.645051533841    -0.592181670647    -0.229688190237
    H           -1.436470834089    -1.478459893954     0.680470991387

  Mulliken Charges: (a.u.)
   Center  Symbol    Alpha    Beta     Spin     Total
       1     H     0.43234  0.43234  0.00000  0.13532
       2     C     2.83018  2.83018  0.00000  0.33964
       3     C     3.20746  3.20746  0.00000 -0.41492
       4     O     4.23654  4.23654  0.00000 -0.47308
       5     C     3.25197  3.25197  0.00000 -0.50395
       6     H     0.40723  0.40723  0.00000  0.18554
       7     H     0.39812  0.39812  0.00000  0.20375
       8     H     0.41652  0.41652  0.00000  0.16695
       9     H     0.40891  0.40891  0.00000  0.18217
      10     H     0.41072  0.41072  0.00000  0.17856

   Total alpha = 16.00000, Total beta = 16.00000, Total charge = -0.00000
