  ==> Input File <==

--------------------------------------------------------------------------
set {
	reference rhf
	basis 6-31G*
}

set_num_threads( 4 )
memory 2 gb

molecule MOL {
0 1

H	 2.379470	 3.118164	 0.000000
O	 1.433208	 3.083591	 0.000000
C	 0.995201	 1.805882	 0.000000
C	 1.863319	 0.721596	 0.000000
C	 -0.372909	 1.596824	 0.000000
H	 2.927672	 0.886484	 -0.000000
C	 1.363327	 -0.569790	 0.000000
H	 -1.044560	 2.433460	 0.000000
C	 -0.865228	 0.300799	 0.000000
H	 2.044955	 -1.400911	 -0.000000
C	 -0.002512	 -0.788004	 0.000000
C	 -2.333960	 0.069074	 0.000000
H	 -0.393055	 -1.790242	 -0.000000
O	 -2.847347	 -1.003763	 0.000000
H	 -2.943845	 0.977528	 0.000000

	symmetry c1
}
set optking {
	frozen_dihedral = ("
		11 9 12 14
	")
}

ee = optimize('scf')
oeprop('DIPOLE', 'QUADRUPOLE', 'MULLIKEN_CHARGES')
f=open( 'psi4out.xyz', 'w' )
f.write( "15  " )
f.write( str(ee) + "\n" )
f.write( MOL.save_string_xyz() )
f.close()
--------------------------------------------------------------------------

    Molecular point group: c1
  Charge       = 0
  Multiplicity = 1
  Basis Set: 6-31G*
  Basis Set:
  @DF-RHF Final Energy:  -418.28637591562216
    Total Energy =                       -418.2863759156225569
    Molecular point group: c1
  Basis Set: 6-31G*
  Basis Set:
  Basis Set: 6-31G*
  Basis Set:
  @DF-RHF Final Energy:  -418.28656739648034
    Total Energy =                       -418.2865673964805637
  Basis Set: 6-31G*
  Basis Set:
  Basis Set: 6-31G*
  Basis Set:
  @DF-RHF Final Energy:  -418.28658640609518
    Total Energy =                       -418.2865864060954664
  Basis Set: 6-31G*
  Basis Set:
  Charge       = 0
  Multiplicity = 1
  Basis Set: 6-31G*
  Basis Set:

    Orbital Energies (a.u.)
    -----------------------

    Doubly Occupied:

       1A    -20.604713     2A    -20.564736     3A    -11.332675
       4A    -11.314677     5A    -11.252150     6A    -11.251057
       7A    -11.249040     8A    -11.247218     9A    -11.239019
      10A     -1.423997    11A     -1.405223    12A     -1.169429
      13A     -1.050946    14A     -1.024686    15A     -0.901513
      16A     -0.846123    17A     -0.813315    18A     -0.737788
      19A     -0.701432    20A     -0.673799    21A     -0.661339
      22A     -0.627406    23A     -0.610577    24A     -0.604344
      25A     -0.576991    26A     -0.550946    27A     -0.537537
      28A     -0.516369    29A     -0.485413    30A     -0.423556
      31A     -0.356118    32A     -0.324507

  @DF-RHF Final Energy:  -418.28659006572764

   => Energetics <=

    Nuclear Repulsion Energy =            402.3265151461692994
    One-Electron Energy =               -1367.0689269101844729
    Two-Electron Energy =                 546.4558216982873091
    DFT Exchange-Correlation Energy =       0.0000000000000000
    Empirical Dispersion Energy =           0.0000000000000000
    PCM Polarization Energy =               0.0000000000000000
    EFP Energy =                            0.0000000000000000
    Total Energy =                       -418.2865900657278644
    Molecular point group: c1
  Basis Set: 6-31G*
  Basis Set:

  -Total Gradient:
     Atom            X                  Y                   Z
    ------   -----------------  -----------------  -----------------
       1        0.000019713491     0.000023524646     0.000000000000
       2        0.000040053507    -0.000029391618     0.000000000002
       3       -0.000217668581     0.000131283885    -0.000000000006
       4        0.000043837426    -0.000227685653     0.000000000001
       5        0.000020317207     0.000085948209     0.000000000004
       6        0.000003393156    -0.000010719230     0.000000000000
       7        0.000106286292     0.000215176275    -0.000000000001
       8        0.000046409966     0.000009674823     0.000000000000
       9        0.000029378800    -0.000280405146     0.000000000018
      10       -0.000005055174    -0.000020562456    -0.000000000001
      11       -0.000043254775     0.000124066182     0.000000000005
      12        0.000026208661     0.000133335920    -0.000000000081
      13       -0.000047931714    -0.000038452580     0.000000000000
      14       -0.000075650440    -0.000077175468     0.000000000028
      15        0.000053962174    -0.000038617788     0.000000000030

  **** Optimization is complete! (in 4 steps) ****
    Final optimized geometry and variables:
    Molecular point group: c1

    Geometry (in Angstrom), charge = 0, multiplicity = 1:

    H            2.466691081476     2.514854114055     0.000000000079
    O            1.520660110652     2.471289269626     0.000000000025
    C            1.096366334253     1.188113171007    -0.000000000001
    C            1.963518763780     0.109793808971     0.000000000060
    C           -0.274493540832     0.968615007264    -0.000000000041
    H            3.027752861824     0.275533504053     0.000000000105
    C            1.462542417324    -1.186717101181     0.000000000068
    H           -0.935410148963     1.816723113914    -0.000000000078
    C           -0.764411865334    -0.325205450728    -0.000000000061
    H            2.148511745146    -2.014364728798     0.000000000116
    C            0.102804727093    -1.414658392777     0.000000000016
    C           -2.235662476713    -0.538712346888    -0.000000000082
    H           -0.298977836833    -2.409585350346     0.000000000025
    O           -2.759041790512    -1.607110512087    -0.000000000038
    H           -2.836680910418     0.375259897494     0.000000000449

  Mulliken Charges: (a.u.)
   Center  Symbol    Alpha    Beta     Spin     Total
       1     H     0.27010  0.27010  0.00000  0.45980
       2     O     4.37747  4.37747  0.00000 -0.75494
       3     C     2.79563  2.79563  0.00000  0.40874
       4     C     3.13534  3.13534  0.00000 -0.27068
       5     C     3.12801  3.12801  0.00000 -0.25602
       6     H     0.39911  0.39911  0.00000  0.20179
       7     C     3.09489  3.09489  0.00000 -0.18978
       8     H     0.38455  0.38455  0.00000  0.23090
       9     C     3.04402  3.04402  0.00000 -0.08804
      10     H     0.39250  0.39250  0.00000  0.21500
      11     C     3.10098  3.10098  0.00000 -0.20196
      12     C     2.83167  2.83167  0.00000  0.33665
      13     H     0.37844  0.37844  0.00000  0.24311
      14     O     4.24662  4.24662  0.00000 -0.49323
      15     H     0.42067  0.42067  0.00000  0.15866

   Total alpha = 32.00000, Total beta = 32.00000, Total charge = -0.00000
