  ==> Input File <==

--------------------------------------------------------------------------
set {
	reference rhf
	basis 6-31G*
}

set_num_threads( 4 )
memory 2 gb

molecule MOL {
0 1

O	 1.600544	 0.051366	 -0.496328
C	 2.701189	 0.057885	 -0.047330
C	 3.544165	 1.285712	 0.198877
O	 3.347903	 -1.046386	 0.304773
C	 2.836660	 2.584951	 -0.179978
H	 3.832318	 1.269442	 1.244772
H	 4.465565	 1.163307	 -0.364804
C	 3.716089	 3.831562	 -0.034862
H	 1.940691	 2.694576	 0.423627
H	 2.497615	 2.507093	 -1.207309
C	 4.118130	 4.173968	 1.402578
H	 3.174877	 4.676259	 -0.454745
H	 4.612321	 3.715754	 -0.642618
C	 4.901056	 5.484496	 1.505255
H	 3.222381	 4.241182	 2.018154
H	 4.719371	 3.371881	 1.824640
C	 5.312634	 5.834121	 2.936512
H	 4.300360	 6.295371	 1.096745
H	 5.791378	 5.421890	 0.881471
C	 6.090707	 7.146145	 3.030820
H	 4.424218	 5.896089	 3.561427
H	 5.916790	 5.026729	 3.345038
H	 6.368200	 7.366501	 4.057001
H	 5.499798	 7.979727	 2.661816
H	 7.003523	 7.103781	 2.443243
C	 4.728119	 -1.109107	 -0.004993
H	 4.882018	 -1.033965	 -1.071845
H	 5.068212	 -2.067527	 0.355250
H	 5.265056	 -0.311663	 0.488280

	symmetry c1
}
set optking {
	frozen_dihedral = ("
		1 2 4 26
	")
}

ee = optimize('scf')
oeprop('DIPOLE', 'QUADRUPOLE', 'MULLIKEN_CHARGES')
f=open( 'psi4out.xyz', 'w' )
f.write( "29  " )
f.write( str(ee) + "\n" )
f.write( MOL.save_string_xyz() )
f.close()
--------------------------------------------------------------------------

    Molecular point group: c1
  Charge       = 0
  Multiplicity = 1
  Basis Set: 6-31G*
  Basis Set:
  @DF-RHF Final Energy:  -501.01823548805169
    Total Energy =                       -501.0182354880513458
    Molecular point group: c1
  Basis Set: 6-31G*
  Basis Set:
  Basis Set: 6-31G*
  Basis Set:
  @DF-RHF Final Energy:  -501.01848464678778
    Total Energy =                       -501.0184846467878970
  Basis Set: 6-31G*
  Basis Set:
  Basis Set: 6-31G*
  Basis Set:
  @DF-RHF Final Energy:  -501.02408061002393
    Total Energy =                       -501.0240806100235886
  Basis Set: 6-31G*
  Basis Set:
  Basis Set: 6-31G*
  Basis Set:
  @DF-RHF Final Energy:  -501.02519219838473
    Total Energy =                       -501.0251921983852981
  Basis Set: 6-31G*
  Basis Set:
  @DF-RHF Final Energy:  -501.02509431739645
    Total Energy =                       -501.0250943173967926
  @DF-RHF Final Energy:  -501.02605982605814
    Total Energy =                       -501.0260598260585994
  Basis Set: 6-31G*
  Basis Set:
  @DF-RHF Final Energy:  -501.02607035181165
    Total Energy =                       -501.0260703518109722
  Basis Set: 6-31G*
  Basis Set:
  Basis Set: 6-31G*
  Basis Set:
  @DF-RHF Final Energy:  -501.02606192263272
    Total Energy =                       -501.0260619226322660
  Basis Set: 6-31G*
  Basis Set:
  Basis Set: 6-31G*
  Basis Set:
  @DF-RHF Final Energy:  -501.02607177105824
    Total Energy =                       -501.0260717710582412
  Basis Set: 6-31G*
  Basis Set:
  Charge       = 0
  Multiplicity = 1
  Basis Set: 6-31G*
  Basis Set:

    Orbital Energies (a.u.)
    -----------------------

    Doubly Occupied:

       1A    -20.594954     2A    -20.546405     3A    -11.373885
       4A    -11.295466     5A    -11.243160     6A    -11.223300
       7A    -11.221423     8A    -11.219732     9A    -11.218652
      10A    -11.217568    11A    -11.211378    12A     -1.460502
      13A     -1.366406    14A     -1.101328    15A     -1.068238
      16A     -1.014509    17A     -0.982065    18A     -0.944288
      19A     -0.869503    20A     -0.805203    21A     -0.794534
      22A     -0.762527    23A     -0.702542    24A     -0.683810
      25A     -0.672860    26A     -0.654301    27A     -0.632246
      28A     -0.611325    29A     -0.601962    30A     -0.588384
      31A     -0.567122    32A     -0.559242    33A     -0.543140
      34A     -0.534542    35A     -0.519991    36A     -0.503147
      37A     -0.501884    38A     -0.481097    39A     -0.473554
      40A     -0.465789    41A     -0.463086    42A     -0.451158
      43A     -0.442196    44A     -0.431972

  @DF-RHF Final Energy:  -501.02607186005491

   => Energetics <=

    Nuclear Repulsion Energy =            614.1769904975432155
    One-Electron Energy =               -1899.1653748893295415
    Two-Electron Energy =                 783.9623125317318681
    DFT Exchange-Correlation Energy =       0.0000000000000000
    Empirical Dispersion Energy =           0.0000000000000000
    PCM Polarization Energy =               0.0000000000000000
    EFP Energy =                            0.0000000000000000
    Total Energy =                       -501.0260718600545715
    Molecular point group: c1
  Basis Set: 6-31G*
  Basis Set:

  -Total Gradient:
     Atom            X                  Y                   Z
    ------   -----------------  -----------------  -----------------
       1        0.001561538726    -0.000462910360    -0.003415685582
       2       -0.002604741189    -0.000065017281     0.003342893726
       3       -0.000007835560     0.000019455963    -0.000003641019
       4        0.001704247024     0.001839974937     0.002935820893
       5        0.000011118654    -0.000009319302    -0.000000203741
       6        0.000002719329    -0.000001808918     0.000009757375
       7       -0.000006523465     0.000002065851     0.000009638260
       8       -0.000003466928     0.000002480472    -0.000001288372
       9        0.000004852439    -0.000001862514    -0.000001182299
      10       -0.000003207145     0.000002488121    -0.000004916745
      11       -0.000001386235    -0.000001265983     0.000001614478
      12       -0.000001454639     0.000000568073    -0.000000729076
      13       -0.000000992206    -0.000000195976     0.000000883312
      14        0.000001343734    -0.000000838361    -0.000000914684
      15       -0.000000699411     0.000000403430    -0.000000019837
      16       -0.000000300244    -0.000001772246     0.000000421755
      17        0.000001867979    -0.000001380770    -0.000000266185
      18        0.000000302487     0.000000031383    -0.000000005124
      19        0.000000459820    -0.000000187257    -0.000000199317
      20       -0.000001409010     0.000000563144     0.000000045088
      21        0.000000193389    -0.000000647693    -0.000000059492
      22        0.000000528752     0.000000271576    -0.000000141857
      23       -0.000000519971     0.000000177029     0.000000114031
      24        0.000000176783     0.000000457795    -0.000000386764
      25       -0.000000038453    -0.000000415480     0.000000347059
      26       -0.000654577927    -0.001317088932    -0.002864640815
      27       -0.000002667000     0.000005084487    -0.000002819123
      28        0.000000095516     0.000001859362     0.000003279312
      29        0.000000374757    -0.000011170551    -0.000007715258

  **** Optimization is complete! (in 10 steps) ****
    Final optimized geometry and variables:
    Molecular point group: c1

    Geometry (in Angstrom), charge = 0, multiplicity = 1:

    O           -2.209199124861    -2.448318506587    -1.398775974919
    C           -1.136743886870    -2.455223456217    -0.900648625232
    C           -0.313745551323    -1.206773858539    -0.651177262736
    O           -0.600393550288    -3.616960315126    -0.493648695202
    C           -1.090639049444     0.078288593828    -0.934897058839
    H            0.038292574500    -1.244748594473     0.374951159177
    H            0.575137337332    -1.248290130666    -1.277115724112
    C           -0.252414756946     1.352086456690    -0.783448382693
    H           -1.954366103705     0.125317951196    -0.278814051388
    H           -1.483045385802     0.026502377352    -1.943815266747
    C            0.214596340622     1.653782914362     0.643495387480
    H           -0.848474410507     2.189734242267    -1.137758573451
    H            0.612624606034     1.298499791209    -1.443194250016
    C            0.947802739301     2.991705698588     0.759271488838
    H           -0.647447295936     1.657354670492     1.308632237441
    H            0.870848398967     0.862289460809     0.998939809609
    C            1.424243221643     3.300923175252     2.179662134685
    H            0.292215047649     3.791348380569     0.418978172593
    H            1.803471274934     2.993168727981     0.085758154285
    C            2.151492605207     4.640762689717     2.287340000127
    H            0.570516769821     3.298811840032     2.853942554471
    H            2.083272273520     2.504850169577     2.520079528766
    H            2.476818149992     4.831324340015     3.305356373575
    H            1.506758792994     5.461890941312     1.987095329461
    H            3.030796395251     4.662128220579     1.649645332527
    C            0.768767819360    -3.888672438278    -0.684663664697
    H            1.050980939795    -3.758027819459    -1.722780662184
    H            0.907338265182    -4.922664298476    -0.410156732442
    H            1.397030491668    -3.269143509089    -0.056381858185

  Mulliken Charges: (a.u.)
   Center  Symbol    Alpha    Beta     Spin     Total
       1     O     4.25916  4.25916  0.00000 -0.51832
       2     C     2.60352  2.60352  0.00000  0.79297
       3     C     3.23086  3.23086  0.00000 -0.46171
       4     O     4.30725  4.30725  0.00000 -0.61451
       5     C     3.15159  3.15159  0.00000 -0.30318
       6     H     0.40034  0.40034  0.00000  0.19932
       7     H     0.40583  0.40583  0.00000  0.18835
       8     C     3.15724  3.15724  0.00000 -0.31447
       9     H     0.41162  0.41162  0.00000  0.17676
      10     H     0.40531  0.40531  0.00000  0.18938
      11     C     3.15470  3.15470  0.00000 -0.30939
      12     H     0.41698  0.41698  0.00000  0.16603
      13     H     0.42481  0.42481  0.00000  0.15038
      14     C     3.15035  3.15035  0.00000 -0.30071
      15     H     0.42154  0.42154  0.00000  0.15692
      16     H     0.42565  0.42565  0.00000  0.14870
      17     C     3.15149  3.15149  0.00000 -0.30299
      18     H     0.42261  0.42261  0.00000  0.15478
      19     H     0.42428  0.42428  0.00000  0.15144
      20     C     3.23942  3.23942  0.00000 -0.47885
      21     H     0.42225  0.42225  0.00000  0.15550
      22     H     0.42400  0.42400  0.00000  0.15199
      23     H     0.41888  0.41888  0.00000  0.16225
      24     H     0.42113  0.42113  0.00000  0.15774
      25     H     0.42192  0.42192  0.00000  0.15616
      26     C     3.09403  3.09403  0.00000 -0.18806
      27     H     0.41569  0.41569  0.00000  0.16862
      28     H     0.39913  0.39913  0.00000  0.20173
      29     H     0.41841  0.41841  0.00000  0.16318

   Total alpha = 44.00000, Total beta = 44.00000, Total charge = -0.00000
