  ==> Input File <==

--------------------------------------------------------------------------
set {
	reference rhf
	basis 6-31G*
}

set_num_threads( 1 )
memory 2 gb

molecule MOL {
0 1

O	 -2.821601	 1.309235	 -0.001213
C	 -2.668563	 0.129746	 -0.000350
C	 -3.801572	 -0.864014	 -0.000442
O	 -1.481751	 -0.454642	 0.000584
H	 -4.417280	 -0.689587	 -0.874708
H	 -3.443784	 -1.883046	 -0.000565
H	 -4.417179	 -0.689832	 0.873954
C	 -0.334255	 0.388708	 0.000906
C	 0.891947	 -0.504646	 0.000751
H	 -0.365390	 1.025305	 -0.873475
H	 -0.365484	 1.024911	 0.875569
C	 2.191998	 0.301789	 0.000897
H	 0.855148	 -1.151283	 -0.871571
H	 0.855132	 -1.151660	 0.872805
C	 3.441114	 -0.581407	 0.000108
H	 2.215074	 0.954890	 -0.869742
H	 2.215465	 0.953923	 0.872248
C	 3.139046	 -2.039233	 -0.343933
H	 3.916864	 -0.531648	 0.976971
H	 4.161633	 -0.183961	 -0.711199
H	 2.446318	 -2.475364	 0.370162
H	 4.043288	 -2.639670	 -0.336300
H	 2.693255	 -2.125103	 -1.330800

	symmetry c1
}
set optking {
	frozen_dihedral = ("
		13 9 8 10,
		2 4 8 10,
		16 12 9 13,
		1 2 4 8
	")
}

ee = energy('scf')
oeprop('DIPOLE', 'QUADRUPOLE', 'MULLIKEN_CHARGES')
f=open( 'psi4out.xyz', 'w' )
f.write( "23  " )
f.write( str(ee) + "\n" )
f.write( MOL.save_string_xyz() )
f.close()
--------------------------------------------------------------------------

    Molecular point group: c1

    Geometry (in Angstrom), charge = 0, multiplicity = 1:

       Center              X                  Y                   Z               Mass
    ------------   -----------------  -----------------  -----------------  -----------------
           O         -2.636813172051     1.570546706073     0.038368290784    15.994914619560
           C         -2.483775172051     0.391057706073     0.039231290784    12.000000000000
           C         -3.616784172051    -0.602702293927     0.039139290784    12.000000000000
           O         -1.296963172051    -0.193330293927     0.040165290784    15.994914619560
           H         -4.232492172051    -0.428275293927    -0.835126709216     1.007825032070
           H         -3.258996172051    -1.621734293927     0.039016290784     1.007825032070
           H         -4.232391172051    -0.428520293927     0.913535290784     1.007825032070
           C         -0.149467172051     0.650019706073     0.040487290784    12.000000000000
           C          1.076734827949    -0.243334293927     0.040332290784    12.000000000000
           H         -0.180602172051     1.286616706073    -0.833893709216     1.007825032070
           H         -0.180696172051     1.286222706073     0.915150290784     1.007825032070
           C          2.376785827949     0.563100706073     0.040478290784    12.000000000000
           H          1.039935827949    -0.889971293927    -0.831989709216     1.007825032070
           H          1.039919827949    -0.890348293927     0.912386290784     1.007825032070
           C          3.625901827949    -0.320095293927     0.039689290784    12.000000000000
           H          2.399861827949     1.216201706073    -0.830160709216     1.007825032070
           H          2.400252827949     1.215234706073     0.911829290784     1.007825032070
           C          3.323833827949    -1.777921293927    -0.304351709216    12.000000000000
           H          4.101651827949    -0.270336293927     1.016552290784     1.007825032070
           H          4.346420827949     0.077350706073    -0.671617709216     1.007825032070
           H          2.631105827949    -2.214052293927     0.409743290784     1.007825032070
           H          4.228075827949    -2.378358293927    -0.296718709216     1.007825032070
           H          2.878042827949    -1.863791293927    -1.291218709216     1.007825032070

  Charge       = 0
  Multiplicity = 1
  Basis Set: 6-31G*
  Basis Set:

    Orbital Energies (a.u.)
    -----------------------

    Doubly Occupied:

       1A    -20.602459     2A    -20.540153     3A    -11.373713
       4A    -11.280277     5A    -11.232191     6A    -11.222917
       7A    -11.222324     8A    -11.220266     9A    -11.211736
      10A     -1.467471    11A     -1.360297    12A     -1.097340
      13A     -1.040223    14A     -0.999167    15A     -0.929946
      16A     -0.862570    17A     -0.786243    18A     -0.767197
      19A     -0.691895    20A     -0.684347    21A     -0.670742
      22A     -0.646714    23A     -0.610912    24A     -0.602914
      25A     -0.573327    26A     -0.563271    27A     -0.553372
      28A     -0.536018    29A     -0.531727    30A     -0.503578
      31A     -0.499610    32A     -0.471589    33A     -0.469703
      34A     -0.454116    35A     -0.449978    36A     -0.434990

  @DF-RHF Final Energy:  -422.96697853736566

   => Energetics <=

    Nuclear Repulsion Energy =            458.4249993811866943
    One-Electron Energy =               -1484.4533755925283458
    Two-Electron Energy =                 603.0613976739774671
    DFT Exchange-Correlation Energy =       0.0000000000000000
    Empirical Dispersion Energy =           0.0000000000000000
    PCM Polarization Energy =               0.0000000000000000
    EFP Energy =                            0.0000000000000000
    Total Energy =                       -422.9669785373642981

  Mulliken Charges: (a.u.)
   Center  Symbol    Alpha    Beta     Spin     Total
       1     O     4.28400  4.28400  0.00000 -0.56800
       2     C     2.61520  2.61520  0.00000  0.76960
       3     C     3.28768  3.28768  0.00000 -0.57537
       4     O     4.31298  4.31298  0.00000 -0.62597
       5     H     0.39756  0.39756  0.00000  0.20489
       6     H     0.39997  0.39997  0.00000  0.20007
       7     H     0.39757  0.39757  0.00000  0.20487
       8     C     2.99320  2.99320  0.00000  0.01361
       9     C     3.17246  3.17246  0.00000 -0.34493
      10     H     0.41111  0.41111  0.00000  0.17778
      11     H     0.41119  0.41119  0.00000  0.17762
      12     C     3.16346  3.16346  0.00000 -0.32691
      13     H     0.41086  0.41086  0.00000  0.17828
      14     H     0.41312  0.41312  0.00000  0.17376
      15     C     3.15377  3.15377  0.00000 -0.30754
      16     H     0.41876  0.41876  0.00000  0.16247
      17     H     0.41775  0.41775  0.00000  0.16450
      18     C     3.24745  3.24745  0.00000 -0.49490
      19     H     0.41911  0.41911  0.00000  0.16178
      20     H     0.41809  0.41809  0.00000  0.16383
      21     H     0.41808  0.41808  0.00000  0.16385
      22     H     0.41654  0.41654  0.00000  0.16691
      23     H     0.42010  0.42010  0.00000  0.15981

   Total alpha = 36.00000, Total beta = 36.00000, Total charge = -0.00000
