  ==> Input File <==

--------------------------------------------------------------------------
set {
	reference rhf
	basis 6-31G*
}

set_num_threads( 1 )
memory 2 gb

molecule MOL {
0 1

H	 2.968701	 -1.152295	 0.340083
N	 3.092854	 -0.246221	 -0.068770
C	 1.865559	 0.531981	 0.018834
H	 3.347466	 -0.393569	 -1.027045
C	 0.645745	 -0.382037	 -0.029944
H	 1.841966	 1.207024	 -0.831236
H	 1.815756	 1.155410	 0.915079
C	 -0.679275	 0.379305	 0.025956
H	 0.698998	 -0.976915	 -0.937203
H	 0.693479	 -1.083846	 0.802235
C	 -1.903357	 -0.536963	 -0.023547
H	 -0.726309	 1.082987	 -0.803784
H	 -0.717680	 0.977832	 0.934877
C	 -3.225172	 0.228290	 0.028445
H	 -1.867824	 -1.134999	 -0.931459
H	 -1.860449	 -1.239604	 0.805977
H	 -3.313397	 0.915643	 -0.808262
H	 -4.073500	 -0.448134	 -0.008893
H	 -3.306061	 0.809945	 0.942516

	symmetry c1
}
set optking {
	frozen_dihedral = ("
		6 3 5 9,
		12 8 5 9,
		12 8 11 15
	")
}

ee = energy('scf')
oeprop('DIPOLE', 'QUADRUPOLE', 'MULLIKEN_CHARGES')
f=open( 'psi4out.xyz', 'w' )
f.write( "19  " )
f.write( str(ee) + "\n" )
f.write( MOL.save_string_xyz() )
f.close()
--------------------------------------------------------------------------

    Molecular point group: c1

    Geometry (in Angstrom), charge = 0, multiplicity = 1:

       Center              X                  Y                   Z               Mass
    ------------   -----------------  -----------------  -----------------  -----------------
           H          2.977685513299    -1.139854181841     0.355442992819     1.007825032070
           N          3.101838513299    -0.233780181841    -0.053410007181    14.003074004780
           C          1.874543513299     0.544421818159     0.034193992819    12.000000000000
           H          3.356450513299    -0.381128181841    -1.011685007181     1.007825032070
           C          0.654729513299    -0.369596181841    -0.014584007181    12.000000000000
           H          1.850950513299     1.219464818159    -0.815876007181     1.007825032070
           H          1.824740513299     1.167850818159     0.930438992819     1.007825032070
           C         -0.670290486701     0.391745818159     0.041315992819    12.000000000000
           H          0.707982513299    -0.964474181841    -0.921843007181     1.007825032070
           H          0.702463513299    -1.071405181841     0.817594992819     1.007825032070
           C         -1.894372486701    -0.524522181841    -0.008187007181    12.000000000000
           H         -0.717324486701     1.095427818159    -0.788424007181     1.007825032070
           H         -0.708695486701     0.990272818159     0.950236992819     1.007825032070
           C         -3.216187486701     0.240730818159     0.043804992819    12.000000000000
           H         -1.858839486701    -1.122558181841    -0.916099007181     1.007825032070
           H         -1.851464486701    -1.227163181841     0.821336992819     1.007825032070
           H         -3.304412486701     0.928083818159    -0.792902007181     1.007825032070
           H         -4.064515486701    -0.435693181841     0.006466992819     1.007825032070
           H         -3.297076486701     0.822385818159     0.957875992819     1.007825032070

  Charge       = 0
  Multiplicity = 1
  Basis Set: 6-31G*
  Basis Set:

    Orbital Energies (a.u.)
    -----------------------

    Doubly Occupied:

       1A    -15.530520     2A    -11.240634     3A    -11.216700
       4A    -11.215383     5A    -11.213609     6A    -11.209513
       7A     -1.178328     8A     -1.075300     9A     -0.999645
      10A     -0.901146    11A     -0.819540    12A     -0.793834
      13A     -0.676178    14A     -0.638874    15A     -0.601259
      16A     -0.590782    17A     -0.569669    18A     -0.558304
      19A     -0.524150    20A     -0.503980    21A     -0.483595
      22A     -0.470434    23A     -0.466660    24A     -0.464155
      25A     -0.372002

  @DF-RHF Final Energy:  -251.34799916512492

   => Energetics <=

    Nuclear Repulsion Energy =            246.2496704599208215
    One-Electron Energy =                -826.5668713674301671
    Two-Electron Energy =                 328.9692017423843708
    DFT Exchange-Correlation Energy =       0.0000000000000000
    Empirical Dispersion Energy =           0.0000000000000000
    PCM Polarization Energy =               0.0000000000000000
    EFP Energy =                            0.0000000000000000
    Total Energy =                       -251.3479991651249748

  Mulliken Charges: (a.u.)
   Center  Symbol    Alpha    Beta     Spin     Total
       1     H     0.33373  0.33373  0.00000  0.33254
       2     N     3.92180  3.92180  0.00000 -0.84361
       3     C     3.05529  3.05529  0.00000 -0.11057
       4     H     0.33313  0.33313  0.00000  0.33373
       5     C     3.16256  3.16256  0.00000 -0.32511
       6     H     0.42254  0.42254  0.00000  0.15491
       7     H     0.41957  0.41957  0.00000  0.16086
       8     C     3.15503  3.15503  0.00000 -0.31006
       9     H     0.42551  0.42551  0.00000  0.14897
      10     H     0.42538  0.42538  0.00000  0.14924
      11     C     3.15083  3.15083  0.00000 -0.30167
      12     H     0.42387  0.42387  0.00000  0.15226
      13     H     0.42259  0.42259  0.00000  0.15483
      14     C     3.23935  3.23935  0.00000 -0.47870
      15     H     0.42329  0.42329  0.00000  0.15343
      16     H     0.42300  0.42300  0.00000  0.15400
      17     H     0.42178  0.42178  0.00000  0.15644
      18     H     0.41923  0.41923  0.00000  0.16153
      19     H     0.42151  0.42151  0.00000  0.15699

   Total alpha = 25.00000, Total beta = 25.00000, Total charge = -0.00000
