  ==> Input File <==

--------------------------------------------------------------------------
set {
	reference rhf
	basis cc-pvtz
}

set_num_threads( 4 )
memory 2 gb

molecule MOL {
0 1

H	 -0.520378	 -1.601596	 0.297151
N	 -0.625934	 -0.663929	 -0.000707
C	 -1.937247	 -0.216535	 -0.407395
C	 0.468494	 0.129045	 -0.002160
H	 -2.301131	 -0.794989	 -1.248209
H	 -1.867320	 0.817148	 -0.700146
H	 -2.647052	 -0.302747	 0.406719
C	 1.785715	 -0.615093	 0.000603
O	 0.413285	 1.323206	 0.000532
H	 1.866994	 -1.243310	 -0.878792
H	 2.591506	 0.100263	 0.006422
H	 1.860358	 -1.250360	 0.875522

	symmetry c1
}
set optking {
	frozen_dihedral = ("
		3 2 4 9
	")
}

ee = optimize('scf')
oeprop('DIPOLE', 'QUADRUPOLE', 'MULLIKEN_CHARGES')
f=open( 'psi4out.xyz', 'w' )
f.write( "12  " )
f.write( str(ee) + "\n" )
f.write( MOL.save_string_xyz() )
f.close()
--------------------------------------------------------------------------

    Molecular point group: c1
  Charge       = 0
  Multiplicity = 1
  Basis Set: CC-PVTZ
  Basis Set:
  @DF-RHF Final Energy:  -247.09672192016575
    Total Energy =                       -247.0967219201658054
    Molecular point group: c1
  Basis Set: CC-PVTZ
  Basis Set:
  Basis Set: CC-PVTZ
  Basis Set:
  @DF-RHF Final Energy:  -247.09807335233447
    Total Energy =                       -247.0980733523344952
  Basis Set: CC-PVTZ
  Basis Set:
  Basis Set: CC-PVTZ
  Basis Set:
  @DF-RHF Final Energy:  -247.09952501511410
    Total Energy =                       -247.0995250151141249
  Basis Set: CC-PVTZ
  Basis Set:
  Basis Set: CC-PVTZ
  Basis Set:
  @DF-RHF Final Energy:  -247.09972114021349
    Total Energy =                       -247.0997211402134326
  Basis Set: CC-PVTZ
  Basis Set:
  @DF-RHF Final Energy:  -247.09979784664603
    Total Energy =                       -247.0997978466460836
  @DF-RHF Final Energy:  -247.10001710547158
    Total Energy =                       -247.1000171054716361
  @DF-RHF Final Energy:  -247.10021842574346
    Total Energy =                       -247.1002184257434919
  Basis Set: CC-PVTZ
  Basis Set:
  @DF-RHF Final Energy:  -247.10040068433344
    Total Energy =                       -247.1004006843335219
  Basis Set: CC-PVTZ
  Basis Set:
  Basis Set: CC-PVTZ
  Basis Set:
  @DF-RHF Final Energy:  -247.10041552796588
    Total Energy =                       -247.1004155279660495
  Basis Set: CC-PVTZ
  Basis Set:
  Basis Set: CC-PVTZ
  Basis Set:
  @DF-RHF Final Energy:  -247.10041840941761
    Total Energy =                       -247.1004184094175571
  Basis Set: CC-PVTZ
  Basis Set:
  Charge       = 0
  Multiplicity = 1
  Basis Set: CC-PVTZ
  Basis Set:

    Orbital Energies (a.u.)
    -----------------------

    Doubly Occupied:

       1A    -20.510082     2A    -15.575299     3A    -11.337058
       4A    -11.253492     5A    -11.229463     6A     -1.391552
       7A     -1.231139     8A     -1.016639     9A     -0.932482
      10A     -0.784832    11A     -0.691204    12A     -0.652311
      13A     -0.635829    14A     -0.588073    15A     -0.583556
      16A     -0.555040    17A     -0.547257    18A     -0.508382
      19A     -0.420700    20A     -0.393726

  @DF-RHF Final Energy:  -247.10041920932701

   => Energetics <=

    Nuclear Repulsion Energy =            181.7920338917137428
    One-Electron Energy =                -696.1086747514301578
    Two-Electron Energy =                 267.2162216503894570
    DFT Exchange-Correlation Energy =       0.0000000000000000
    Empirical Dispersion Energy =           0.0000000000000000
    PCM Polarization Energy =               0.0000000000000000
    EFP Energy =                            0.0000000000000000
    Total Energy =                       -247.1004192093270149
    Molecular point group: c1
  Basis Set: CC-PVTZ
  Basis Set:

  -Total Gradient:
     Atom            X                  Y                   Z
    ------   -----------------  -----------------  -----------------
       1        0.000010280896    -0.000003960151    -0.000003487106
       2       -0.000429338915     0.004120458202     0.005814394255
       3        0.000413946677    -0.002180584834    -0.002609933814
       4       -0.000340654579    -0.003615813975    -0.007087291509
       5        0.000006601285    -0.000010584792     0.000018117189
       6       -0.000007222170     0.000005363314     0.000014821180
       7       -0.000037252796     0.000018748302     0.000009608558
       8       -0.000008821404    -0.000006644407    -0.000032425984
       9        0.000379208024     0.001660279719     0.003835810600
      10        0.000003941226     0.000022508545     0.000011916298
      11        0.000000642543     0.000001238890     0.000018057210
      12        0.000008669217    -0.000011008809     0.000010413121

  **** Optimization is complete! (in 11 steps) ****
    Final optimized geometry and variables:
    Molecular point group: c1

    Geometry (in Angstrom), charge = 0, multiplicity = 1:

    H           -0.538267062543    -1.501370946310     0.614599944536
    N           -0.653105736792    -0.543478673082     0.387458719226
    C           -1.953900712431    -0.155904368035    -0.116724567490
    C            0.466558602115     0.119243257833    -0.002442487211
    H           -2.063668402674    -0.371896017433    -1.173992805311
    H           -2.097345355223     0.902497032351     0.029807336398
    H           -2.715945094479    -0.690674463515     0.432779182362
    C            1.767693806610    -0.614208923645     0.229817773918
    O            0.433631584318     1.218566583810    -0.466940307153
    H            1.983356873302    -1.227045301480    -0.638566042935
    H            2.561142793443     0.107056730989     0.345340731282
    H            1.725058576652    -1.257021976109     1.099726861511

  Mulliken Charges: (a.u.)
   Center  Symbol    Alpha    Beta     Spin     Total
       1     H     0.41834  0.41834  0.00000  0.16332
       2     N     3.61316  3.61316  0.00000 -0.22631
       3     C     3.08130  3.08130  0.00000 -0.16260
       4     C     2.83919  2.83919  0.00000  0.32161
       5     H     0.45910  0.45910  0.00000  0.08179
       6     H     0.43719  0.43719  0.00000  0.12561
       7     H     0.45385  0.45385  0.00000  0.09230
       8     C     3.15069  3.15069  0.00000 -0.30138
       9     O     4.21225  4.21225  0.00000 -0.42449
      10     H     0.44628  0.44628  0.00000  0.10744
      11     H     0.43462  0.43462  0.00000  0.13076
      12     H     0.45402  0.45402  0.00000  0.09195

   Total alpha = 20.00000, Total beta = 20.00000, Total charge = -0.00000
