  ==> Input File <==

--------------------------------------------------------------------------
set {
	reference rhf
	basis cc-pvtz
}

set_num_threads( 4 )
memory 2 gb

molecule MOL {
0 1

H	 2.436864	 1.390392	 1.428403
N	 1.569883	 0.898379	 1.385308
C	 1.263552	 0.494993	 0.021953
H	 0.865972	 1.510057	 1.742654
C	 -0.016533	 -0.325589	 -0.026925
H	 2.089487	 -0.109179	 -0.338327
H	 1.173583	 1.340946	 -0.660875
C	 -1.280353	 0.525521	 0.047747
H	 -0.016686	 -0.912532	 -0.939714
H	 -0.014099	 -1.037598	 0.796369
C	 -2.560681	 -0.301323	 -0.007747
H	 -1.279957	 1.241025	 -0.770189
H	 -1.270445	 1.110526	 0.963468
H	 -2.617064	 -0.872870	 -0.928010
H	 -3.439525	 0.331102	 0.043462
H	 -2.609427	 -1.002736	 0.818585

	symmetry c1
}
set optking {
	frozen_dihedral = ("
		6 3 5 9
	")
}

ee = optimize('scf')
oeprop('DIPOLE', 'QUADRUPOLE', 'MULLIKEN_CHARGES')
f=open( 'psi4out.xyz', 'w' )
f.write( "16  " )
f.write( str(ee) + "\n" )
f.write( MOL.save_string_xyz() )
f.close()
--------------------------------------------------------------------------

    Molecular point group: c1
  Charge       = 0
  Multiplicity = 1
  Basis Set: CC-PVTZ
  Basis Set:
  @DF-RHF Final Energy:  -212.39830709126349
    Total Energy =                       -212.3983070912635185
    Molecular point group: c1
  Basis Set: CC-PVTZ
  Basis Set:
  Basis Set: CC-PVTZ
  Basis Set:
  @DF-RHF Final Energy:  -212.39852451826516
    Total Energy =                       -212.3985245182649919
  Basis Set: CC-PVTZ
  Basis Set:
  Basis Set: CC-PVTZ
  Basis Set:
  @DF-RHF Final Energy:  -212.39856805506830
    Total Energy =                       -212.3985680550681536
  Basis Set: CC-PVTZ
  Basis Set:
  Basis Set: CC-PVTZ
  Basis Set:
  @DF-RHF Final Energy:  -212.39857038122679
    Total Energy =                       -212.3985703812269321
  Basis Set: CC-PVTZ
  Basis Set:
  Charge       = 0
  Multiplicity = 1
  Basis Set: CC-PVTZ
  Basis Set:

    Orbital Energies (a.u.)
    -----------------------

    Doubly Occupied:

       1A    -15.526755     2A    -11.238312     3A    -11.213685
       4A    -11.207375     5A    -11.206095     6A     -1.178393
       7A     -1.059033     8A     -0.961374     9A     -0.850770
      10A     -0.784087    11A     -0.666791    12A     -0.643857
      13A     -0.598181    14A     -0.586426    15A     -0.552753
      16A     -0.524635    17A     -0.514989    18A     -0.472580
      19A     -0.466081    20A     -0.454158    21A     -0.383653

  @DF-RHF Final Energy:  -212.39857107482695

   => Energetics <=

    Nuclear Repulsion Energy =            188.6345583842143867
    One-Electron Energy =                -659.8862895518531104
    Two-Electron Energy =                 258.8531600928117200
    DFT Exchange-Correlation Energy =       0.0000000000000000
    Empirical Dispersion Energy =           0.0000000000000000
    PCM Polarization Energy =               0.0000000000000000
    EFP Energy =                            0.0000000000000000
    Total Energy =                       -212.3985710748269753
    Molecular point group: c1
  Basis Set: CC-PVTZ
  Basis Set:

  -Total Gradient:
     Atom            X                  Y                   Z
    ------   -----------------  -----------------  -----------------
       1        0.000048045884     0.000035197499     0.000047569048
       2        0.000032518778    -0.000052957096    -0.000074091362
       3        0.000784523536    -0.001703807723     0.003654545690
       4       -0.000047700355     0.000024617443    -0.000002620321
       5       -0.001692470460     0.002969780996    -0.002333939432
       6       -0.000446435373     0.000923686401    -0.002681663630
       7        0.000005100535     0.000042890595    -0.000012491673
       8        0.000086692803    -0.000046117826     0.000017991241
       9        0.001269585419    -0.002183553731     0.001356263402
      10       -0.000007577083    -0.000012274483     0.000029430459
      11       -0.000022773360    -0.000014016784    -0.000015509044
      12        0.000003281720     0.000000932425     0.000011357396
      13       -0.000004546617     0.000006010225     0.000000032076
      14        0.000002080552     0.000003346257     0.000011464023
      15       -0.000024096079    -0.000005912548    -0.000006292433
      16        0.000013770100     0.000012178350    -0.000002045443

  **** Optimization is complete! (in 5 steps) ****
    Final optimized geometry and variables:
    Molecular point group: c1

    Geometry (in Angstrom), charge = 0, multiplicity = 1:

    H            2.666853665142     1.075047826703     1.127403040288
    N            1.772352240314     0.634244485751     1.089687791259
    C            1.460966923475     0.210324897782    -0.267095620760
    H            1.107289675374     1.300303187375     1.421455764344
    C            0.166293424463    -0.593510662343    -0.331893179755
    H            2.276768441484    -0.406640056224    -0.624975377226
    H            1.392734854002     1.047751630280    -0.964531894070
    C           -1.105493227517     0.246545508827    -0.251954968312
    H            0.162414817954    -1.176545218924    -1.248952576801
    H            0.177419770696    -1.312728390429     0.481628076353
    C           -2.376527223885    -0.593785602606    -0.319126534173
    H           -1.108968668550     0.970987760745    -1.062085443382
    H           -1.111215733399     0.819156668091     0.671373448687
    H           -2.423550457389    -1.156400204428    -1.245622511608
    H           -3.263059081188     0.027615496319    -0.264113569982
    H           -2.418059308608    -1.303908178892     0.499743834212

  Mulliken Charges: (a.u.)
   Center  Symbol    Alpha    Beta     Spin     Total
       1     H     0.42922  0.42922  0.00000  0.14156
       2     N     3.68809  3.68809  0.00000 -0.37618
       3     C     3.03624  3.03624  0.00000 -0.07249
       4     H     0.43071  0.43071  0.00000  0.13859
       5     C     3.08802  3.08802  0.00000 -0.17605
       6     H     0.45178  0.45178  0.00000  0.09644
       7     H     0.46717  0.46717  0.00000  0.06565
       8     C     3.08380  3.08380  0.00000 -0.16759
       9     H     0.45350  0.45350  0.00000  0.09301
      10     H     0.45098  0.45098  0.00000  0.09804
      11     C     3.14955  3.14955  0.00000 -0.29911
      12     H     0.45534  0.45534  0.00000  0.08932
      13     H     0.45811  0.45811  0.00000  0.08378
      14     H     0.45499  0.45499  0.00000  0.09002
      15     H     0.44909  0.44909  0.00000  0.10181
      16     H     0.45340  0.45340  0.00000  0.09320

   Total alpha = 21.00000, Total beta = 21.00000, Total charge = -0.00000
