  ==> Input File <==

--------------------------------------------------------------------------
set {
	reference rhf
	basis 6-31G*
}

set_num_threads( 1 )
memory 2 gb

molecule MOL {
0 1

O	 -0.495642	 0.517548	 -2.818909
C	 -1.113860	 0.563037	 -1.799022
C	 -0.889235	 -0.467034	 -0.705952
C	 -2.121644	 1.658123	 -1.529697
C	 0.379448	 -0.143569	 0.099626
H	 -0.777761	 -1.434386	 -1.183558
H	 -1.748278	 -0.514153	 -0.042739
C	 1.631333	 -0.777471	 -0.511575
H	 0.482768	 0.934507	 0.149241
H	 0.263088	 -0.495696	 1.123449
C	 2.915987	 -0.544314	 0.291766
H	 1.766672	 -0.399098	 -1.523130
H	 1.471257	 -1.849544	 -0.605828
C	 3.373361	 0.914346	 0.347591
H	 3.708709	 -1.142521	 -0.150311
H	 2.780642	 -0.921148	 1.303579
H	 3.506512	 1.320010	 -0.651625
H	 4.322697	 0.999599	 0.867103
H	 2.660624	 1.545032	 0.868198
H	 -3.119369	 1.230691	 -1.473916
H	 -2.089927	 2.393430	 -2.321594
H	 -1.924244	 2.135777	 -0.574352

	symmetry c1
}
set optking {
	frozen_dihedral = ("
		6 3 2 1,
		3 5 8 12,
		12 8 11 15
	")
}

ee = energy('scf')
oeprop('DIPOLE', 'QUADRUPOLE', 'MULLIKEN_CHARGES')
f=open( 'psi4out.xyz', 'w' )
f.write( "22  " )
f.write( str(ee) + "\n" )
f.write( MOL.save_string_xyz() )
f.close()
--------------------------------------------------------------------------

    Molecular point group: c1

    Geometry (in Angstrom), charge = 0, multiplicity = 1:

       Center              X                  Y                   Z               Mass
    ------------   -----------------  -----------------  -----------------  -----------------
           O         -0.965113268151     0.284885704620    -1.986129721749    15.994914619560
           C         -1.583331268151     0.330374704620    -0.966242721749    12.000000000000
           C         -1.358706268151    -0.699696295380     0.126827278251    12.000000000000
           C         -2.591115268151     1.425460704620    -0.696917721749    12.000000000000
           C         -0.090023268151    -0.376231295380     0.932405278251    12.000000000000
           H         -1.247232268151    -1.667048295380    -0.350778721749     1.007825032070
           H         -2.217749268151    -0.746815295380     0.790040278251     1.007825032070
           C          1.161861731849    -1.010133295380     0.321204278251    12.000000000000
           H          0.013296731849     0.701844704620     0.982020278251     1.007825032070
           H         -0.206383268151    -0.728358295380     1.956228278251     1.007825032070
           C          2.446515731849    -0.776976295380     1.124545278251    12.000000000000
           H          1.297200731849    -0.631760295380    -0.690350721749     1.007825032070
           H          1.001785731849    -2.082206295380     0.226951278251     1.007825032070
           C          2.903889731849     0.681683704620     1.180370278251    12.000000000000
           H          3.239237731849    -1.375183295380     0.682468278251     1.007825032070
           H          2.311170731849    -1.153810295380     2.136358278251     1.007825032070
           H          3.037040731849     1.087347704620     0.181154278251     1.007825032070
           H          3.853225731849     0.766936704620     1.699882278251     1.007825032070
           H          2.191152731849     1.312369704620     1.700977278251     1.007825032070
           H         -3.588840268151     0.998028704620    -0.641136721749     1.007825032070
           H         -2.559398268151     2.160767704620    -1.488814721749     1.007825032070
           H         -2.393715268151     1.903114704620     0.258427278251     1.007825032070

  Charge       = 0
  Multiplicity = 1
  Basis Set: 6-31G*
  Basis Set:

    Orbital Energies (a.u.)
    -----------------------

    Doubly Occupied:

       1A    -20.548271     2A    -11.325251     3A    -11.229219
       4A    -11.229115     5A    -11.228273     6A    -11.215547
       7A    -11.213702     8A    -11.208137     9A     -1.394275
      10A     -1.092955    11A     -1.042179    12A     -0.999113
      13A     -0.933741    14A     -0.856443    15A     -0.783077
      16A     -0.734827    17A     -0.660618    18A     -0.642450
      19A     -0.625659    20A     -0.608406    21A     -0.598177
      22A     -0.585236    23A     -0.557801    24A     -0.547585
      25A     -0.531098    26A     -0.517696    27A     -0.503632
      28A     -0.482680    29A     -0.466419    30A     -0.460091
      31A     -0.451396    32A     -0.396365

  @DF-RHF Final Energy:  -348.09535731258688

   => Energetics <=

    Nuclear Repulsion Energy =            380.2898874525612882
    One-Electron Energy =               -1225.4315590078083460
    Two-Electron Energy =                 497.0463142426609693
    DFT Exchange-Correlation Energy =       0.0000000000000000
    Empirical Dispersion Energy =           0.0000000000000000
    PCM Polarization Energy =               0.0000000000000000
    EFP Energy =                            0.0000000000000000
    Total Energy =                       -348.0953573125860885

  Mulliken Charges: (a.u.)
   Center  Symbol    Alpha    Beta     Spin     Total
       1     O     4.26126  4.26126  0.00000 -0.52252
       2     C     2.73934  2.73934  0.00000  0.52131
       3     C     3.20328  3.20328  0.00000 -0.40656
       4     C     3.28906  3.28906  0.00000 -0.57811
       5     C     3.16246  3.16246  0.00000 -0.32492
       6     H     0.40047  0.40047  0.00000  0.19906
       7     H     0.41398  0.41398  0.00000  0.17204
       8     C     3.15653  3.15653  0.00000 -0.31307
       9     H     0.41705  0.41705  0.00000  0.16590
      10     H     0.41630  0.41630  0.00000  0.16740
      11     C     3.15391  3.15391  0.00000 -0.30782
      12     H     0.40546  0.40546  0.00000  0.18908
      13     H     0.42176  0.42176  0.00000  0.15648
      14     C     3.24164  3.24164  0.00000 -0.48329
      15     H     0.41923  0.41923  0.00000  0.16154
      16     H     0.42499  0.42499  0.00000  0.15001
      17     H     0.41878  0.41878  0.00000  0.16243
      18     H     0.41907  0.41907  0.00000  0.16186
      19     H     0.42236  0.42236  0.00000  0.15528
      20     H     0.40656  0.40656  0.00000  0.18689
      21     H     0.39704  0.39704  0.00000  0.20592
      22     H     0.40946  0.40946  0.00000  0.18108

   Total alpha = 32.00000, Total beta = 32.00000, Total charge =  0.00000
