                              Psi4 1.0.54 Driver

  ==> Input File <==

--------------------------------------------------------------------------
set {
	reference rhf
	basis cc-pvtz
}

set_num_threads( 4 )
memory 2 gb

molecule MOL {
0 1

O	 -2.054282	 -3.235197	 0.435635
C	 -1.262064	 -3.358921	 -0.441015
C	 -0.443918	 -2.179193	 -0.927766
C	 -1.014189	 -4.694149	 -1.101692
C	 0.791903	 -1.964497	 -0.044875
H	 -1.076967	 -1.301913	 -0.886070
H	 -0.139408	 -2.331802	 -1.957741
C	 1.630207	 -0.772146	 -0.501001
H	 0.459805	 -1.826299	 0.976320
H	 1.409548	 -2.859322	 -0.055034
C	 2.907848	 -0.545876	 0.309149
H	 1.019806	 0.126861	 -0.466727
H	 1.902563	 -0.915235	 -1.543091
C	 3.373802	 0.906639	 0.372125
H	 3.699140	 -1.146831	 -0.127906
H	 2.764321	 -0.923458	 1.318191
H	 3.519798	 1.311927	 -0.623875
H	 4.316899	 0.983758	 0.900700
H	 2.661122	 1.540651	 0.885346
H	 -1.363099	 -4.654260	 -2.128663
H	 -1.539826	 -5.474227	 -0.572774
H	 0.046865	 -4.915074	 -1.132437

	symmetry c1
}
set optking {
	frozen_dihedral = ("
		12 8 11 15
	")
}

ee,wfn = optimize('scf', return_wfn=True)
oeprop( wfn, 'DIPOLE', 'QUADRUPOLE', 'MULLIKEN_CHARGES')
f=open( 'psi4out.xyz', 'w' )
f.write( "22  " )
f.write( str(ee) + "\n" )
f.write( MOL.save_string_xyz() )
f.close()
--------------------------------------------------------------------------

    Molecular point group: c1
  Charge       = 0
  Multiplicity = 1
  Basis Set: CC-PVTZ
  Basis Set:
  @DF-RHF Final Energy:  -348.22217835262933
    Total Energy =                       -348.2221783526293848
    Molecular point group: c1
  Basis Set: CC-PVTZ
  Basis Set:
  Basis Set: CC-PVTZ
  Basis Set:
  @DF-RHF Final Energy:  -348.22259017945385
    Total Energy =                       -348.2225901794536185
  Basis Set: CC-PVTZ
  Basis Set:
  Basis Set: CC-PVTZ
  Basis Set:
  @DF-RHF Final Energy:  -348.22246921641249
    Total Energy =                       -348.2224692164120370
  Basis Set: CC-PVTZ
  Basis Set:
  Basis Set: CC-PVTZ
  Basis Set:
  @DF-RHF Final Energy:  -348.22261322635194
    Total Energy =                       -348.2226132263514273
  Basis Set: CC-PVTZ
  Basis Set:
  Basis Set: CC-PVTZ
  Basis Set:
  @DF-RHF Final Energy:  -348.22260893211728
    Total Energy =                       -348.2226089321172822
  Basis Set: CC-PVTZ
  Basis Set:
  Basis Set: CC-PVTZ
  Basis Set:
  @DF-RHF Final Energy:  -348.22261779608311
    Total Energy =                       -348.2226177960835116
  Basis Set: CC-PVTZ
  Basis Set:
  Basis Set: CC-PVTZ
  Basis Set:
  @DF-RHF Final Energy:  -348.22262727309965
    Total Energy =                       -348.2226272730994765
  Basis Set: CC-PVTZ
  Basis Set:
  Charge       = 0
  Multiplicity = 1
  Basis Set: CC-PVTZ
  Basis Set:

    Orbital Energies (a.u.)
    -----------------------

    Doubly Occupied:

       1A    -20.536788     2A    -11.319322     3A    -11.228826
       4A    -11.227643     5A    -11.226903     6A    -11.220226
       7A    -11.218794     8A    -11.210650     9A     -1.396914
      10A     -1.097046    11A     -1.046783    12A     -1.001669
      13A     -0.939677    14A     -0.846742    15A     -0.799566
      16A     -0.733911    17A     -0.666115    18A     -0.648674
      19A     -0.633199    20A     -0.610927    21A     -0.597291
      22A     -0.583912    23A     -0.561544    24A     -0.555022
      25A     -0.529426    26A     -0.516369    27A     -0.500100
      28A     -0.488010    29A     -0.476093    30A     -0.466566
      31A     -0.461903    32A     -0.398479

  @DF-RHF Final Energy:  -348.22262734949379

   => Energetics <=

    Nuclear Repulsion Energy =            369.3085493807312787
    One-Electron Energy =               -1203.5721767966529114
    Two-Electron Energy =                 486.0410000664282393
    DFT Exchange-Correlation Energy =       0.0000000000000000
    Empirical Dispersion Energy =           0.0000000000000000
    PCM Polarization Energy =               0.0000000000000000
    EFP Energy =                            0.0000000000000000
    Total Energy =                       -348.2226273494933935
    Molecular point group: c1
  Basis Set: CC-PVTZ
  Basis Set:

  -Total Gradient:
     Atom            X                  Y                   Z
    ------   -----------------  -----------------  -----------------
       1        0.000009311211     0.000002618776     0.000006642255
       2        0.000007613226    -0.000018685511    -0.000002079394
       3        0.000005114241    -0.000004407358    -0.000001916327
       4       -0.000033917375     0.000000948822    -0.000006167139
       5       -0.000009963289     0.000006951435     0.000011047697
       6        0.000000285892     0.000000458753    -0.000003310764
       7        0.000003272864     0.000007852996     0.000008220885
       8       -0.002195324047    -0.001049764352     0.003765807069
       9       -0.000003558819    -0.000004887960    -0.000010218108
      10       -0.000005789439    -0.000001304850    -0.000001761848
      11       -0.000888055854    -0.003680465089     0.002281180518
      12        0.001991083402     0.001460863378    -0.003503801962
      13        0.000009321171     0.000007416049     0.000004781251
      14       -0.000006882912     0.000019083559     0.000005485123
      15        0.001100524108     0.003245757139    -0.002545933335
      16       -0.000003186423     0.000001804648    -0.000012859911
      17        0.000003218636    -0.000004100469     0.000009381581
      18       -0.000008583410     0.000003099897    -0.000000637319
      19        0.000005239144     0.000000689807    -0.000010318264
      20        0.000009609464    -0.000001933344     0.000002027654
      21        0.000004864036     0.000003965970    -0.000001794938
      22        0.000005804171     0.000004037707     0.000006225276

  **** Optimization is complete! (in 8 steps) ****
    Final optimized geometry and variables:
    Molecular point group: c1

    Geometry (in Angstrom), charge = 0, multiplicity = 1:

    O           -2.551647018856    -1.253400020859     0.690187916945
    C           -1.763537212763    -1.374917760222    -0.190343962984
    C           -0.953684012000    -0.192477652498    -0.683912112065
    C           -1.514223281354    -2.709933545773    -0.850882245199
    C            0.298254138280     0.016549777706     0.176428030206
    H           -1.585261195342     0.684794652231    -0.625376652792
    H           -0.667773335855    -0.339223371256    -1.720094527151
    C            1.127620792786     1.215010462300    -0.270601049055
    H           -0.007646642167     0.148900485926     1.208311382239
    H            0.917455355703    -0.876687475567     0.148186735555
    C            2.414841911111     1.409703212137     0.539243709150
    H            0.529091880123     2.120928356128    -0.232627906988
    H            1.389249152053     1.096352483491    -1.319455846004
    C            2.890847413028     2.860358882256     0.552611841080
    H            3.204518654445     0.802630319335     0.107522294390
    H            2.268775765206     1.070876310852     1.559743904703
    H            3.047980662109     3.228831338330    -0.456023340616
    H            3.826635287801     2.961653321713     1.090146379623
    H            2.161964698859     3.506800454710     1.029387622288
    H           -1.874300433418    -2.673717411197    -1.874113991764
    H           -2.030226250651    -3.491829589715    -0.315255813878
    H           -0.452471266135    -2.925393459461    -0.892441885558

  Mulliken Charges: (a.u.)
   Center  Symbol    Alpha    Beta     Spin     Total
       1     O     4.17787  4.17787  0.00000 -0.35574
       2     C     2.85836  2.85836  0.00000  0.28327
       3     C     3.09841  3.09841  0.00000 -0.19682
       4     C     3.15524  3.15524  0.00000 -0.31049
       5     C     3.10073  3.10073  0.00000 -0.20146
       6     H     0.43885  0.43885  0.00000  0.12229
       7     H     0.44911  0.44911  0.00000  0.10179
       8     C     3.09058  3.09058  0.00000 -0.18116
       9     H     0.44076  0.44076  0.00000  0.11848
      10     H     0.45134  0.45134  0.00000  0.09732
      11     C     3.08543  3.08543  0.00000 -0.17085
      12     H     0.45158  0.45158  0.00000  0.09684
      13     H     0.45380  0.45380  0.00000  0.09240
      14     C     3.14911  3.14911  0.00000 -0.29821
      15     H     0.45323  0.45323  0.00000  0.09354
      16     H     0.45292  0.45292  0.00000  0.09416
      17     H     0.45478  0.45478  0.00000  0.09045
      18     H     0.44838  0.44838  0.00000  0.10324
      19     H     0.45429  0.45429  0.00000  0.09143
      20     H     0.44834  0.44834  0.00000  0.10331
      21     H     0.43602  0.43602  0.00000  0.12797
      22     H     0.45088  0.45088  0.00000  0.09823

   Total alpha = 32.00000, Total beta = 32.00000, Total charge = -0.00000

*** Psi4 exiting successfully. Buy a developer a beer!
