  ==> Input File <==

--------------------------------------------------------------------------
set {
	reference rhf
	basis 6-31G*
}

set_num_threads( 4 )
memory 2 gb

molecule MOL {
0 1

O	 1.214711	 1.306902	 -0.000018
C	 1.122059	 0.121804	 -0.000188
C	 -0.170150	 -0.657997	 -0.000612
O	 2.172624	 -0.688929	 0.000216
C	 -1.412532	 0.227344	 -0.000452
H	 -0.153702	 -1.313099	 -0.867402
H	 -0.153924	 -1.313811	 0.865644
C	 -1.838648	 0.630937	 1.411958
H	 -2.225326	 -0.295605	 -0.494815
H	 -1.219892	 1.115266	 -0.594580
C	 -3.081992	 1.519202	 1.421294
H	 -2.029636	 -0.262395	 2.003192
H	 -1.019754	 1.152212	 1.903646
H	 -3.928444	 1.012584	 0.966859
H	 -3.362882	 1.790630	 2.434064
H	 -2.911146	 2.437551	 0.867140
C	 3.452279	 -0.082609	 0.000533
H	 3.583069	 0.529321	 -0.880332
H	 4.163299	 -0.894027	 0.001117
H	 3.582335	 0.529955	 0.881077

	symmetry c1
}
set optking {
	frozen_dihedral = ("
		9 5 3 6
	")
}

ee = optimize('scf')
oeprop('DIPOLE', 'QUADRUPOLE', 'MULLIKEN_CHARGES')
f=open( 'psi4out.xyz', 'w' )
f.write( "20  " )
f.write( str(ee) + "\n" )
f.write( MOL.save_string_xyz() )
f.close()
--------------------------------------------------------------------------

    Molecular point group: c1
  Charge       = 0
  Multiplicity = 1
  Basis Set: 6-31G*
  Basis Set:
  @DF-RHF Final Energy:  -383.94001649232791
    Total Energy =                       -383.9400164923276861
    Molecular point group: c1
  Basis Set: 6-31G*
  Basis Set:
  Basis Set: 6-31G*
  Basis Set:
  @DF-RHF Final Energy:  -383.94020212084729
    Total Energy =                       -383.9402021208471751
  Basis Set: 6-31G*
  Basis Set:
  Basis Set: 6-31G*
  Basis Set:
  @DF-RHF Final Energy:  -383.94023576791994
    Total Energy =                       -383.9402357679201714
  Basis Set: 6-31G*
  Basis Set:
  Basis Set: 6-31G*
  Basis Set:
  @DF-RHF Final Energy:  -383.94023372319765
    Total Energy =                       -383.9402337231971387
  Basis Set: 6-31G*
  Basis Set:
  Charge       = 0
  Multiplicity = 1
  Basis Set: 6-31G*
  Basis Set:

    Orbital Energies (a.u.)
    -----------------------

    Doubly Occupied:

       1A    -20.604599     2A    -20.546627     3A    -11.373429
       4A    -11.281524     5A    -11.235566     6A    -11.218802
       7A    -11.215011     8A    -11.207132     9A     -1.470438
      10A     -1.363745    11A     -1.086314    12A     -1.022353
      13A     -0.968650    14A     -0.884343    15A     -0.804978
      16A     -0.766640    17A     -0.703454    18A     -0.680745
      19A     -0.672571    20A     -0.629236    21A     -0.606824
      22A     -0.587880    23A     -0.578842    24A     -0.544809
      25A     -0.530505    26A     -0.515075    27A     -0.512243
      28A     -0.475916    29A     -0.470155    30A     -0.462225
      31A     -0.456088    32A     -0.438548

  @DF-RHF Final Energy:  -383.94024520235905

   => Energetics <=

    Nuclear Repulsion Energy =            387.2172914271834543
    One-Electron Energy =               -1290.4845325383007548
    Two-Electron Energy =                 519.3269959087585903
    DFT Exchange-Correlation Energy =       0.0000000000000000
    Empirical Dispersion Energy =           0.0000000000000000
    PCM Polarization Energy =               0.0000000000000000
    EFP Energy =                            0.0000000000000000
    Total Energy =                       -383.9402452023587102
    Molecular point group: c1
  Basis Set: 6-31G*
  Basis Set:

  -Total Gradient:
     Atom            X                  Y                   Z
    ------   -----------------  -----------------  -----------------
       1        0.000004635124    -0.000076874131    -0.000029319423
       2       -0.000078007039     0.000020805930     0.000066836417
       3        0.002047980570     0.003198101344    -0.002660060038
       4        0.000038098207     0.000029049403    -0.000024760825
       5       -0.001353128352    -0.002165467436     0.003733381849
       6       -0.001552982414    -0.002201011395     0.001632603231
       7        0.000015832713    -0.000018852674     0.000044902125
       8        0.000019185475    -0.000120691255     0.000016413021
       9        0.000791418499     0.001270734820    -0.002722253355
      10        0.000021258394     0.000033697062    -0.000043255845
      11        0.000008420519     0.000006345019    -0.000042193944
      12        0.000020461171     0.000013270691     0.000025127418
      13       -0.000010116699     0.000000789857    -0.000005241312
      14        0.000018529147     0.000012154041     0.000005634043
      15        0.000002956937    -0.000001170055     0.000005510413
      16       -0.000019419235     0.000007826422    -0.000004496822
      17        0.000011097503    -0.000019606541     0.000008006461
      18        0.000000580333     0.000001747761    -0.000003782741
      19        0.000012871140     0.000008253335    -0.000002284682
      20        0.000000328001     0.000000897805    -0.000000765989

  **** Optimization is complete! (in 5 steps) ****
    Final optimized geometry and variables:
    Molecular point group: c1

    Geometry (in Angstrom), charge = 0, multiplicity = 1:

    O            0.999075455578     1.002475433136    -0.342397279554
    C            0.905880846773    -0.182806591275    -0.358269196608
    C           -0.384675297854    -0.965973002743    -0.376163291592
    O            1.956607879177    -0.992510230125    -0.362015950494
    C           -1.643310710407    -0.096430161827    -0.345860198715
    H           -0.369250225508    -1.615863554843    -1.245767421401
    H           -0.357120216965    -1.641915615327     0.474922826247
    C           -2.059599711819     0.327659909193     1.062748156631
    H           -2.452942982012    -0.634998892740    -0.831480030595
    H           -1.470085139158     0.788904105692    -0.948485090319
    C           -3.297350135617     1.223009090768     1.066960635672
    H           -2.252159945826    -0.558560707597     1.664628415530
    H           -1.233371719821     0.852064360435     1.534437487526
    H           -4.149100710623     0.718324918245     0.619152202086
    H           -3.574212043210     1.504573950212     2.078105901489
    H           -3.120397277673     2.135672414133     0.505738593097
    C            3.236323334686    -0.386145507419    -0.347326815830
    H            3.371175919863     0.237769296409    -1.219094046127
    H            3.947305175495    -1.197523336071    -0.354524077078
    H            3.361970268660     0.214115572388     0.542257489065

  Mulliken Charges: (a.u.)
   Center  Symbol    Alpha    Beta     Spin     Total
       1     O     4.28650  4.28650  0.00000 -0.57300
       2     C     2.60700  2.60700  0.00000  0.78599
       3     C     3.21046  3.21046  0.00000 -0.42093
       4     O     4.30619  4.30619  0.00000 -0.61239
       5     C     3.15609  3.15609  0.00000 -0.31218
       6     H     0.39730  0.39730  0.00000  0.20540
       7     H     0.40022  0.40022  0.00000  0.19956
       8     C     3.15505  3.15505  0.00000 -0.31010
       9     H     0.41956  0.41956  0.00000  0.16087
      10     H     0.40483  0.40483  0.00000  0.19034
      11     C     3.24062  3.24062  0.00000 -0.48124
      12     H     0.42540  0.42540  0.00000  0.14921
      13     H     0.41245  0.41245  0.00000  0.17510
      14     H     0.42296  0.42296  0.00000  0.15408
      15     H     0.41889  0.41889  0.00000  0.16223
      16     H     0.41794  0.41794  0.00000  0.16413
      17     C     3.09231  3.09231  0.00000 -0.18463
      18     H     0.40891  0.40891  0.00000  0.18219
      19     H     0.40831  0.40831  0.00000  0.18339
      20     H     0.40901  0.40901  0.00000  0.18199

   Total alpha = 32.00000, Total beta = 32.00000, Total charge =  0.00000
