                              Psi4 1.0.54 Driver

  ==> Input File <==

--------------------------------------------------------------------------
set {
	reference rhf
	basis cc-pvtz
}

set_num_threads( 4 )
memory 2 gb

molecule MOL {
0 1

H	 -3.162190	 0.493205	 -0.000107
C	 -2.363908	 -0.234727	 0.000005
O	 -1.158738	 0.454634	 -0.000087
H	 -2.464314	 -0.863616	 -0.882153
H	 -2.464327	 -0.863359	 0.882345
C	 -0.028611	 -0.359694	 0.000037
C	 -0.444533	 -1.790845	 -0.274206
H	 0.479484	 -0.293937	 0.962406
H	 0.676259	 -0.021115	 -0.759677
C	 0.741286	 -2.748925	 -0.290507
H	 -1.159295	 -2.093945	 0.482875
H	 -0.964031	 -1.823293	 -1.225532
H	 1.261663	 -2.750215	 0.661487
H	 0.415956	 -3.762882	 -0.488175
H	 1.458077	 -2.477938	 -1.058521

	symmetry c1
}
set optking {
	frozen_dihedral = ("
		8 6 3 2
	")
}

ee,wfn = optimize('scf', return_wfn=True)
oeprop( wfn, 'DIPOLE', 'QUADRUPOLE', 'MULLIKEN_CHARGES')
f=open( 'psi4out.xyz', 'w' )
f.write( "15  " )
f.write( str(ee) + "\n" )
f.write( MOL.save_string_xyz() )
f.close()
--------------------------------------------------------------------------

    Molecular point group: c1
  Charge       = 0
  Multiplicity = 1
  Basis Set: CC-PVTZ
  Basis Set:
  @DF-RHF Final Energy:  -232.20159311994277
    Total Energy =                       -232.2015931199429133
    Molecular point group: c1
  Basis Set: CC-PVTZ
  Basis Set:
  Basis Set: CC-PVTZ
  Basis Set:
  @DF-RHF Final Energy:  -231.12807988954447
    Total Energy =                       -231.1280798895442956
  Basis Set: CC-PVTZ
  Basis Set:
  Basis Set: CC-PVTZ
  Basis Set:
  @DF-RHF Final Energy:  -231.32247641503281
    Total Energy =                       -231.3224764150328099
  Basis Set: CC-PVTZ
  Basis Set:
  Basis Set: CC-PVTZ
  Basis Set:
  @DF-RHF Final Energy:  -231.69129934927014
    Total Energy =                       -231.6912993492701958
  Basis Set: CC-PVTZ
  Basis Set:
  @DF-RHF Final Energy:  -231.98090073466571
    Total Energy =                       -231.9809007346658518
  @DF-RHF Final Energy:  -232.14023965510577
    Total Energy =                       -232.1402396551058018
  @DF-RHF Final Energy:  -231.40940736472564
    Total Energy =                       -231.4094073647256664
  @DF-RHF Final Energy:  -231.69424289184263
    Total Energy =                       -231.6942428918425776
  @DF-RHF Final Energy:  -231.99350290600125
    Total Energy =                       -231.9935029060013392
  @DF-RHF Final Energy:  -232.15843667848489
    Total Energy =                       -232.1584366784851454
  @DF-RHF Final Energy:  -232.20603003983032
    Total Energy =                       -232.2060300398303525
  @DF-RHF Final Energy:  -232.20980084463676
    Total Energy =                       -232.2098008446367317
  @DF-RHF Final Energy:  -232.21735927384026
    Total Energy =                       -232.2173592738402590
  Basis Set: CC-PVTZ
  Basis Set:
  @DF-RHF Final Energy:  -232.21779075269529
    Total Energy =                       -232.2177907526954073
  Basis Set: CC-PVTZ
  Basis Set:
  Basis Set: CC-PVTZ
  Basis Set:
  @DF-RHF Final Energy:  -232.21784321558059
    Total Energy =                       -232.2178432155805581
  Basis Set: CC-PVTZ
  Basis Set:
  Basis Set: CC-PVTZ
  Basis Set:
  @DF-RHF Final Energy:  -232.21787352965009
    Total Energy =                       -232.2178735296502055
  Basis Set: CC-PVTZ
  Basis Set:
  Charge       = 0
  Multiplicity = 1
  Basis Set: CC-PVTZ
  Basis Set:

    Orbital Energies (a.u.)
    -----------------------

    Doubly Occupied:

       1A    -20.540561     2A    -11.264032     3A    -11.259915
       4A    -11.220939     5A    -11.215322     6A     -1.369985
       7A     -1.060563     8A     -0.962928     9A     -0.886456
      10A     -0.797531    11A     -0.672390    12A     -0.660843
      13A     -0.627362    14A     -0.607281    15A     -0.556560
      16A     -0.544463    17A     -0.523782    18A     -0.500942
      19A     -0.492636    20A     -0.444823    21A     -0.403639

  @DF-RHF Final Energy:  -232.21787451238998

   => Energetics <=

    Nuclear Repulsion Energy =            192.2308304545153419
    One-Electron Energy =                -695.6715014130795680
    Two-Electron Energy =                 271.2227964461741294
    DFT Exchange-Correlation Energy =       0.0000000000000000
    Empirical Dispersion Energy =           0.0000000000000000
    PCM Polarization Energy =               0.0000000000000000
    EFP Energy =                            0.0000000000000000
    Total Energy =                       -232.2178745123900967
    Molecular point group: c1
  Basis Set: CC-PVTZ
  Basis Set:

  -Total Gradient:
     Atom            X                  Y                   Z
    ------   -----------------  -----------------  -----------------
       1       -0.000053089286     0.000016169007     0.000066547357
       2        0.000230674533    -0.002938357375     0.000306790790
       3        0.000524807864     0.004234798134    -0.000370835242
       4        0.000006347566    -0.000012302001     0.000021367350
       5        0.000025960970     0.000018758744     0.000037543155
       6       -0.004115524060    -0.000325987562    -0.000579447995
       7        0.000042615764    -0.000017222326     0.000016565385
       8        0.003256975399    -0.000949260734     0.000470540658
       9        0.000067118379    -0.000038489483     0.000062669925
      10       -0.000089434551    -0.000025543341     0.000009869150
      11       -0.000032274649     0.000051561247    -0.000104600573
      12        0.000012496183    -0.000020769909    -0.000010164243
      13        0.000009123643     0.000013673444     0.000015004545
      14        0.000112817173     0.000012310174    -0.000022469521
      15        0.000001385074    -0.000019338018     0.000080619259

  **** Optimization is complete! (in 17 steps) ****
    Final optimized geometry and variables:
    Molecular point group: c1

    Geometry (in Angstrom), charge = 0, multiplicity = 1:

    H            0.184492875510    -0.221973316046    -3.018250830954
    C           -0.212686992075    -0.116242264810    -2.018889355521
    O            0.879203899936     0.025419301699    -1.170582940997
    H           -0.805003988820    -0.996638498801    -1.793903087876
    H           -0.864781103358     0.753350015679    -2.004565153880
    C            0.695560145614     0.186272333247     0.212386268765
    C           -0.672867744592    -0.149081562223     0.788144386767
    H            0.967141526331     1.206634745836     0.473740777936
    H            1.433072849662    -0.451592964464     0.688813257388
    C           -0.686112586910     0.053688339496     2.300624034384
    H           -1.438903791783     0.471966184113     0.337887624791
    H           -0.925563552083    -1.179305180945     0.561918400230
    H           -0.461940355259     1.082335771218     2.561276458159
    H           -1.657531669612    -0.187467363171     2.714065682663
    H            0.047071371444    -0.578737424700     2.789303952600

  Mulliken Charges: (a.u.)
   Center  Symbol    Alpha    Beta     Spin     Total
       1     H     0.44214  0.44214  0.00000  0.11572
       2     C     3.03639  3.03639  0.00000 -0.07278
       3     O     4.18087  4.18087  0.00000 -0.36175
       4     H     0.46966  0.46966  0.00000  0.06069
       5     H     0.47198  0.47198  0.00000  0.05603
       6     C     2.95806  2.95806  0.00000  0.08389
       7     C     3.10453  3.10453  0.00000 -0.20906
       8     H     0.46774  0.46774  0.00000  0.06452
       9     H     0.46232  0.46232  0.00000  0.07535
      10     C     3.15248  3.15248  0.00000 -0.30496
      11     H     0.45046  0.45046  0.00000  0.09908
      12     H     0.44986  0.44986  0.00000  0.10028
      13     H     0.45387  0.45387  0.00000  0.09226
      14     H     0.44625  0.44625  0.00000  0.10750
      15     H     0.45339  0.45339  0.00000  0.09322

   Total alpha = 21.00000, Total beta = 21.00000, Total charge = -0.00000

*** Psi4 exiting successfully. Buy a developer a beer!
