                              Psi4 1.0.54 Driver

  ==> Input File <==

--------------------------------------------------------------------------
set {
	reference rhf
	basis cc-pvtz
}

set_num_threads( 4 )
memory 2 gb

molecule MOL {
0 1

H	 -1.088256	 -1.364742	 0.152233
O	 -1.432053	 -0.565244	 -0.200812
C	 -0.727158	 0.534527	 0.310686
C	 0.680222	 0.664433	 -0.252229
H	 -1.306802	 1.408001	 0.044211
H	 -0.690821	 0.490158	 1.397609
C	 1.162314	 2.105892	 -0.385751
H	 1.360410	 0.107861	 0.384014
H	 0.696195	 0.186439	 -1.227891
H	 1.217158	 2.598478	 0.578860
H	 2.153605	 2.144882	 -0.820922
H	 0.500258	 2.684861	 -1.022488

	symmetry c1
}
set optking {
	frozen_dihedral = ("
		8 4 3 2
	")
}

ee,wfn = optimize('scf', return_wfn=True)
oeprop( wfn, 'DIPOLE', 'QUADRUPOLE', 'MULLIKEN_CHARGES')
f=open( 'psi4out.xyz', 'w' )
f.write( "12  " )
f.write( str(ee) + "\n" )
f.write( MOL.save_string_xyz() )
f.close()
--------------------------------------------------------------------------

    Molecular point group: c1
  Charge       = 0
  Multiplicity = 1
  Basis Set: CC-PVTZ
  Basis Set:
  @DF-RHF Final Energy:  -193.18764351399011
    Total Energy =                       -193.1876435139901957
    Molecular point group: c1
  Basis Set: CC-PVTZ
  Basis Set:
  Basis Set: CC-PVTZ
  Basis Set:
  @DF-RHF Final Energy:  -193.18773251561686
    Total Energy =                       -193.1877325156168581
  Basis Set: CC-PVTZ
  Basis Set:
  Basis Set: CC-PVTZ
  Basis Set:
  @DF-RHF Final Energy:  -193.18816269789500
    Total Energy =                       -193.1881626978952795
  Basis Set: CC-PVTZ
  Basis Set:
  Basis Set: CC-PVTZ
  Basis Set:
  @DF-RHF Final Energy:  -193.18818453607949
    Total Energy =                       -193.1881845360795182
  Basis Set: CC-PVTZ
  Basis Set:
  Basis Set: CC-PVTZ
  Basis Set:
  @DF-RHF Final Energy:  -193.18818674167440
    Total Energy =                       -193.1881867416742580
  Basis Set: CC-PVTZ
  Basis Set:
  Charge       = 0
  Multiplicity = 1
  Basis Set: CC-PVTZ
  Basis Set:

    Orbital Energies (a.u.)
    -----------------------

    Doubly Occupied:

       1A    -20.546117     2A    -11.265540     3A    -11.216704
       4A    -11.213020     5A     -1.363574     6A     -1.052662
       7A     -0.918062     8A     -0.819492     9A     -0.694688
      10A     -0.633334    11A     -0.605390    12A     -0.588059
      13A     -0.538188    14A     -0.507245    15A     -0.494803
      16A     -0.468216    17A     -0.432096

  @DF-RHF Final Energy:  -193.18818697726456

   => Energetics <=

    Nuclear Repulsion Energy =            131.0588137333473640
    One-Electron Energy =                -521.7796280277359529
    Two-Electron Energy =                 197.5326273171239677
    DFT Exchange-Correlation Energy =       0.0000000000000000
    Empirical Dispersion Energy =           0.0000000000000000
    PCM Polarization Energy =               0.0000000000000000
    EFP Energy =                            0.0000000000000000
    Total Energy =                       -193.1881869772645928
    Molecular point group: c1
  Basis Set: CC-PVTZ
  Basis Set:

  -Total Gradient:
     Atom            X                  Y                   Z
    ------   -----------------  -----------------  -----------------
       1        0.000005998327    -0.000000131031     0.000005499901
       2       -0.001448664885     0.002376640075    -0.002786337110
       3        0.002085950691    -0.002237924781     0.004528116168
       4       -0.001059715576    -0.004005991615    -0.004739784755
       5       -0.000018531666    -0.000008487658    -0.000011990592
       6        0.000000596327    -0.000016962990     0.000011940205
       7       -0.000008897746     0.000005280897    -0.000016855271
       8        0.000433155960     0.003887470238     0.003013615249
       9        0.000011435365    -0.000006983815    -0.000014533315
      10        0.000000740584    -0.000005206635     0.000029135615
      11        0.000002173752     0.000004133593    -0.000006496976
      12       -0.000004241136     0.000008163723    -0.000012309121

  **** Optimization is complete! (in 6 steps) ****
    Final optimized geometry and variables:
    Molecular point group: c1

    Geometry (in Angstrom), charge = 0, multiplicity = 1:

    H           -0.795570738868    -2.078199687198     0.031272472516
    O           -1.243522138077    -1.284732115823    -0.200298072485
    C           -0.616152065638    -0.181934623177     0.397834082399
    C            0.797190343510     0.069140739421    -0.126352595473
    H           -1.246941031887     0.664199583065     0.157556287653
    H           -0.610206405118    -0.278771122654     1.480546947368
    C            1.178314819929     1.547251239555    -0.073625539758
    H            1.516489335185    -0.480279489936     0.475042493197
    H            0.858229415489    -0.294771330145    -1.144763519281
    H            1.091456602993     1.939554353389     0.934767767271
    H            2.201403497520     1.698434030294    -0.396451346056
    H            0.535153601592     2.139626658841    -0.714932206572

  Mulliken Charges: (a.u.)
   Center  Symbol    Alpha    Beta     Spin     Total
       1     H     0.39511  0.39511  0.00000  0.20979
       2     O     4.20054  4.20054  0.00000 -0.40107
       3     C     2.96411  2.96411  0.00000  0.07178
       4     C     3.09399  3.09399  0.00000 -0.18798
       5     H     0.46053  0.46053  0.00000  0.07893
       6     H     0.46961  0.46961  0.00000  0.06077
       7     C     3.15164  3.15164  0.00000 -0.30327
       8     H     0.45915  0.45915  0.00000  0.08169
       9     H     0.44841  0.44841  0.00000  0.10318
      10     H     0.45545  0.45545  0.00000  0.08910
      11     H     0.44846  0.44846  0.00000  0.10308
      12     H     0.45300  0.45300  0.00000  0.09400

   Total alpha = 17.00000, Total beta = 17.00000, Total charge = -0.00000

*** Psi4 exiting successfully. Buy a developer a beer!
