  ==> Input File <==

--------------------------------------------------------------------------
set {
	reference rhf
	basis 6-31G*
}

set_num_threads( 1 )
memory 2 gb

molecule MOL {
0 1

H	 -0.261533	 3.653213	 1.703807
O	 -0.260245	 3.660926	 0.757062
C	 -0.200987	 2.345418	 0.274447
C	 1.190027	 1.759578	 0.440392
H	 -0.928357	 1.704844	 0.765320
H	 -0.453053	 2.384607	 -0.775970
O	 1.171513	 0.459272	 -0.058250
H	 1.474232	 1.762057	 1.494528
H	 1.911759	 2.375270	 -0.093095
C	 2.397842	 -0.198080	 -0.002151
H	 2.508049	 -0.905315	 -0.822092
H	 3.173794	 0.550865	 -0.078850
H	 2.517602	 -0.735921	 0.936026

	symmetry c1
}
set optking {
	frozen_dihedral = ("
		8 4 3 5,
		1 2 3 5,
		10 7 4 8
	")
}

ee = energy('scf')
oeprop('DIPOLE', 'QUADRUPOLE', 'MULLIKEN_CHARGES')
f=open( 'psi4out.xyz', 'w' )
f.write( "13  " )
f.write( str(ee) + "\n" )
f.write( MOL.save_string_xyz() )
f.close()
--------------------------------------------------------------------------

    Molecular point group: c1

    Geometry (in Angstrom), charge = 0, multiplicity = 1:

       Center              X                  Y                   Z               Mass
    ------------   -----------------  -----------------  -----------------  -----------------
           H         -1.119342955773     2.027239218910     1.402911180809     1.007825032070
           O         -1.118054955773     2.034952218910     0.456166180809    15.994914619560
           C         -1.058796955773     0.719444218910    -0.026448819191    12.000000000000
           C          0.332217044227     0.133604218910     0.139496180809    12.000000000000
           H         -1.786166955773     0.078870218910     0.464424180809     1.007825032070
           H         -1.310862955773     0.758633218910    -1.076865819191     1.007825032070
           O          0.313703044227    -1.166701781090    -0.359145819191    15.994914619560
           H          0.616422044227     0.136083218910     1.193632180809     1.007825032070
           H          1.053949044227     0.749296218910    -0.393990819191     1.007825032070
           C          1.540032044227    -1.824053781090    -0.303046819191    12.000000000000
           H          1.650239044227    -2.531288781090    -1.122987819191     1.007825032070
           H          2.315984044227    -1.075108781090    -0.379745819191     1.007825032070
           H          1.659792044227    -2.361894781090     0.635130180809     1.007825032070

  Charge       = 0
  Multiplicity = 1
  Basis Set: 6-31G*
  Basis Set:

    Orbital Energies (a.u.)
    -----------------------

    Doubly Occupied:

       1A    -20.560295     2A    -20.560279     3A    -11.271783
       4A    -11.270124     5A    -11.269065     6A     -1.388333
       7A     -1.365284     8A     -1.018020     9A     -0.913210
      10A     -0.843257    11A     -0.710025    12A     -0.672857
      13A     -0.657815    14A     -0.641061    15A     -0.595250
      16A     -0.570405    17A     -0.546404    18A     -0.490160
      19A     -0.480458    20A     -0.438780    21A     -0.419474

  @DF-RHF Final Energy:  -267.94747429095906

   => Energetics <=

    Nuclear Repulsion Energy =            190.3247447330311388
    One-Electron Energy =                -743.1797756362656173
    Two-Electron Energy =                 284.9075566122748455
    DFT Exchange-Correlation Energy =       0.0000000000000000
    Empirical Dispersion Energy =           0.0000000000000000
    PCM Polarization Energy =               0.0000000000000000
    EFP Energy =                            0.0000000000000000
    Total Energy =                       -267.9474742909596330

  Mulliken Charges: (a.u.)
   Center  Symbol    Alpha    Beta     Spin     Total
       1     H     0.28123  0.28123  0.00000  0.43754
       2     O     4.37086  4.37086  0.00000 -0.74171
       3     C     3.00474  3.00474  0.00000 -0.00948
       4     C     2.99796  2.99796  0.00000  0.00408
       5     H     0.42206  0.42206  0.00000  0.15587
       6     H     0.40836  0.40836  0.00000  0.18329
       7     O     4.30917  4.30917  0.00000 -0.61833
       8     H     0.43743  0.43743  0.00000  0.12515
       9     H     0.42232  0.42232  0.00000  0.15535
      10     C     3.07701  3.07701  0.00000 -0.15401
      11     H     0.41367  0.41367  0.00000  0.17266
      12     H     0.42946  0.42946  0.00000  0.14109
      13     H     0.42575  0.42575  0.00000  0.14851

   Total alpha = 21.00000, Total beta = 21.00000, Total charge = -0.00000
