  ==> Input File <==

--------------------------------------------------------------------------
set {
	reference rhf
	basis 6-31G*
}

set_num_threads( 4 )
memory 2 gb

molecule MOL {
0 1

H	 -1.775718	 -1.380248	 1.337509
C	 -2.284471	 -0.949489	 0.477416
O	 -1.392607	 -0.295399	 -0.366433
H	 -2.746875	 -1.745069	 -0.090366
H	 -3.061931	 -0.277001	 0.837615
C	 -0.719715	 0.768384	 0.229244
C	 0.719720	 0.768376	 -0.229267
H	 -1.185038	 1.714362	 -0.050570
H	 -0.750528	 0.687237	 1.313896
O	 1.392611	 -0.295398	 0.366430
H	 0.750534	 0.687200	 -1.313918
H	 1.185043	 1.714359	 0.050526
C	 2.706965	 -0.449871	 -0.062409
H	 2.756559	 -0.644779	 -1.131878
H	 3.305899	 0.433456	 0.155466
H	 3.125548	 -1.294566	 0.467107

	symmetry c1
}
set optking {
	frozen_dihedral = ("
		2 3 6 7
	")
}

ee = optimize('scf')
oeprop('DIPOLE', 'QUADRUPOLE', 'MULLIKEN_CHARGES')
f=open( 'psi4out.xyz', 'w' )
f.write( "16  " )
f.write( str(ee) + "\n" )
f.write( MOL.save_string_xyz() )
f.close()
--------------------------------------------------------------------------

    Molecular point group: c1
  Charge       = 0
  Multiplicity = 1
  Basis Set: 6-31G*
  Basis Set:
  @DF-RHF Final Energy:  -306.97594229711689
    Total Energy =                       -306.9759422971169442
    Molecular point group: c1
  Basis Set: 6-31G*
  Basis Set:
  Basis Set: 6-31G*
  Basis Set:
  @DF-RHF Final Energy:  -306.97609091128083
    Total Energy =                       -306.9760909112808918
  Basis Set: 6-31G*
  Basis Set:
  Basis Set: 6-31G*
  Basis Set:
  @DF-RHF Final Energy:  -306.97612824977028
    Total Energy =                       -306.9761282497700563
  Basis Set: 6-31G*
  Basis Set:
  Basis Set: 6-31G*
  Basis Set:
  @DF-RHF Final Energy:  -306.97612925334016
    Total Energy =                       -306.9761292533402184
  Basis Set: 6-31G*
  Basis Set:
  Charge       = 0
  Multiplicity = 1
  Basis Set: 6-31G*
  Basis Set:

    Orbital Energies (a.u.)
    -----------------------

    Doubly Occupied:

       1A    -20.554685     2A    -20.550170     3A    -11.268046
       4A    -11.267389     5A    -11.264471     6A    -11.261422
       7A     -1.386867     8A     -1.367750     9A     -1.029852
      10A     -0.937279    11A     -0.890230    12A     -0.823524
      13A     -0.681483    14A     -0.680517    15A     -0.656009
      16A     -0.631871    17A     -0.629075    18A     -0.600413
      19A     -0.544005    20A     -0.539142    21A     -0.511596
      22A     -0.476330    23A     -0.463390    24A     -0.416560
      25A     -0.408939

  @DF-RHF Final Energy:  -306.97612936060938

   => Energetics <=

    Nuclear Repulsion Energy =            260.3177037181876017
    One-Electron Energy =                -934.9056339853331110
    Two-Electron Energy =                 367.6118009065360752
    DFT Exchange-Correlation Energy =       0.0000000000000000
    Empirical Dispersion Energy =           0.0000000000000000
    PCM Polarization Energy =               0.0000000000000000
    EFP Energy =                            0.0000000000000000
    Total Energy =                       -306.9761293606094910
    Molecular point group: c1
  Basis Set: 6-31G*
  Basis Set:

  -Total Gradient:
     Atom            X                  Y                   Z
    ------   -----------------  -----------------  -----------------
       1       -0.000002815638     0.000002188295    -0.000000500286
       2        0.000752130072    -0.000639259996     0.000289537805
       3       -0.000986382207     0.000732235545    -0.000178731351
       4       -0.000001278404    -0.000002518896     0.000007095945
       5       -0.000002103616    -0.000000339951     0.000005406062
       6        0.000003485475     0.000414372175    -0.000835176070
       7        0.000232620149    -0.000552389393     0.000705538579
       8        0.000009118604     0.000003880946    -0.000000981536
       9        0.000001129910     0.000005028137     0.000012043639
      10       -0.000012332541     0.000023435248    -0.000006906736
      11       -0.000000307329     0.000005053963    -0.000000243179
      12        0.000008360482     0.000004618216     0.000001463822
      13        0.000002928150     0.000004264951     0.000001979031
      14       -0.000002325276     0.000000184950    -0.000000014024
      15        0.000000336626    -0.000000830782    -0.000000498191
      16       -0.000002564453     0.000000076594    -0.000000013509

  **** Optimization is complete! (in 5 steps) ****
    Final optimized geometry and variables:
    Molecular point group: c1

    Geometry (in Angstrom), charge = 0, multiplicity = 1:

    H           -1.860602706600    -1.296917348483     1.268094838160
    C           -2.363124667284    -0.875974521253     0.401114761164
    O           -1.466387002564    -0.206982525182    -0.428127370099
    H           -2.798681842437    -1.679727329969    -0.176707712317
    H           -3.162402904671    -0.221143937284     0.744166370422
    C           -0.788374949101     0.864766398862     0.156624642945
    C            0.650834302703     0.867153912363    -0.305015010192
    H           -1.265520311549     1.802027832335    -0.123971993741
    H           -0.803288426570     0.792050838420     1.240352151814
    O            1.317453089387    -0.199294044034     0.295226400874
    H            0.682812801667     0.781088932710    -1.389228220356
    H            1.120432631225     1.812210704900    -0.028782550634
    C            2.627205825429    -0.373119552753    -0.141269609248
    H            2.666756943673    -0.577976645952    -1.209168849057
    H            3.237329076302     0.505154642224     0.064531333863
    H            3.040157824846    -1.217792998360     0.392876430284

  Mulliken Charges: (a.u.)
   Center  Symbol    Alpha    Beta     Spin     Total
       1     H     0.42407  0.42407  0.00000  0.15185
       2     C     3.07947  3.07947  0.00000 -0.15895
       3     O     4.30463  4.30463  0.00000 -0.60925
       4     H     0.41332  0.41332  0.00000  0.17335
       5     H     0.43202  0.43202  0.00000  0.13597
       6     C     2.99489  2.99489  0.00000  0.01022
       7     C     2.99313  2.99313  0.00000  0.01375
       8     H     0.42680  0.42680  0.00000  0.14640
       9     H     0.42256  0.42256  0.00000  0.15489
      10     O     4.30299  4.30299  0.00000 -0.60599
      11     H     0.42273  0.42273  0.00000  0.15453
      12     H     0.43313  0.43313  0.00000  0.13374
      13     C     3.07927  3.07927  0.00000 -0.15855
      14     H     0.42771  0.42771  0.00000  0.14459
      15     H     0.43140  0.43140  0.00000  0.13720
      16     H     0.41188  0.41188  0.00000  0.17624

   Total alpha = 25.00000, Total beta = 25.00000, Total charge = -0.00000
