  ==> Input File <==

--------------------------------------------------------------------------
set {
	reference rhf
	basis 6-31G*
}

set_num_threads( 1 )
memory 2 gb

molecule MOL {
0 1

O	 -2.330754	 0.640708	 1.728549
C	 -2.408366	 -0.224639	 0.916289
C	 -3.570070	 -1.179316	 0.814787
O	 -1.481751	 -0.454642	 0.000584
H	 -4.477859	 -0.607748	 0.662823
H	 -3.441631	 -1.885979	 0.008209
H	 -3.669215	 -1.707878	 1.755356
C	 -0.334255	 0.388708	 0.000906
C	 0.891947	 -0.504646	 0.000751
H	 -0.365390	 1.025305	 -0.873475
H	 -0.365484	 1.024911	 0.875569
C	 2.191998	 0.301789	 0.000897
H	 0.855148	 -1.151283	 -0.871571
H	 0.855132	 -1.151660	 0.872805
C	 3.441114	 -0.581407	 0.000108
H	 2.215074	 0.954890	 -0.869742
H	 2.215465	 0.953923	 0.872248
C	 4.739576	 0.224112	 -0.001102
H	 3.419457	 -1.233487	 -0.870178
H	 3.420834	 -1.233096	 0.870717
H	 4.804918	 0.861552	 -0.878265
H	 5.606527	 -0.429058	 -0.001824
H	 4.806469	 0.861674	 0.875853

	symmetry c1
}
set optking {
	frozen_dihedral = ("
		13 9 8 10,
		16 12 9 13,
		19 15 12 16,
		1 2 4 8
	")
}

ee = energy('scf')
oeprop('DIPOLE', 'QUADRUPOLE', 'MULLIKEN_CHARGES')
f=open( 'psi4out.xyz', 'w' )
f.write( "23  " )
f.write( str(ee) + "\n" )
f.write( MOL.save_string_xyz() )
f.close()
--------------------------------------------------------------------------

    Molecular point group: c1

    Geometry (in Angstrom), charge = 0, multiplicity = 1:

       Center              X                  Y                   Z               Mass
    ------------   -----------------  -----------------  -----------------  -----------------
           O         -2.441794792349     0.791943964509     1.337336566022    15.994914619560
           C         -2.519406792349    -0.073403035491     0.525076566022    12.000000000000
           C         -3.681110792349    -1.028080035491     0.423574566022    12.000000000000
           O         -1.592791792349    -0.303406035491    -0.390628433978    15.994914619560
           H         -4.588899792349    -0.456512035491     0.271610566022     1.007825032070
           H         -3.552671792349    -1.734743035491    -0.383003433978     1.007825032070
           H         -3.780255792349    -1.556642035491     1.364143566022     1.007825032070
           C         -0.445295792349     0.539943964509    -0.390306433978    12.000000000000
           C          0.780906207651    -0.353410035491    -0.390461433978    12.000000000000
           H         -0.476430792349     1.176540964509    -1.264687433978     1.007825032070
           H         -0.476524792349     1.176146964509     0.484356566022     1.007825032070
           C          2.080957207651     0.453024964509    -0.390315433978    12.000000000000
           H          0.744107207651    -1.000047035491    -1.262783433978     1.007825032070
           H          0.744091207651    -1.000424035491     0.481592566022     1.007825032070
           C          3.330073207651    -0.430171035491    -0.391104433978    12.000000000000
           H          2.104033207651     1.106125964509    -1.260954433978     1.007825032070
           H          2.104424207651     1.105158964509     0.481035566022     1.007825032070
           C          4.628535207651     0.375347964509    -0.392314433978    12.000000000000
           H          3.308416207651    -1.082251035491    -1.261390433978     1.007825032070
           H          3.309793207651    -1.081860035491     0.479504566022     1.007825032070
           H          4.693877207651     1.012787964509    -1.269477433978     1.007825032070
           H          5.495486207651    -0.277822035491    -0.393036433978     1.007825032070
           H          4.695428207651     1.012909964509     0.484640566022     1.007825032070

  Charge       = 0
  Multiplicity = 1
  Basis Set: 6-31G*
  Basis Set:

    Orbital Energies (a.u.)
    -----------------------

    Doubly Occupied:

       1A    -20.603342     2A    -20.540283     3A    -11.375832
       4A    -11.277220     5A    -11.233192     6A    -11.222476
       7A    -11.221847     8A    -11.220414     9A    -11.211960
      10A     -1.468925    11A     -1.361490    12A     -1.092510
      13A     -1.041714    14A     -1.003081    15A     -0.930247
      16A     -0.843603    17A     -0.800513    18A     -0.773441
      19A     -0.699145    20A     -0.681249    21A     -0.661855
      22A     -0.647301    23A     -0.604704    24A     -0.587284
      25A     -0.584398    26A     -0.571234    27A     -0.551625
      28A     -0.539159    29A     -0.522539    30A     -0.508005
      31A     -0.488012    32A     -0.477504    33A     -0.472327
      34A     -0.469394    35A     -0.443150    36A     -0.433656

  @DF-RHF Final Energy:  -422.97684182326338

   => Energetics <=

    Nuclear Repulsion Energy =            452.4287342936663663
    One-Electron Energy =               -1472.4819239509013187
    Two-Electron Energy =                 597.0763478339715675
    DFT Exchange-Correlation Energy =       0.0000000000000000
    Empirical Dispersion Energy =           0.0000000000000000
    PCM Polarization Energy =               0.0000000000000000
    EFP Energy =                            0.0000000000000000
    Total Energy =                       -422.9768418232633849

  Mulliken Charges: (a.u.)
   Center  Symbol    Alpha    Beta     Spin     Total
       1     O     4.28453  4.28453  0.00000 -0.56907
       2     C     2.61532  2.61532  0.00000  0.76935
       3     C     3.28884  3.28884  0.00000 -0.57769
       4     O     4.31071  4.31071  0.00000 -0.62141
       5     H     0.39705  0.39705  0.00000  0.20590
       6     H     0.39955  0.39955  0.00000  0.20090
       7     H     0.39743  0.39743  0.00000  0.20514
       8     C     3.01114  3.01114  0.00000 -0.02227
       9     C     3.16140  3.16140  0.00000 -0.32281
      10     H     0.41502  0.41502  0.00000  0.16997
      11     H     0.39087  0.39087  0.00000  0.21827
      12     C     3.16105  3.16105  0.00000 -0.32209
      13     H     0.41510  0.41510  0.00000  0.16981
      14     H     0.41584  0.41584  0.00000  0.16832
      15     C     3.15131  3.15131  0.00000 -0.30262
      16     H     0.42220  0.42220  0.00000  0.15561
      17     H     0.41965  0.41965  0.00000  0.16069
      18     C     3.23983  3.23983  0.00000 -0.47966
      19     H     0.42175  0.42175  0.00000  0.15650
      20     H     0.42123  0.42123  0.00000  0.15755
      21     H     0.42133  0.42133  0.00000  0.15734
      22     H     0.41821  0.41821  0.00000  0.16357
      23     H     0.42065  0.42065  0.00000  0.15869

   Total alpha = 36.00000, Total beta = 36.00000, Total charge = -0.00000
