  ==> Input File <==

--------------------------------------------------------------------------
set {
	reference rhf
	basis cc-pvtz
}

set_num_threads( 4 )
memory 2 gb

molecule MOL {
0 1

H	 3.459101	 0.139266	 -0.762951
C	 2.749156	 -0.051729	 0.031265
C	 1.322304	 0.099773	 -0.484271
H	 2.929445	 -1.053887	 0.403481
H	 2.954281	 0.646699	 0.834672
C	 0.308557	 -0.162619	 0.622645
H	 1.143368	 -0.594400	 -1.295960
H	 1.169532	 1.100095	 -0.870217
N	 -1.069352	 -0.004081	 0.085342
H	 0.371632	 -1.172932	 0.991288
H	 0.400391	 0.548875	 1.426218
O	 -1.938595	 0.184535	 0.868551
O	 -1.209751	 -0.105946	 -1.087200

	symmetry c1
}
set optking {
	frozen_dihedral = ("
		12 9 6 3
	")
}

ee = optimize('scf')
oeprop('DIPOLE', 'QUADRUPOLE', 'MULLIKEN_CHARGES')
f=open( 'psi4out.xyz', 'w' )
f.write( "13  " )
f.write( str(ee) + "\n" )
f.write( MOL.save_string_xyz() )
f.close()
--------------------------------------------------------------------------

    Molecular point group: c1
  Charge       = 0
  Multiplicity = 1
  Basis Set: CC-PVTZ
  Basis Set:
  @DF-RHF Final Energy:  -321.85899628385840
    Total Energy =                       -321.8589962838585166
    Molecular point group: c1
  Basis Set: CC-PVTZ
  Basis Set:
  Basis Set: CC-PVTZ
  Basis Set:
  @DF-RHF Final Energy:  -321.86003463042636
    Total Energy =                       -321.8600346304262416
  Basis Set: CC-PVTZ
  Basis Set:
  Basis Set: CC-PVTZ
  Basis Set:
  @DF-RHF Final Energy:  -321.86042187609820
    Total Energy =                       -321.8604218760980302
  Basis Set: CC-PVTZ
  Basis Set:
  Basis Set: CC-PVTZ
  Basis Set:
  @DF-RHF Final Energy:  -321.86042131742045
    Total Energy =                       -321.8604213174205597
  Basis Set: CC-PVTZ
  Basis Set:
  Basis Set: CC-PVTZ
  Basis Set:
  @DF-RHF Final Energy:  -321.86056238998179
    Total Energy =                       -321.8605623899819079
  Basis Set: CC-PVTZ
  Basis Set:
  Basis Set: CC-PVTZ
  Basis Set:
  @DF-RHF Final Energy:  -321.86061259923031
    Total Energy =                       -321.8606125992304214
  Basis Set: CC-PVTZ
  Basis Set:
  Charge       = 0
  Multiplicity = 1
  Basis Set: CC-PVTZ
  Basis Set:

    Orbital Energies (a.u.)
    -----------------------

    Doubly Occupied:

       1A    -20.592647     2A    -20.588757     3A    -15.838394
       4A    -11.298977     5A    -11.247498     6A    -11.235072
       7A     -1.637171     8A     -1.421264     9A     -1.131784
      10A     -1.026790    11A     -0.884858    12A     -0.827247
      13A     -0.763393    14A     -0.750983    15A     -0.730840
      16A     -0.658803    17A     -0.607070    18A     -0.577526
      19A     -0.553361    20A     -0.522337    21A     -0.509769
      22A     -0.488038    23A     -0.474489    24A     -0.453972

  @DF-RHF Final Energy:  -321.86061274569545

   => Energetics <=

    Nuclear Repulsion Energy =            247.6346393799270516
    One-Electron Energy =                -929.3484228086778103
    Two-Electron Energy =                 359.8531706830554526
    DFT Exchange-Correlation Energy =       0.0000000000000000
    Empirical Dispersion Energy =           0.0000000000000000
    PCM Polarization Energy =               0.0000000000000000
    EFP Energy =                            0.0000000000000000
    Total Energy =                       -321.8606127456952777
    Molecular point group: c1
  Basis Set: CC-PVTZ
  Basis Set:

  -Total Gradient:
     Atom            X                  Y                   Z
    ------   -----------------  -----------------  -----------------
       1       -0.000010388601     0.000004612228     0.000000603988
       2       -0.000002947544     0.000015021288     0.000018967524
       3       -0.000005437648    -0.000243756566    -0.000076068513
       4       -0.000004019894    -0.000003711647    -0.000005804564
       5        0.000007766116     0.000001416086     0.000006972489
       6        0.000006804784     0.000193669774     0.000081945600
       7       -0.000007316094    -0.000001535088     0.000024580249
       8       -0.000002416012     0.000014887269    -0.000006645034
       9        0.000060734696     0.000283595710    -0.000065195274
      10       -0.000000637946    -0.000003241840    -0.000003887872
      11        0.000001719756     0.000004229323    -0.000006282184
      12       -0.000035517854    -0.000279304693     0.000026015235
      13       -0.000008343760     0.000014118156     0.000004798354

  **** Optimization is complete! (in 7 steps) ****
    Final optimized geometry and variables:
    Molecular point group: c1

    Geometry (in Angstrom), charge = 0, multiplicity = 1:

    H            3.507141921739     0.139298793796    -0.739538647628
    C            2.772829290184    -0.041866346213     0.034435279393
    C            1.361707584105     0.100105675782    -0.529528340283
    H            2.944186785497    -1.038906615761     0.425353183788
    H            2.954917924942     0.665903665147     0.835532694541
    C            0.329556159639    -0.150447462517     0.551314065014
    H            1.211081532518    -0.594953377403    -1.342709001021
    H            1.222486166042     1.094583642325    -0.935536372146
    N           -1.080697655802     0.002609736047     0.083042690063
    H            0.375429446901    -1.162591404026     0.930047743941
    H            0.420025350978     0.525549165286     1.385726600404
    O           -1.894907961679     0.183092557449     0.925354781126
    O           -1.304244324407    -0.092815526969    -1.075449637346

  Mulliken Charges: (a.u.)
   Center  Symbol    Alpha    Beta     Spin     Total
       1     H     0.44129  0.44129  0.00000  0.11742
       2     C     3.15250  3.15250  0.00000 -0.30500
       3     C     3.09185  3.09185  0.00000 -0.18369
       4     H     0.45303  0.45303  0.00000  0.09394
       5     H     0.45290  0.45290  0.00000  0.09420
       6     C     3.04574  3.04574  0.00000 -0.09148
       7     H     0.43609  0.43609  0.00000  0.12782
       8     H     0.44229  0.44229  0.00000  0.11542
       9     N     3.27377  3.27377  0.00000  0.45246
      10     H     0.43531  0.43531  0.00000  0.12939
      11     H     0.43204  0.43204  0.00000  0.13591
      12     O     4.17325  4.17325  0.00000 -0.34650
      13     O     4.16994  4.16994  0.00000 -0.33988

   Total alpha = 24.00000, Total beta = 24.00000, Total charge = -0.00000
