  ==> Input File <==

--------------------------------------------------------------------------
set {
	reference rhf
	basis cc-pvtz
}

set_num_threads( 4 )
memory 2 gb

molecule MOL {
0 1

H	 1.651322	 -0.822465	 0.000000
O	 0.729993	 -1.034364	 0.000000
C	 0.037305	 0.100061	 0.000000
C	 -1.370419	 -0.100877	 0.475407
O	 0.507959	 1.129014	 -0.341373
H	 -1.868699	 -0.818204	 -0.163832
H	 -1.894620	 0.840236	 0.459736
H	 -1.358451	 -0.506644	 1.478741

	symmetry c1
}
set optking {
	frozen_dihedral = ("
		4 3 2 1
	")
}

ee = optimize('scf')
oeprop('DIPOLE', 'QUADRUPOLE', 'MULLIKEN_CHARGES')
f=open( 'psi4out.xyz', 'w' )
f.write( "8  " )
f.write( str(ee) + "\n" )
f.write( MOL.save_string_xyz() )
f.close()
--------------------------------------------------------------------------

    Molecular point group: c1
  Charge       = 0
  Multiplicity = 1
  Basis Set: CC-PVTZ
  Basis Set:
  @DF-RHF Final Energy:  -227.90232177359320
    Total Energy =                       -227.9023217735933429
    Molecular point group: c1
  Basis Set: CC-PVTZ
  Basis Set:
  Basis Set: CC-PVTZ
  Basis Set:
  @DF-RHF Final Energy:  -227.90018905125754
    Total Energy =                       -227.9001890512574846
  Basis Set: CC-PVTZ
  Basis Set:
  Basis Set: CC-PVTZ
  Basis Set:
  @DF-RHF Final Energy:  -227.90251679255937
    Total Energy =                       -227.9025167925593109
  Basis Set: CC-PVTZ
  Basis Set:
  Basis Set: CC-PVTZ
  Basis Set:
  @DF-RHF Final Energy:  -227.90256585488851
    Total Energy =                       -227.9025658548885644
  Basis Set: CC-PVTZ
  Basis Set:
  Basis Set: CC-PVTZ
  Basis Set:
  @DF-RHF Final Energy:  -227.90262810622679
    Total Energy =                       -227.9026281062267572
  Basis Set: CC-PVTZ
  Basis Set:
  Basis Set: CC-PVTZ
  Basis Set:
  @DF-RHF Final Energy:  -227.90263978480920
    Total Energy =                       -227.9026397848093097
  Basis Set: CC-PVTZ
  Basis Set:
  Charge       = 0
  Multiplicity = 1
  Basis Set: CC-PVTZ
  Basis Set:

    Orbital Energies (a.u.)
    -----------------------

    Doubly Occupied:

       1A    -20.605406     2A    -20.543010     3A    -11.378622
       4A    -11.239491     5A     -1.478801     6A     -1.371967
       7A     -1.028085     8A     -0.834265     9A     -0.707183
      10A     -0.685616    11A     -0.658243    12A     -0.584674
      13A     -0.576200    14A     -0.558588    15A     -0.486714
      16A     -0.452456

  @DF-RHF Final Energy:  -227.90264054956745

   => Energetics <=

    Nuclear Repulsion Energy =            122.7364143031920491
    One-Electron Energy =                -554.8994670910682316
    Two-Electron Energy =                 204.2604122383087031
    DFT Exchange-Correlation Energy =       0.0000000000000000
    Empirical Dispersion Energy =           0.0000000000000000
    PCM Polarization Energy =               0.0000000000000000
    EFP Energy =                            0.0000000000000000
    Total Energy =                       -227.9026405495674510
    Molecular point group: c1
  Basis Set: CC-PVTZ
  Basis Set:

  -Total Gradient:
     Atom            X                  Y                   Z
    ------   -----------------  -----------------  -----------------
       1       -0.000079240426    -0.000535502875     0.006866737936
       2        0.000631070614     0.000656040988    -0.006627695863
       3       -0.001823405773    -0.000421869060    -0.004473302913
       4        0.001308989551     0.000406096162     0.004223403474
       5       -0.000043061856    -0.000066651367     0.000019573205
       6       -0.000012939217    -0.000023421914    -0.000005233907
       7        0.000010005001    -0.000012939372     0.000006562957
       8        0.000008582107    -0.000001752563    -0.000010044889

  **** Optimization is complete! (in 7 steps) ****
    Final optimized geometry and variables:
    Molecular point group: c1

    Geometry (in Angstrom), charge = 0, multiplicity = 1:

    H            1.627091833334    -0.860981873119    -0.112567245730
    O            0.701160388992    -1.049245098754    -0.132498079821
    C            0.029718203968     0.097896736448    -0.041627287493
    C           -1.384343843287    -0.111202235278     0.411223877874
    O            0.537409235012     1.145716567893    -0.239030252810
    H           -1.851091245824    -0.910241006630    -0.148469567065
    H           -1.941577349628     0.804895839064     0.303524938928
    H           -1.362126560735    -0.406318887057     1.453212840432

  Mulliken Charges: (a.u.)
   Center  Symbol    Alpha    Beta     Spin     Total
       1     H     0.37929  0.37929  0.00000  0.24143
       2     O     4.16395  4.16395  0.00000 -0.32789
       3     C     2.80314  2.80314  0.00000  0.39372
       4     C     3.13815  3.13815  0.00000 -0.27630
       5     O     4.18871  4.18871  0.00000 -0.37743
       6     H     0.44387  0.44387  0.00000  0.11225
       7     H     0.43779  0.43779  0.00000  0.12442
       8     H     0.44510  0.44510  0.00000  0.10979

   Total alpha = 16.00000, Total beta = 16.00000, Total charge = -0.00000
