                              Psi4 1.0.54 Driver

  ==> Input File <==

--------------------------------------------------------------------------
set {
	reference rhf
	basis cc-pvtz
}

set_num_threads( 4 )
memory 2 gb

molecule MOL {
0 1

H	 -2.171771	 0.882708	 0.500240
C	 -2.016956	 0.001719	 -0.114198
O	 -0.775290	 0.000056	 -0.740012
H	 -2.760908	 0.003757	 -0.898215
H	 -2.174836	 -0.879864	 0.498597
C	 0.406071	 -0.000384	 0.036948
C	 1.526353	 -0.003194	 -0.997385
C	 0.498710	 1.259027	 0.900627
C	 0.495821	 -1.257378	 0.904419
H	 1.452217	 0.872071	 -1.630250
H	 1.451214	 -0.881020	 -1.626575
H	 2.497857	 -0.002741	 -0.517647
H	 0.368919	 2.144239	 0.289707
H	 1.470002	 1.313479	 1.377614
H	 -0.248510	 1.271586	 1.684251
H	 0.363909	 -2.144195	 0.296270
H	 1.467052	 -1.312636	 1.381424
H	 -0.251308	 -1.265768	 1.688189

	symmetry c1
}
ee,wfn = energy('scf', return_wfn=True)
oeprop( wfn, 'DIPOLE', 'QUADRUPOLE', 'MULLIKEN_CHARGES')
oeprop( wfn, 'GRID_ESP')
f=open( 'psi4out.xyz', 'w' )
f.write( "18  " )
f.write( str(ee) + "\n" )
f.write( MOL.save_string_xyz() )
f.close()
--------------------------------------------------------------------------

    Molecular point group: c1

    Geometry (in Angstrom), charge = 0, multiplicity = 1:

       Center              X                  Y                   Z               Mass
    ------------   -----------------  -----------------  -----------------  -----------------
           H         -2.171709496347     0.882707950499     0.500286265246     1.007825032070
           C         -2.016894496347     0.001718950499    -0.114151734754    12.000000000000
           O         -0.775228496347     0.000055950499    -0.739965734754    15.994914619560
           H         -2.760846496347     0.003756950499    -0.898168734754     1.007825032070
           H         -2.174774496347    -0.879864049501     0.498643265246     1.007825032070
           C          0.406132503653    -0.000384049501     0.036994265246    12.000000000000
           C          1.526414503653    -0.003194049501    -0.997338734754    12.000000000000
           C          0.498771503653     1.259026950499     0.900673265246    12.000000000000
           C          0.495882503653    -1.257378049501     0.904465265246    12.000000000000
           H          1.452278503653     0.872070950499    -1.630203734754     1.007825032070
           H          1.451275503653    -0.881020049501    -1.626528734754     1.007825032070
           H          2.497918503653    -0.002741049501    -0.517600734754     1.007825032070
           H          0.368980503653     2.144238950499     0.289753265246     1.007825032070
           H          1.470063503653     1.313478950499     1.377660265246     1.007825032070
           H         -0.248448496347     1.271585950499     1.684297265246     1.007825032070
           H          0.363970503653    -2.144195049501     0.296316265246     1.007825032070
           H          1.467113503653    -1.312636049501     1.381470265246     1.007825032070
           H         -0.251246496347    -1.265768049501     1.688235265246     1.007825032070

  Charge       = 0
  Multiplicity = 1
  Basis Set: CC-PVTZ
  Basis Set:

    Orbital Energies (a.u.)
    -----------------------

    Doubly Occupied:

       1A    -20.540656     2A    -11.280133     3A    -11.258027
       4A    -11.207101     5A    -11.207076     6A    -11.201809
       7A     -1.373684     8A     -1.074679     9A     -0.946721
      10A     -0.940855    11A     -0.913179    12A     -0.753507
      13A     -0.656651    14A     -0.646662    15A     -0.639410
      16A     -0.593903    17A     -0.575995    18A     -0.553306
      19A     -0.534335    20A     -0.524852    21A     -0.515068
      22A     -0.488143    23A     -0.488071    24A     -0.440781
      25A     -0.407737

  @DF-RHF Final Energy:  -271.27675700233448

   => Energetics <=

    Nuclear Repulsion Energy =            272.6677994254899318
    One-Electron Energy =                -908.3640026551090614
    Two-Electron Energy =                 364.4194462272846522
    DFT Exchange-Correlation Energy =       0.0000000000000000
    Empirical Dispersion Energy =           0.0000000000000000
    PCM Polarization Energy =               0.0000000000000000
    EFP Energy =                            0.0000000000000000
    Total Energy =                       -271.2767570023345343

  Mulliken Charges: (a.u.)
   Center  Symbol    Alpha    Beta     Spin     Total
       1     H     0.46983  0.46983  0.00000  0.06033
       2     C     3.04423  3.04423  0.00000 -0.08847
       3     O     4.18980  4.18980  0.00000 -0.37961
       4     H     0.44022  0.44022  0.00000  0.11956
       5     H     0.46980  0.46980  0.00000  0.06040
       6     C     2.87276  2.87276  0.00000  0.25447
       7     C     3.14152  3.14152  0.00000 -0.28305
       8     C     3.16446  3.16446  0.00000 -0.32892
       9     C     3.16450  3.16450  0.00000 -0.32901
      10     H     0.44880  0.44880  0.00000  0.10240
      11     H     0.44883  0.44883  0.00000  0.10235
      12     H     0.45939  0.45939  0.00000  0.08122
      13     H     0.44511  0.44511  0.00000  0.10979
      14     H     0.44840  0.44840  0.00000  0.10320
      15     H     0.44943  0.44943  0.00000  0.10114
      16     H     0.44511  0.44511  0.00000  0.10979
      17     H     0.44837  0.44837  0.00000  0.10325
      18     H     0.44943  0.44943  0.00000  0.10115

   Total alpha = 25.00000, Total beta = 25.00000, Total charge = -0.00000

*** Psi4 exiting successfully. Buy a developer a beer!
