  ==> Input File <==

--------------------------------------------------------------------------
set {
	reference rhf
	basis cc-pvtz
}

set_num_threads( 4 )
memory 2 gb

molecule MOL {
0 1

O	 -1.510770	 1.240811	 -0.054933
C	 -1.081510	 0.147522	 0.122720
C	 0.327029	 -0.064006	 0.641890
C	 -1.903028	 -1.084121	 -0.174656
C	 1.349460	 -0.017068	 -0.500215
H	 0.399029	 -1.014606	 1.159950
H	 0.538021	 0.726928	 1.350471
C	 0.726999	 0.420858	 -1.821013
H	 2.157742	 0.660700	 -0.241086
H	 1.791337	 -1.000466	 -0.609764
H	 1.467145	 0.434561	 -2.612231
H	 0.303758	 1.416798	 -1.745371
H	 -0.066612	 -0.254739	 -2.120380
H	 -1.341891	 -1.779207	 -0.789259
H	 -2.820449	 -0.808163	 -0.671328
H	 -2.133314	 -1.593056	 0.755831

	symmetry c1
}
set optking {
	frozen_dihedral = ("
		9 5 3 2
	")
}

ee = optimize('scf')
oeprop('DIPOLE', 'QUADRUPOLE', 'MULLIKEN_CHARGES')
f=open( 'psi4out.xyz', 'w' )
f.write( "16  " )
f.write( str(ee) + "\n" )
f.write( MOL.save_string_xyz() )
f.close()
--------------------------------------------------------------------------

    Molecular point group: c1
  Charge       = 0
  Multiplicity = 1
  Basis Set: CC-PVTZ
  Basis Set:
  @DF-RHF Final Energy:  -270.11729242693821
    Total Energy =                       -270.1172924269382065
    Molecular point group: c1
  Basis Set: CC-PVTZ
  Basis Set:
  Basis Set: CC-PVTZ
  Basis Set:
  @DF-RHF Final Energy:  -270.11969809840571
    Total Energy =                       -270.1196980984058769
  Basis Set: CC-PVTZ
  Basis Set:
  Basis Set: CC-PVTZ
  Basis Set:
  @DF-RHF Final Energy:  -270.11975098939649
    Total Energy =                       -270.1197509893961524
  Basis Set: CC-PVTZ
  Basis Set:
  Basis Set: CC-PVTZ
  Basis Set:
  @DF-RHF Final Energy:  -270.12073486522172
    Total Energy =                       -270.1207348652218911
  Basis Set: CC-PVTZ
  Basis Set:
  @DF-RHF Final Energy:  -270.12089043161984
    Total Energy =                       -270.1208904316195003
  @DF-RHF Final Energy:  -270.12090780377645
    Total Energy =                       -270.1209078037763334
  Basis Set: CC-PVTZ
  Basis Set:
  @DF-RHF Final Energy:  -270.12092404755765
    Total Energy =                       -270.1209240475577644
  Basis Set: CC-PVTZ
  Basis Set:
  Basis Set: CC-PVTZ
  Basis Set:
  @DF-RHF Final Energy:  -270.12093196978799
    Total Energy =                       -270.1209319697879891
  Basis Set: CC-PVTZ
  Basis Set:
  Basis Set: CC-PVTZ
  Basis Set:
  @DF-RHF Final Energy:  -270.12093433201585
    Total Energy =                       -270.1209343320158496
  Basis Set: CC-PVTZ
  Basis Set:
  Charge       = 0
  Multiplicity = 1
  Basis Set: CC-PVTZ
  Basis Set:

    Orbital Energies (a.u.)
    -----------------------

    Doubly Occupied:

       1A    -20.537148     2A    -11.319969     3A    -11.232545
       4A    -11.228339     5A    -11.226896     6A    -11.213792
       7A     -1.397670     8A     -1.078081     9A     -1.011045
      10A     -0.951969    11A     -0.834806    12A     -0.726200
      13A     -0.656556    14A     -0.645525    15A     -0.623793
      16A     -0.611913    17A     -0.576469    18A     -0.559267
      19A     -0.541420    20A     -0.507908    21A     -0.505924
      22A     -0.476224    23A     -0.475048    24A     -0.399937

  @DF-RHF Final Energy:  -270.12093482110515

   => Energetics <=

    Nuclear Repulsion Energy =            243.4703241196994838
    One-Electron Energy =                -848.5056250530992656
    Two-Electron Energy =                 334.9143661122944877
    DFT Exchange-Correlation Energy =       0.0000000000000000
    Empirical Dispersion Energy =           0.0000000000000000
    PCM Polarization Energy =               0.0000000000000000
    EFP Energy =                            0.0000000000000000
    Total Energy =                       -270.1209348211052657
    Molecular point group: c1
  Basis Set: CC-PVTZ
  Basis Set:

  -Total Gradient:
     Atom            X                  Y                   Z
    ------   -----------------  -----------------  -----------------
       1       -0.000006031804     0.000024067001     0.000004344594
       2        0.000258397242     0.002498524899     0.000255597943
       3       -0.000708801223    -0.003012098255    -0.000682829303
       4       -0.000015694980     0.000021714127     0.000051934452
       5        0.002164274567    -0.002085100711     0.001879491866
       6        0.000002152885     0.000001633444    -0.000013255477
       7       -0.000001173781    -0.000001112741    -0.000012690412
       8       -0.000019762642    -0.000018995867     0.000008868309
       9       -0.001703536938     0.002572329402    -0.001450975842
      10       -0.000005237358     0.000001215005     0.000004064618
      11        0.000011521481    -0.000000774664    -0.000002421206
      12       -0.000004210978     0.000006521993     0.000002430357
      13        0.000001725890     0.000007420861    -0.000007788206
      14        0.000005308822    -0.000002060258    -0.000013291713
      15        0.000007485314    -0.000002653044    -0.000009968377
      16        0.000013583507    -0.000010631189    -0.000013511605

  **** Optimization is complete! (in 10 steps) ****
    Final optimized geometry and variables:
    Molecular point group: c1

    Geometry (in Angstrom), charge = 0, multiplicity = 1:

    O           -1.241332950752     1.118607130844     0.431799028102
    C           -0.756408361824     0.035575382018     0.481889501148
    C            0.685778531997    -0.162303239636     0.909434301425
    C           -1.556057212086    -1.202016087880     0.147899413110
    C            1.721283119450    -0.129656718838    -0.252738009586
    H            0.775275546773    -1.097556394352     1.448973916309
    H            0.900902011783     0.638714994618     1.602676992978
    C            1.196315728094     0.323081135214    -1.615933151542
    H            2.509683126938     0.556215935447     0.029475890988
    H            2.174872288777    -1.107589228754    -0.356172583095
    H            2.009823544522     0.346610848561    -2.331306990866
    H            0.764956302393     1.314235990622    -1.565030779972
    H            0.439877625026    -0.347003492565    -2.008671803243
    H           -0.991210222451    -1.871310992625    -0.490404936364
    H           -2.485813321563    -0.928242603930    -0.327055296097
    H           -1.768177876050    -1.739126842210     1.067231911169

  Mulliken Charges: (a.u.)
   Center  Symbol    Alpha    Beta     Spin     Total
       1     O     4.17995  4.17995  0.00000 -0.35989
       2     C     2.85338  2.85338  0.00000  0.29324
       3     C     3.10589  3.10589  0.00000 -0.21178
       4     C     3.15514  3.15514  0.00000 -0.31027
       5     C     3.09395  3.09395  0.00000 -0.18790
       6     H     0.44631  0.44631  0.00000  0.10739
       7     H     0.43832  0.43832  0.00000  0.12335
       8     C     3.15493  3.15493  0.00000 -0.30986
       9     H     0.44576  0.44576  0.00000  0.10848
      10     H     0.44834  0.44834  0.00000  0.10332
      11     H     0.44652  0.44652  0.00000  0.10697
      12     H     0.44078  0.44078  0.00000  0.11843
      13     H     0.45615  0.45615  0.00000  0.08769
      14     H     0.45177  0.45177  0.00000  0.09647
      15     H     0.43631  0.43631  0.00000  0.12738
      16     H     0.44651  0.44651  0.00000  0.10699

   Total alpha = 24.00000, Total beta = 24.00000, Total charge =  0.00000
