  ==> Input File <==

--------------------------------------------------------------------------
set {
	reference rhf
	basis 6-31G*
}

set_num_threads( 1 )
memory 2 gb

molecule MOL {
0 1

H	 -3.135461	 -1.215070	 0.001379
O	 -2.310168	 -0.871793	 -0.309793
C	 -2.026376	 0.340750	 0.341611
C	 -0.673256	 0.843270	 -0.132153
H	 -2.792215	 1.080697	 0.115987
H	 -2.013526	 0.200402	 1.421792
C	 0.486613	 -0.083066	 0.235839
H	 -0.715586	 0.970948	 -1.210718
H	 -0.508072	 1.829858	 0.297090
C	 1.632798	 0.647138	 0.937891
H	 0.857034	 -0.563718	 -0.663759
H	 0.118618	 -0.878404	 0.883031
C	 2.789361	 -0.279637	 1.310879
H	 2.001839	 1.441275	 0.292234
H	 1.257437	 1.134186	 1.835851
H	 3.209052	 -0.755435	 0.429196
H	 3.588004	 0.265508	 1.804774
H	 2.460106	 -1.066094	 1.984369

	symmetry c1
}
set optking {
	frozen_dihedral = ("
		14 10 7 11,
		2 3 4 8,
		1 2 3 4
	")
}

ee = energy('scf')
oeprop('DIPOLE', 'QUADRUPOLE', 'MULLIKEN_CHARGES')
f=open( 'psi4out.xyz', 'w' )
f.write( "18  " )
f.write( str(ee) + "\n" )
f.write( MOL.save_string_xyz() )
f.close()
--------------------------------------------------------------------------

    Molecular point group: c1

    Geometry (in Angstrom), charge = 0, multiplicity = 1:

       Center              X                  Y                   Z               Mass
    ------------   -----------------  -----------------  -----------------  -----------------
           H         -3.066437830566    -1.284777873518    -0.391646936240     1.007825032070
           O         -2.241144830566    -0.941500873518    -0.702818936240    15.994914619560
           C         -1.957352830566     0.271042126482    -0.051414936240    12.000000000000
           C         -0.604232830566     0.773562126482    -0.525178936240    12.000000000000
           H         -2.723191830566     1.010989126482    -0.277038936240     1.007825032070
           H         -1.944502830566     0.130694126482     1.028766063760     1.007825032070
           C          0.555636169434    -0.152773873518    -0.157186936240    12.000000000000
           H         -0.646562830566     0.901240126482    -1.603743936240     1.007825032070
           H         -0.439048830566     1.760150126482    -0.095935936240     1.007825032070
           C          1.701821169434     0.577430126482     0.544865063760    12.000000000000
           H          0.926057169434    -0.633425873518    -1.056784936240     1.007825032070
           H          0.187641169434    -0.948111873518     0.490005063760     1.007825032070
           C          2.858384169434    -0.349344873518     0.917853063760    12.000000000000
           H          2.070862169434     1.371567126482    -0.100791936240     1.007825032070
           H          1.326460169434     1.064478126482     1.442825063760     1.007825032070
           H          3.278075169434    -0.825142873518     0.036170063760     1.007825032070
           H          3.657027169434     0.195800126482     1.411748063760     1.007825032070
           H          2.529129169434    -1.135801873518     1.591343063760     1.007825032070

  Charge       = 0
  Multiplicity = 1
  Basis Set: 6-31G*
  Basis Set:

    Orbital Energies (a.u.)
    -----------------------

    Doubly Occupied:

       1A    -20.552924     2A    -11.268019     3A    -11.212062
       4A    -11.210654     5A    -11.205928     6A    -11.204984
       7A     -1.359606     8A     -1.075655     9A     -1.008439
      10A     -0.913086    11A     -0.820769    12A     -0.782723
      13A     -0.701796    14A     -0.651337    15A     -0.618621
      16A     -0.578007    17A     -0.572389    18A     -0.558146
      19A     -0.523433    20A     -0.506288    21A     -0.483981
      22A     -0.467738    23A     -0.455558    24A     -0.448506
      25A     -0.428647

  @DF-RHF Final Energy:  -271.17486272898884

   => Energetics <=

    Nuclear Repulsion Energy =            249.5778785837941314
    One-Electron Energy =                -862.2869858867350104
    Two-Electron Energy =                 341.5342445739519235
    DFT Exchange-Correlation Energy =       0.0000000000000000
    Empirical Dispersion Energy =           0.0000000000000000
    PCM Polarization Energy =               0.0000000000000000
    EFP Energy =                            0.0000000000000000
    Total Energy =                       -271.1748627289889555

  Mulliken Charges: (a.u.)
   Center  Symbol    Alpha    Beta     Spin     Total
       1     H     0.28073  0.28073  0.00000  0.43853
       2     O     4.36929  4.36929  0.00000 -0.73857
       3     C     3.00007  3.00007  0.00000 -0.00013
       4     C     3.16197  3.16197  0.00000 -0.32395
       5     H     0.42998  0.42998  0.00000  0.14003
       6     H     0.43293  0.43293  0.00000  0.13413
       7     C     3.15023  3.15023  0.00000 -0.30046
       8     H     0.41273  0.41273  0.00000  0.17455
       9     H     0.42146  0.42146  0.00000  0.15708
      10     C     3.15523  3.15523  0.00000 -0.31046
      11     H     0.41705  0.41705  0.00000  0.16590
      12     H     0.41652  0.41652  0.00000  0.16696
      13     C     3.23929  3.23929  0.00000 -0.47859
      14     H     0.42351  0.42351  0.00000  0.15299
      15     H     0.42527  0.42527  0.00000  0.14946
      16     H     0.42123  0.42123  0.00000  0.15754
      17     H     0.42058  0.42058  0.00000  0.15884
      18     H     0.42193  0.42193  0.00000  0.15614

   Total alpha = 25.00000, Total beta = 25.00000, Total charge =  0.00000
