  ==> Input File <==

--------------------------------------------------------------------------
set {
	reference rhf
	basis 6-31G*
}

set_num_threads( 1 )
memory 2 gb

molecule MOL {
0 1

H	 -3.301617	 0.570527	 0.000000
C	 -2.250981	 0.344174	 0.000000
C	 -1.813665	 -0.976045	 0.000000
C	 -1.315303	 1.358057	 0.000000
H	 -2.528860	 -1.779366	 0.000000
C	 -0.467298	 -1.270142	 0.000000
H	 -1.635074	 2.385107	 0.000000
C	 0.047081	 1.078114	 0.000000
H	 -0.115948	 -2.285222	 0.000000
C	 0.472063	 -0.241155	 0.000000
H	 0.749976	 1.888426	 0.000000
O	 1.765256	 -0.628444	 0.000000
C	 2.087255	 -1.972677	 0.210772
H	 1.750406	 -2.314006	 1.184096
H	 3.164246	 -2.035774	 0.166948
H	 1.662229	 -2.608435	 -0.558967

	symmetry c1
}
set optking {
	frozen_dihedral = ("
		10 12 13 14
	")
}

ee = energy('scf')
oeprop('DIPOLE', 'QUADRUPOLE', 'MULLIKEN_CHARGES')
f=open( 'psi4out.xyz', 'w' )
f.write( "16  " )
f.write( str(ee) + "\n" )
f.write( MOL.save_string_xyz() )
f.close()
--------------------------------------------------------------------------

    Molecular point group: c1

    Geometry (in Angstrom), charge = 0, multiplicity = 1:

       Center              X                  Y                   Z               Mass
    ------------   -----------------  -----------------  -----------------  -----------------
           H         -3.200636595327     0.907709360959    -0.030794147281     1.007825032070
           C         -2.150000595327     0.681356360959    -0.030794147281    12.000000000000
           C         -1.712684595327    -0.638862639041    -0.030794147281    12.000000000000
           C         -1.214322595327     1.695239360959    -0.030794147281    12.000000000000
           H         -2.427879595327    -1.442183639041    -0.030794147281     1.007825032070
           C         -0.366317595327    -0.932959639041    -0.030794147281    12.000000000000
           H         -1.534093595327     2.722289360959    -0.030794147281     1.007825032070
           C          0.148061404673     1.415296360959    -0.030794147281    12.000000000000
           H         -0.014967595327    -1.948039639041    -0.030794147281     1.007825032070
           C          0.573043404673     0.096027360959    -0.030794147281    12.000000000000
           H          0.850956404673     2.225608360959    -0.030794147281     1.007825032070
           O          1.866236404673    -0.291261639041    -0.030794147281    15.994914619560
           C          2.188235404673    -1.635494639041     0.179977852719    12.000000000000
           H          1.851386404673    -1.976823639041     1.153301852719     1.007825032070
           H          3.265226404673    -1.698591639041     0.136153852719     1.007825032070
           H          1.763209404673    -2.271252639041    -0.589761147281     1.007825032070

  Charge       = 0
  Multiplicity = 1
  Basis Set: 6-31G*
  Basis Set:

    Orbital Energies (a.u.)
    -----------------------

    Doubly Occupied:

       1A    -20.583487     2A    -11.294817     3A    -11.281165
       4A    -11.233077     5A    -11.232442     6A    -11.223607
       7A    -11.219552     8A    -11.219096     9A     -1.414494
      10A     -1.145721    11A     -1.020928    12A     -1.012673
      13A     -0.945592    14A     -0.834143    15A     -0.803155
      16A     -0.725285    17A     -0.666150    18A     -0.658327
      19A     -0.656244    20A     -0.619276    21A     -0.592257
      22A     -0.571968    23A     -0.525344    24A     -0.522931
      25A     -0.510209    26A     -0.469521    27A     -0.460183
      28A     -0.334895    29A     -0.305839

  @DF-RHF Final Energy:  -344.57353060218441

   => Energetics <=

    Nuclear Repulsion Energy =            349.4036740581501590
    One-Electron Energy =               -1159.7895369037307773
    Two-Electron Energy =                 465.8123322433956446
    DFT Exchange-Correlation Energy =       0.0000000000000000
    Empirical Dispersion Energy =           0.0000000000000000
    PCM Polarization Energy =               0.0000000000000000
    EFP Energy =                            0.0000000000000000
    Total Energy =                       -344.5735306021849738

  Mulliken Charges: (a.u.)
   Center  Symbol    Alpha    Beta     Spin     Total
       1     H     0.40127  0.40127  0.00000  0.19747
       2     C     3.11219  3.11219  0.00000 -0.22437
       3     C     3.09113  3.09113  0.00000 -0.18225
       4     C     3.09143  3.09143  0.00000 -0.18285
       5     H     0.40007  0.40007  0.00000  0.19986
       6     C     3.15222  3.15222  0.00000 -0.30443
       7     H     0.39830  0.39830  0.00000  0.20340
       8     C     3.12845  3.12845  0.00000 -0.25690
       9     H     0.39536  0.39536  0.00000  0.20929
      10     C     2.77082  2.77082  0.00000  0.45837
      11     H     0.39399  0.39399  0.00000  0.21202
      12     O     4.33018  4.33018  0.00000 -0.66037
      13     C     3.09684  3.09684  0.00000 -0.19368
      14     H     0.41667  0.41667  0.00000  0.16666
      15     H     0.40250  0.40250  0.00000  0.19499
      16     H     0.41860  0.41860  0.00000  0.16279

   Total alpha = 29.00000, Total beta = 29.00000, Total charge = -0.00000
