  ==> Input File <==

--------------------------------------------------------------------------
set {
	reference rhf
	basis 6-31G*
}

set_num_threads( 4 )
memory 2 gb

molecule MOL {
0 1

O	 -2.324811	 1.361668	 -0.277141
C	 -2.105949	 0.203097	 -0.092081
C	 -0.889235	 -0.467034	 -0.705952
C	 -3.002726	 -0.644460	 0.782455
C	 0.322356	 -0.371572	 0.235365
H	 -0.666151	 0.044600	 -1.635880
H	 -1.100687	 -1.507711	 -0.934659
C	 1.576305	 -1.009285	 -0.367583
H	 0.495789	 0.675171	 0.458153
H	 0.091267	 -0.860113	 1.180708
C	 2.797665	 -1.003817	 0.558864
H	 1.826992	 -0.498249	 -1.295335
H	 1.350861	 -2.038851	 -0.637801
C	 3.348878	 0.387960	 0.873692
H	 3.582859	 -1.593485	 0.092544
H	 2.547056	 -1.513374	 1.487107
H	 3.598198	 0.924254	 -0.037874
H	 4.251955	 0.317146	 1.471887
H	 2.638449	 0.991466	 1.428546
H	 -3.496582	 -1.399307	 0.176174
H	 -3.747939	 -0.023774	 1.260148
H	 -2.421318	 -1.168775	 1.535358

	symmetry c1
}
set optking {
	frozen_dihedral = ("
		6 3 2 1
	")
}

ee = optimize('scf')
oeprop('DIPOLE', 'QUADRUPOLE', 'MULLIKEN_CHARGES')
f=open( 'psi4out.xyz', 'w' )
f.write( "22  " )
f.write( str(ee) + "\n" )
f.write( MOL.save_string_xyz() )
f.close()
--------------------------------------------------------------------------

    Molecular point group: c1
  Charge       = 0
  Multiplicity = 1
  Basis Set: 6-31G*
  Basis Set:
  @DF-RHF Final Energy:  -348.09823706923044
    Total Energy =                       -348.0982370692295831
    Molecular point group: c1
  Basis Set: 6-31G*
  Basis Set:
  Basis Set: 6-31G*
  Basis Set:
  @DF-RHF Final Energy:  -348.09779766325823
    Total Energy =                       -348.0977976632583477
  Basis Set: 6-31G*
  Basis Set:
  Basis Set: 6-31G*
  Basis Set:
  @DF-RHF Final Energy:  -348.09825269464420
    Total Energy =                       -348.0982526946440316
  Basis Set: 6-31G*
  Basis Set:
  Basis Set: 6-31G*
  Basis Set:
  @DF-RHF Final Energy:  -348.09791398608382
    Total Energy =                       -348.0979139860835403
  Basis Set: 6-31G*
  Basis Set:
  Basis Set: 6-31G*
  Basis Set:
  @DF-RHF Final Energy:  -348.09826021531694
    Total Energy =                       -348.0982602153170546
  Basis Set: 6-31G*
  Basis Set:
  Basis Set: 6-31G*
  Basis Set:
  @DF-RHF Final Energy:  -348.09827241229544
    Total Energy =                       -348.0982724122954437
  Basis Set: 6-31G*
  Basis Set:
  Charge       = 0
  Multiplicity = 1
  Basis Set: 6-31G*
  Basis Set:

    Orbital Energies (a.u.)
    -----------------------

    Doubly Occupied:

       1A    -20.547468     2A    -11.324224     3A    -11.230979
       4A    -11.229202     5A    -11.227864     6A    -11.223349
       7A    -11.221501     8A    -11.211986     9A     -1.392980
      10A     -1.096826    11A     -1.044927    12A     -0.998683
      13A     -0.938390    14A     -0.858961    15A     -0.787341
      16A     -0.733064    17A     -0.663183    18A     -0.643873
      19A     -0.627664    20A     -0.620036    21A     -0.597134
      22A     -0.584273    23A     -0.562321    24A     -0.538428
      25A     -0.535830    26A     -0.522069    27A     -0.497243
      28A     -0.489414    29A     -0.471560    30A     -0.465365
      31A     -0.461004    32A     -0.396133

  @DF-RHF Final Energy:  -348.09827212219102

   => Energetics <=

    Nuclear Repulsion Energy =            372.9590212217201497
    One-Electron Energy =               -1210.6280390422807614
    Two-Electron Energy =                 489.5707456983697057
    DFT Exchange-Correlation Energy =       0.0000000000000000
    Empirical Dispersion Energy =           0.0000000000000000
    PCM Polarization Energy =               0.0000000000000000
    EFP Energy =                            0.0000000000000000
    Total Energy =                       -348.0982721221909060
    Molecular point group: c1
  Basis Set: 6-31G*
  Basis Set:

  -Total Gradient:
     Atom            X                  Y                   Z
    ------   -----------------  -----------------  -----------------
       1       -0.000210570012    -0.000078291710    -0.000309903300
       2        0.000348620749     0.000200712694     0.000485213822
       3       -0.000400598913    -0.000352144020    -0.000378438516
       4       -0.000072363456    -0.000014618939    -0.000084329914
       5        0.000009266261    -0.000023457865    -0.000002873671
       6        0.000231098012     0.000276598842     0.000206361955
       7        0.000012891532    -0.000005412471     0.000002082383
       8       -0.000002154741    -0.000016427859     0.000007659679
       9        0.000032151268     0.000014025390     0.000016690591
      10        0.000013328742     0.000006393959    -0.000008146860
      11        0.000036035792    -0.000003154454    -0.000028873793
      12       -0.000001125581    -0.000029110463    -0.000016841192
      13       -0.000038895979     0.000014125267     0.000025735387
      14       -0.000025939860    -0.000007111233     0.000011736519
      15        0.000025073300     0.000027766546     0.000004438668
      16        0.000016797337    -0.000020850665    -0.000009920633
      17       -0.000001530234    -0.000014989714     0.000005434329
      18       -0.000001282826     0.000005684990     0.000008690189
      19       -0.000034298284     0.000014840310    -0.000002981018
      20        0.000023647001    -0.000011696792     0.000033772608
      21        0.000019546313     0.000006494787     0.000010082927
      22        0.000020303580     0.000010623400     0.000024409841

  **** Optimization is complete! (in 7 steps) ****
    Final optimized geometry and variables:
    Molecular point group: c1

    Geometry (in Angstrom), charge = 0, multiplicity = 1:

    O           -2.298729766287     1.542321660029    -0.419397592300
    C           -2.073909595173     0.386223818228    -0.226717649526
    C           -0.856045474416    -0.286689681032    -0.833084948272
    C           -2.980202211999    -0.462663386317     0.638596189746
    C            0.358942534796    -0.187033130678     0.104504758039
    H           -0.634286331946     0.217771244813    -1.766421778962
    H           -1.069965591033    -1.330118013427    -1.048938366016
    C            1.609618514533    -0.829551672173    -0.500768722784
    H            0.538066906189     0.860956401339     0.319972164504
    H            0.134072064051    -0.668768023311     1.054291753225
    C            2.835685680056    -0.820632278235     0.419318139441
    H            1.855933271804    -0.324516728311    -1.432885852273
    H            1.380556022999    -1.860206403616    -0.763605665537
    C            3.381606860929     0.572852386913     0.735917413075
    H            3.621514238873    -1.404744971072    -0.052865656682
    H            2.592917703082    -1.334365054032     1.347353723030
    H            3.622686320718     1.113551066786    -0.175189934584
    H            4.288554153879     0.504492016778     1.328472363045
    H            2.671503503955     1.170864246693     1.297205556397
    H           -3.500091337058    -1.186488955956     0.016411907737
    H           -3.705872957129     0.164429320438     1.137557365196
    H           -2.409404514414    -1.022328560467     1.373074429809

  Mulliken Charges: (a.u.)
   Center  Symbol    Alpha    Beta     Spin     Total
       1     O     4.26150  4.26150  0.00000 -0.52299
       2     C     2.73728  2.73728  0.00000  0.52544
       3     C     3.19983  3.19983  0.00000 -0.39966
       4     C     3.28957  3.28957  0.00000 -0.57913
       5     C     3.16555  3.16555  0.00000 -0.33111
       6     H     0.40051  0.40051  0.00000  0.19898
       7     H     0.41661  0.41661  0.00000  0.16678
       8     C     3.15232  3.15232  0.00000 -0.30463
       9     H     0.40558  0.40558  0.00000  0.18884
      10     H     0.42098  0.42098  0.00000  0.15803
      11     C     3.15339  3.15339  0.00000 -0.30678
      12     H     0.42013  0.42013  0.00000  0.15974
      13     H     0.42158  0.42158  0.00000  0.15684
      14     C     3.24209  3.24209  0.00000 -0.48418
      15     H     0.41927  0.41927  0.00000  0.16147
      16     H     0.42303  0.42303  0.00000  0.15393
      17     H     0.42054  0.42054  0.00000  0.15892
      18     H     0.41804  0.41804  0.00000  0.16391
      19     H     0.41876  0.41876  0.00000  0.16247
      20     H     0.40655  0.40655  0.00000  0.18691
      21     H     0.39694  0.39694  0.00000  0.20612
      22     H     0.40995  0.40995  0.00000  0.18009

   Total alpha = 32.00000, Total beta = 32.00000, Total charge =  0.00000
