  ==> Input File <==

--------------------------------------------------------------------------
set {
	reference rhf
	basis 6-31G*
}

set_num_threads( 1 )
memory 2 gb

molecule MOL {
0 1

H	 2.591676	 2.013956	 0.335017
O	 3.341076	 1.666752	 -0.126416
C	 3.569581	 0.339145	 0.272707
C	 2.539767	 -0.640285	 -0.279495
H	 4.553106	 0.084646	 -0.100901
H	 3.608576	 0.269204	 1.359154
C	 3.150191	 -1.842006	 -1.004835
H	 1.918388	 -0.986982	 0.542123
H	 1.888481	 -0.097968	 -0.962932
C	 2.090840	 -2.777615	 -1.594098
H	 3.778445	 -2.395543	 -0.312550
H	 3.800546	 -1.489543	 -1.805553
C	 2.649072	 -3.952839	 -2.405002
H	 1.464342	 -3.160324	 -0.790430
H	 1.434942	 -2.195702	 -2.238206
C	 3.440069	 -4.979978	 -1.590270
H	 1.816853	 -4.460393	 -2.888340
H	 3.276202	 -3.569410	 -3.208449
C	 3.885544	 -6.184938	 -2.421569
H	 2.828868	 -5.325407	 -0.757670
H	 4.318053	 -4.512988	 -1.150535
C	 4.680836	 -7.208697	 -1.612192
H	 3.011263	 -6.667298	 -2.853366
H	 4.488322	 -5.840883	 -3.259526
H	 4.093091	 -7.596494	 -0.784912
H	 4.980243	 -8.050979	 -2.228270
H	 5.582037	 -6.766233	 -1.196949

	symmetry c1
}
set optking {
	frozen_dihedral = ("
		14 10 7 4,
		14 10 13 16,
		10 7 4 8,
		10 13 16 20,
		20 16 19 22,
		4 3 2 1
	")
}

ee = energy('scf')
oeprop('DIPOLE', 'QUADRUPOLE', 'MULLIKEN_CHARGES')
f=open( 'psi4out.xyz', 'w' )
f.write( "27  " )
f.write( str(ee) + "\n" )
f.write( MOL.save_string_xyz() )
f.close()
--------------------------------------------------------------------------

    Molecular point group: c1

    Geometry (in Angstrom), charge = 0, multiplicity = 1:

       Center              X                  Y                   Z               Mass
    ------------   -----------------  -----------------  -----------------  -----------------
           H         -0.677291045617     4.792060068760     1.503918355212     1.007825032070
           O          0.072108954383     4.444856068760     1.042485355212    15.994914619560
           C          0.300613954383     3.117249068760     1.441608355212    12.000000000000
           C         -0.729200045617     2.137819068760     0.889406355212    12.000000000000
           H          1.284138954383     2.862750068760     1.068000355212     1.007825032070
           H          0.339608954383     3.047308068760     2.528055355212     1.007825032070
           C         -0.118776045617     0.936098068760     0.164066355212    12.000000000000
           H         -1.350579045617     1.791122068760     1.711024355212     1.007825032070
           H         -1.380486045617     2.680136068760     0.205969355212     1.007825032070
           C         -1.178127045617     0.000489068760    -0.425196644788    12.000000000000
           H          0.509477954383     0.382561068760     0.856351355212     1.007825032070
           H          0.531578954383     1.288561068760    -0.636651644788     1.007825032070
           C         -0.619895045617    -1.174734931240    -1.236100644788    12.000000000000
           H         -1.804625045617    -0.382219931240     0.378471355212     1.007825032070
           H         -1.834025045617     0.582402068760    -1.069304644788     1.007825032070
           C          0.171101954383    -2.201873931240    -0.421368644788    12.000000000000
           H         -1.452114045617    -1.682288931240    -1.719438644788     1.007825032070
           H          0.007234954383    -0.791305931240    -2.039547644788     1.007825032070
           C          0.616576954383    -3.406833931240    -1.252667644788    12.000000000000
           H         -0.440099045617    -2.547302931240     0.411231355212     1.007825032070
           H          1.049085954383    -1.734883931240     0.018366355212     1.007825032070
           C          1.411868954383    -4.430592931240    -0.443290644788    12.000000000000
           H         -0.257704045617    -3.889193931240    -1.684464644788     1.007825032070
           H          1.219354954383    -3.062778931240    -2.090624644788     1.007825032070
           H          0.824123954383    -4.818389931240     0.383989355212     1.007825032070
           H          1.711275954383    -5.272874931240    -1.059368644788     1.007825032070
           H          2.313069954383    -3.988128931240    -0.028047644788     1.007825032070

  Charge       = 0
  Multiplicity = 1
  Basis Set: 6-31G*
  Basis Set:

    Orbital Energies (a.u.)
    -----------------------

    Doubly Occupied:

       1A    -20.551191     2A    -11.265455     3A    -11.216557
       4A    -11.214475     5A    -11.214377     6A    -11.213372
       7A    -11.212693     8A    -11.212355     9A    -11.208166
      10A     -1.358071    11A     -1.093275    12A     -1.060481
      13A     -1.010206    14A     -0.944638    15A     -0.882407
      16A     -0.821732    17A     -0.803419    18A     -0.776572
      19A     -0.692048    20A     -0.647278    21A     -0.632709
      22A     -0.611724    23A     -0.606491    24A     -0.580153
      25A     -0.577713    26A     -0.554701    27A     -0.537590
      28A     -0.524377    29A     -0.508574    30A     -0.485817
      31A     -0.483203    32A     -0.473908    33A     -0.464727
      34A     -0.459265    35A     -0.453541    36A     -0.441876
      37A     -0.418387

  @DF-RHF Final Energy:  -388.27588902295315

   => Energetics <=

    Nuclear Repulsion Energy =            453.7625792310506085
    One-Electron Energy =               -1425.6500502772194068
    Two-Electron Energy =                 583.6115820232151918
    DFT Exchange-Correlation Energy =       0.0000000000000000
    Empirical Dispersion Energy =           0.0000000000000000
    PCM Polarization Energy =               0.0000000000000000
    EFP Energy =                            0.0000000000000000
    Total Energy =                       -388.2758890229536064

  Mulliken Charges: (a.u.)
   Center  Symbol    Alpha    Beta     Spin     Total
       1     H     0.28319  0.28319  0.00000  0.43362
       2     O     4.36988  4.36988  0.00000 -0.73976
       3     C     2.99628  2.99628  0.00000  0.00744
       4     C     3.17146  3.17146  0.00000 -0.34293
       5     H     0.41423  0.41423  0.00000  0.17154
       6     H     0.43007  0.43007  0.00000  0.13985
       7     C     3.16070  3.16070  0.00000 -0.32141
       8     H     0.42350  0.42350  0.00000  0.15300
       9     H     0.41285  0.41285  0.00000  0.17431
      10     C     3.15340  3.15340  0.00000 -0.30681
      11     H     0.42126  0.42126  0.00000  0.15747
      12     H     0.41941  0.41941  0.00000  0.16117
      13     C     3.15340  3.15340  0.00000 -0.30680
      14     H     0.42437  0.42437  0.00000  0.15127
      15     H     0.42100  0.42100  0.00000  0.15801
      16     C     3.15270  3.15270  0.00000 -0.30539
      17     H     0.42182  0.42182  0.00000  0.15636
      18     H     0.42324  0.42324  0.00000  0.15352
      19     C     3.15115  3.15115  0.00000 -0.30231
      20     H     0.42498  0.42498  0.00000  0.15003
      21     H     0.42240  0.42240  0.00000  0.15521
      22     C     3.23915  3.23915  0.00000 -0.47830
      23     H     0.42320  0.42320  0.00000  0.15360
      24     H     0.42284  0.42284  0.00000  0.15432
      25     H     0.42210  0.42210  0.00000  0.15581
      26     H     0.41939  0.41939  0.00000  0.16121
      27     H     0.42202  0.42202  0.00000  0.15595

   Total alpha = 37.00000, Total beta = 37.00000, Total charge =  0.00000
