  ==> Input File <==

--------------------------------------------------------------------------
set {
	reference rhf
	basis cc-pvtz
}

set_num_threads( 4 )
memory 2 gb

molecule MOL {
0 1

O	 0.074770	 1.259872	 0.000487
C	 0.029490	 0.077183	 0.000078
C	 -1.232113	 -0.748027	 0.000015
O	 1.106773	 -0.690081	 -0.000204
C	 -2.501422	 0.088592	 -0.000052
H	 -1.188777	 -1.400384	 -0.865133
H	 -1.188857	 -1.400312	 0.865225
H	 -2.548170	 0.725504	 -0.873205
H	 -3.371613	 -0.556398	 -0.000040
H	 -2.548215	 0.725571	 0.873047
C	 1.004551	 -1.952379	 0.627328
H	 0.757769	 -1.839578	 1.672607
H	 1.971389	 -2.416903	 0.521182
H	 0.246710	 -2.555304	 0.149411

	symmetry c1
}
set optking {
	frozen_dihedral = ("
		11 4 2 3
	")
}

ee = optimize('scf')
oeprop('DIPOLE', 'QUADRUPOLE', 'MULLIKEN_CHARGES')
f=open( 'psi4out.xyz', 'w' )
f.write( "14  " )
f.write( str(ee) + "\n" )
f.write( MOL.save_string_xyz() )
f.close()
--------------------------------------------------------------------------

    Molecular point group: c1
  Charge       = 0
  Multiplicity = 1
  Basis Set: CC-PVTZ
  Basis Set:
  @DF-RHF Final Energy:  -305.96347368637669
    Total Energy =                       -305.9634736863765738
    Molecular point group: c1
  Basis Set: CC-PVTZ
  Basis Set:
  Basis Set: CC-PVTZ
  Basis Set:
  @DF-RHF Final Energy:  -305.96430903513829
    Total Energy =                       -305.9643090351383989
  Basis Set: CC-PVTZ
  Basis Set:
  Basis Set: CC-PVTZ
  Basis Set:
  @DF-RHF Final Energy:  -305.97033573352189
    Total Energy =                       -305.9703357335216651
  Basis Set: CC-PVTZ
  Basis Set:
  Basis Set: CC-PVTZ
  Basis Set:
  @DF-RHF Final Energy:  -305.97185090759945
    Total Energy =                       -305.9718509075993893
  Basis Set: CC-PVTZ
  Basis Set:
  @DF-RHF Final Energy:  -305.97198895655237
    Total Energy =                       -305.9719889565521953
  Basis Set: CC-PVTZ
  Basis Set:
  @DF-RHF Final Energy:  -305.97205523363203
    Total Energy =                       -305.9720552336319770
  Basis Set: CC-PVTZ
  Basis Set:
  Basis Set: CC-PVTZ
  Basis Set:
  @DF-RHF Final Energy:  -305.97210310715161
    Total Energy =                       -305.9721031071514972
  Basis Set: CC-PVTZ
  Basis Set:
  Basis Set: CC-PVTZ
  Basis Set:
  @DF-RHF Final Energy:  -305.97211725092870
    Total Energy =                       -305.9721172509287044
  Basis Set: CC-PVTZ
  Basis Set:
  Charge       = 0
  Multiplicity = 1
  Basis Set: CC-PVTZ
  Basis Set:

    Orbital Energies (a.u.)
    -----------------------

    Doubly Occupied:

       1A    -20.592732     2A    -20.532345     3A    -11.367018
       4A    -11.293737     5A    -11.246353     6A    -11.218997
       7A     -1.465870     8A     -1.369532     9A     -1.064072
      10A     -0.985752    11A     -0.899921    12A     -0.769333
      13A     -0.706596    14A     -0.688697    15A     -0.676182
      16A     -0.627364    17A     -0.608686    18A     -0.560420
      19A     -0.552208    20A     -0.526878    21A     -0.512772
      22A     -0.501159    23A     -0.454595    24A     -0.436823

  @DF-RHF Final Energy:  -305.97211768318340

   => Energetics <=

    Nuclear Repulsion Energy =            247.9443396726417745
    One-Electron Energy =                -908.5168341018572846
    Two-Electron Energy =                 354.6003767460321114
    DFT Exchange-Correlation Energy =       0.0000000000000000
    Empirical Dispersion Energy =           0.0000000000000000
    PCM Polarization Energy =               0.0000000000000000
    EFP Energy =                            0.0000000000000000
    Total Energy =                       -305.9721176831834555
    Molecular point group: c1
  Basis Set: CC-PVTZ
  Basis Set:

  -Total Gradient:
     Atom            X                  Y                   Z
    ------   -----------------  -----------------  -----------------
       1        0.000010493334     0.000006122287     0.000008307190
       2        0.000432859085     0.000448614410     0.004561349478
       3        0.000002198847     0.000040803443    -0.002289316634
       4       -0.001092292324    -0.001501132972    -0.004490892311
       5       -0.000009858980     0.000008591859     0.000024476117
       6       -0.000027365452     0.000002315426     0.000029744035
       7        0.000012019115    -0.000009190036     0.000044316514
       8       -0.000000289354     0.000002466667    -0.000005918436
       9       -0.000002149695    -0.000001558762    -0.000005920049
      10        0.000004350439    -0.000008040597    -0.000012226118
      11        0.000677249553     0.001004142570     0.002131868388
      12       -0.000001937995     0.000014791694    -0.000000573712
      13       -0.000000393592     0.000004698971     0.000002415279
      14       -0.000004882979    -0.000012624958     0.000002370257

  **** Optimization is complete! (in 9 steps) ****
    Final optimized geometry and variables:
    Molecular point group: c1

    Geometry (in Angstrom), charge = 0, multiplicity = 1:

    O            0.302569089391     1.546321185006    -0.110028207541
    C            0.228257476836     0.371633681205    -0.063701986611
    C           -1.084745439852    -0.381542763958    -0.071744634252
    O            1.347713066090    -0.354813998206    -0.088570996465
    C           -2.291034090877     0.538890675015    -0.175401882719
    H           -1.055912506298    -1.077334245786    -0.903939879112
    H           -1.148958186824    -0.988060470388     0.825215160409
    H           -2.252063292236     1.128761221456    -1.080594942123
    H           -3.202998860540    -0.045703161823    -0.183570034937
    H           -2.328820115551     1.223553621031     0.660531813052
    C            1.418256758096    -1.640071380634     0.476333901670
    H            1.138648658125    -1.624914207619     1.522190712445
    H            2.448985376713    -1.944429511012     0.395559207250
    H            0.800009164601    -2.352401193492    -0.053884834210

  Mulliken Charges: (a.u.)
   Center  Symbol    Alpha    Beta     Spin     Total
       1     O     4.17640  4.17640  0.00000 -0.35279
       2     C     2.80650  2.80650  0.00000  0.38700
       3     C     3.12098  3.12098  0.00000 -0.24197
       4     O     4.13352  4.13352  0.00000 -0.26704
       5     C     3.13921  3.13921  0.00000 -0.27842
       6     H     0.43830  0.43830  0.00000  0.12341
       7     H     0.44371  0.44371  0.00000  0.11259
       8     H     0.44511  0.44511  0.00000  0.10978
       9     H     0.45137  0.45137  0.00000  0.09727
      10     H     0.44613  0.44613  0.00000  0.10775
      11     C     3.04565  3.04565  0.00000 -0.09131
      12     H     0.45832  0.45832  0.00000  0.08336
      13     H     0.43417  0.43417  0.00000  0.13165
      14     H     0.46063  0.46063  0.00000  0.07873

   Total alpha = 24.00000, Total beta = 24.00000, Total charge =  0.00000
