                              Psi4 1.0.54 Driver

  ==> Input File <==

--------------------------------------------------------------------------
set {
	reference rhf
	basis cc-pvtz
}

set_num_threads( 4 )
memory 2 gb

molecule MOL {
0 1

H	 2.293603	 -1.914065	 -0.055203
O	 2.824271	 -1.154299	 0.131461
C	 2.076458	 -0.067370	 -0.038225
C	 0.626018	 -0.337582	 0.258241
O	 2.538288	 0.965419	 -0.381593
C	 -0.267326	 0.883135	 0.076490
H	 0.325620	 -1.161483	 -0.378003
H	 0.574537	 -0.713685	 1.275261
C	 -1.726822	 0.642622	 0.463839
H	 -0.210803	 1.217591	 -0.953497
H	 0.129920	 1.693110	 0.675679
C	 -2.480891	 -0.340606	 -0.429852
H	 -2.243098	 1.597649	 0.438609
H	 -1.776542	 0.301208	 1.495542
C	 -3.955933	 -0.460128	 -0.060472
H	 -2.393755	 -0.020485	 -1.464726
H	 -2.024244	 -1.323637	 -0.374360
H	 -4.467673	 -1.160944	 -0.709827
H	 -4.458917	 0.497287	 -0.144505
H	 -4.076458	 -0.806900	 0.960497

	symmetry c1
}
set optking {
	frozen_dihedral = ("
		1 2 3 5
	")
}

ee,wfn = optimize('scf', return_wfn=True)
oeprop( wfn, 'DIPOLE', 'QUADRUPOLE', 'MULLIKEN_CHARGES')
f=open( 'psi4out.xyz', 'w' )
f.write( "20  " )
f.write( str(ee) + "\n" )
f.write( MOL.save_string_xyz() )
f.close()
--------------------------------------------------------------------------

    Molecular point group: c1
  Charge       = 0
  Multiplicity = 1
  Basis Set: CC-PVTZ
  Basis Set:
  @DF-RHF Final Energy:  -384.08140518428559
    Total Energy =                       -384.0814051842858134
    Molecular point group: c1
  Basis Set: CC-PVTZ
  Basis Set:
  Basis Set: CC-PVTZ
  Basis Set:
  @DF-RHF Final Energy:  -384.08246223576094
    Total Energy =                       -384.0824622357612270
  Basis Set: CC-PVTZ
  Basis Set:
  Basis Set: CC-PVTZ
  Basis Set:
  @DF-RHF Final Energy:  -384.08265389220014
    Total Energy =                       -384.0826538921995166
  Basis Set: CC-PVTZ
  Basis Set:
  Basis Set: CC-PVTZ
  Basis Set:
  @DF-RHF Final Energy:  -384.08268161376327
    Total Energy =                       -384.0826816137629862
  Basis Set: CC-PVTZ
  Basis Set:
  Basis Set: CC-PVTZ
  Basis Set:
  @DF-RHF Final Energy:  -384.08282065549145
    Total Energy =                       -384.0828206554914459
  Basis Set: CC-PVTZ
  Basis Set:
  Charge       = 0
  Multiplicity = 1
  Basis Set: CC-PVTZ
  Basis Set:

    Orbital Energies (a.u.)
    -----------------------

    Doubly Occupied:

       1A    -20.599789     2A    -20.539354     3A    -11.372699
       4A    -11.248301     5A    -11.225916     6A    -11.223774
       7A    -11.222915     8A    -11.214635     9A     -1.468832
      10A     -1.372997    11A     -1.101953    12A     -1.044876
      13A     -0.961368    14A     -0.867159    15A     -0.830627
      16A     -0.792827    17A     -0.721292    18A     -0.672019
      19A     -0.663550    20A     -0.639295    21A     -0.613713
      22A     -0.595678    23A     -0.576895    24A     -0.564367
      25A     -0.540457    26A     -0.518515    27A     -0.500186
      28A     -0.487224    29A     -0.475615    30A     -0.471290
      31A     -0.462917    32A     -0.443613

  @DF-RHF Final Energy:  -384.08282109838473

   => Energetics <=

    Nuclear Repulsion Energy =            376.4535747955667944
    One-Electron Energy =               -1269.0035011282316191
    Two-Electron Energy =                 508.4671052342796429
    DFT Exchange-Correlation Energy =       0.0000000000000000
    Empirical Dispersion Energy =           0.0000000000000000
    PCM Polarization Energy =               0.0000000000000000
    EFP Energy =                            0.0000000000000000
    Total Energy =                       -384.0828210983852387
    Molecular point group: c1
  Basis Set: CC-PVTZ
  Basis Set:

  -Total Gradient:
     Atom            X                  Y                   Z
    ------   -----------------  -----------------  -----------------
       1        0.001584412592    -0.000030756257    -0.005900130597
       2       -0.002330423915    -0.000602743703     0.005244656327
       3        0.001486432931     0.002308726795     0.005601463476
       4        0.000003864113     0.000008716516     0.000030437470
       5       -0.000692459152    -0.001668144571    -0.004959996854
       6       -0.000020281824    -0.000006557781    -0.000019208610
       7        0.000001794774    -0.000001033811    -0.000012369582
       8       -0.000018055623    -0.000011065856    -0.000005708133
       9        0.000001981723     0.000001172740     0.000007789887
      10        0.000008478044    -0.000001683251    -0.000002009898
      11        0.000000788187     0.000004773241     0.000004912591
      12       -0.000004848823    -0.000006369449     0.000007994109
      13       -0.000010187326     0.000007219412     0.000001894355
      14       -0.000004791641    -0.000005963207     0.000010494792
      15        0.000004309963     0.000007064556    -0.000006852296
      16        0.000003128259     0.000000140398    -0.000008045057
      17       -0.000000216679    -0.000003830314     0.000001603681
      18       -0.000005904151    -0.000004668754    -0.000006585192
      19       -0.000007617371     0.000008944821     0.000001312945
      20       -0.000000404079    -0.000003941526     0.000008346587

  **** Optimization is complete! (in 6 steps) ****
    Final optimized geometry and variables:
    Molecular point group: c1

    Geometry (in Angstrom), charge = 0, multiplicity = 1:

    H            2.448201847095    -1.936233860430     0.081794830086
    O            2.894986732210    -1.116538498618     0.203055168752
    C            2.089074709084    -0.068376108451    -0.022302895050
    C            0.629518700224    -0.315470560751     0.285592194924
    O            2.530969809426     0.941620135642    -0.429455946680
    C           -0.262993303664     0.888111280798     0.008500445158
    H            0.315499026778    -1.179620870990    -0.293284864319
    H            0.566809501253    -0.612442950950     1.328707049837
    C           -1.724403837895     0.681851331020     0.408250144920
    H           -0.200359612258     1.142630965996    -1.043479566104
    H            0.136871569562     1.738547691237     0.545846289591
    C           -2.480424504437    -0.363375085755    -0.410542062647
    H           -2.236329953148     1.634128644309     0.308301397982
    H           -1.779144885183     0.421024874845     1.462997192198
    C           -3.956818776310    -0.449430183403    -0.036965535967
    H           -2.389537614637    -0.123208352362    -1.466516749038
    H           -2.028373981030    -1.341805171440    -0.279451710894
    H           -4.469073850495    -1.197656518115    -0.630570274722
    H           -4.456329093180     0.499821961592    -0.197776963029
    H           -4.081176545283    -0.714051292800     1.007855852758

  Mulliken Charges: (a.u.)
   Center  Symbol    Alpha    Beta     Spin     Total
       1     H     0.38807  0.38807  0.00000  0.22386
       2     O     4.15158  4.15158  0.00000 -0.30316
       3     C     2.80173  2.80173  0.00000  0.39653
       4     C     3.12571  3.12571  0.00000 -0.25142
       5     O     4.17153  4.17153  0.00000 -0.34306
       6     C     3.09692  3.09692  0.00000 -0.19385
       7     H     0.45115  0.45115  0.00000  0.09770
       8     H     0.43635  0.43635  0.00000  0.12731
       9     C     3.09954  3.09954  0.00000 -0.19907
      10     H     0.44376  0.44376  0.00000  0.11249
      11     H     0.43600  0.43600  0.00000  0.12801
      12     C     3.08715  3.08715  0.00000 -0.17429
      13     H     0.44455  0.44455  0.00000  0.11090
      14     H     0.45349  0.45349  0.00000  0.09302
      15     C     3.14928  3.14928  0.00000 -0.29856
      16     H     0.45162  0.45162  0.00000  0.09675
      17     H     0.45670  0.45670  0.00000  0.08661
      18     H     0.44751  0.44751  0.00000  0.10498
      19     H     0.45271  0.45271  0.00000  0.09457
      20     H     0.45466  0.45466  0.00000  0.09068

   Total alpha = 32.00000, Total beta = 32.00000, Total charge =  0.00000

*** Psi4 exiting successfully. Buy a developer a beer!
