  ==> Input File <==

--------------------------------------------------------------------------
set {
	reference rhf
	basis 6-31G*
}

set_num_threads( 4 )
memory 2 gb

molecule MOL {
0 1

O	 1.846828	 1.296221	 0.002186
C	 1.705091	 0.115954	 0.001797
C	 0.381791	 -0.609811	 -0.001246
O	 2.721346	 -0.737485	 -0.000216
C	 -0.823006	 0.326197	 -0.001226
H	 0.372241	 -1.263899	 -0.868881
H	 0.369915	 -1.266920	 0.864079
C	 -2.149449	 -0.435114	 -0.005261
H	 -0.769205	 0.978285	 -0.867294
H	 -0.772210	 0.974480	 0.867944
C	 -3.368772	 0.488524	 -0.006182
H	 -2.192747	 -1.086045	 -0.877276
H	 -2.196305	 -1.088972	 0.864312
C	 -4.693816	 -0.272727	 -0.008983
H	 -3.324794	 1.140629	 -0.875646
H	 -3.327411	 1.138794	 0.864781
H	 -4.780265	 -0.906705	 -0.886942
H	 -5.538642	 0.408976	 -0.009311
H	 -4.782693	 -0.908951	 0.867163
C	 4.024888	 -0.184556	 -0.001949
H	 4.179030	 0.422472	 -0.882452
H	 4.701782	 -1.024608	 -0.003642
H	 4.181981	 0.421185	 0.878906

	symmetry c1
}
set optking {
	frozen_dihedral = ("
		1 2 4 20
	")
}

ee = optimize('scf')
oeprop('DIPOLE', 'QUADRUPOLE', 'MULLIKEN_CHARGES')
f=open( 'psi4out.xyz', 'w' )
f.write( "23  " )
f.write( str(ee) + "\n" )
f.write( MOL.save_string_xyz() )
f.close()
--------------------------------------------------------------------------

    Molecular point group: c1
  Charge       = 0
  Multiplicity = 1
  Basis Set: 6-31G*
  Basis Set:
  @DF-RHF Final Energy:  -422.97631297053982
    Total Energy =                       -422.9763129705393112
    Molecular point group: c1
  Basis Set: 6-31G*
  Basis Set:
  Basis Set: 6-31G*
  Basis Set:
  @DF-RHF Final Energy:  -422.97628785071447
    Total Energy =                       -422.9762878507141295
  Basis Set: 6-31G*
  Basis Set:
  Basis Set: 6-31G*
  Basis Set:
  @DF-RHF Final Energy:  -422.97631375244066
    Total Energy =                       -422.9763137524410013
  Basis Set: 6-31G*
  Basis Set:
  Charge       = 0
  Multiplicity = 1
  Basis Set: 6-31G*
  Basis Set:

    Orbital Energies (a.u.)
    -----------------------

    Doubly Occupied:

       1A    -20.603633     2A    -20.545437     3A    -11.372261
       4A    -11.280852     5A    -11.235549     6A    -11.219288
       7A    -11.217892     8A    -11.216472     9A    -11.209649
      10A     -1.469329    11A     -1.362778    12A     -1.093218
      13A     -1.043662    14A     -0.987044    15A     -0.932105
      16A     -0.843563    17A     -0.795079    18A     -0.767281
      19A     -0.696854    20A     -0.683874    21A     -0.671498
      22A     -0.651785    23A     -0.609281    24A     -0.599407
      25A     -0.572765    26A     -0.558041    27A     -0.557283
      28A     -0.523799    29A     -0.521111    30A     -0.507755
      31A     -0.484410    32A     -0.469776    33A     -0.466294
      34A     -0.461320    35A     -0.455628    36A     -0.435484

  @DF-RHF Final Energy:  -422.97631373342148

   => Energetics <=

    Nuclear Repulsion Energy =            452.1222336624320519
    One-Electron Energy =               -1471.9541817455915407
    Two-Electron Energy =                 596.8556343497389207
    DFT Exchange-Correlation Energy =       0.0000000000000000
    Empirical Dispersion Energy =           0.0000000000000000
    PCM Polarization Energy =               0.0000000000000000
    EFP Energy =                            0.0000000000000000
    Total Energy =                       -422.9763137334205112
    Molecular point group: c1
  Basis Set: 6-31G*
  Basis Set:

  -Total Gradient:
     Atom            X                  Y                   Z
    ------   -----------------  -----------------  -----------------
       1        0.000000823182    -0.000002820679     0.000012646826
       2        0.000001582362     0.000001504319    -0.000041815813
       3       -0.000000412562     0.000000175844     0.000011252983
       4        0.000000159983     0.000001639521     0.000006726726
       5       -0.000001610457    -0.000001393255     0.000021457815
       6        0.000002490544    -0.000000622071    -0.000000441314
       7       -0.000002783738     0.000000345077    -0.000000641046
       8        0.000000099749    -0.000000091753    -0.000004753634
       9       -0.000002745184    -0.000000139443    -0.000000441976
      10        0.000003070424     0.000001451057     0.000002069220
      11        0.000001221496     0.000001322781    -0.000015858598
      12        0.000002896229     0.000001133028    -0.000000515733
      13       -0.000002528060    -0.000001474384     0.000000429977
      14       -0.000000504918     0.000001697296     0.000010770144
      15       -0.000002399742    -0.000001367926    -0.000002765800
      16        0.000001621116     0.000000250659    -0.000004365629
      17        0.000000484934     0.000003097106    -0.000001648595
      18        0.000000489315    -0.000000952831     0.000004194072
      19       -0.000000774832    -0.000003575752    -0.000001086334
      20       -0.000002810610     0.000000677941     0.000006774211
      21       -0.000001525207    -0.000000339206    -0.000001095571
      22        0.000001626886    -0.000001126980    -0.000000841389
      23        0.000001529091     0.000000609649    -0.000000050541

  **** Optimization is complete! (in 4 steps) ****
    Final optimized geometry and variables:
    Molecular point group: c1

    Geometry (in Angstrom), charge = 0, multiplicity = 1:

    O            1.846795683167     1.296226706852     0.003744172192
    C            1.705121345436     0.115977030112     0.001599704149
    C            0.381787507052    -0.609768730425    -0.000682739620
    O            2.721337574762    -0.737506764020     0.001174302509
    C           -0.823035305393     0.326218652131     0.000222654862
    H            0.371701301519    -1.263723411185    -0.868417779113
    H            0.370460365282    -1.267014938296     0.864538089157
    C           -2.149453742806    -0.435132812060    -0.002749564329
    H           -0.769877148881     0.978294057595    -0.865977070506
    H           -0.771537682724     0.974543307820     0.869335536878
    C           -3.368760650976     0.488493127205    -0.003003590900
    H           -2.193346196278    -1.086202442356    -0.874612586243
    H           -2.195712087453    -1.088839352919     0.867018326993
    C           -4.693826077426    -0.272758493983    -0.004122949537
    H           -3.325612008146     1.140121925899    -0.872833115733
    H           -3.326604815547     1.139199651205     0.867561684930
    H           -4.781283848207    -0.906979713840    -0.881851282201
    H           -5.538666863208     0.408886235753    -0.003637201372
    H           -4.781744536935    -0.908789620380     0.872247996583
    C            4.024915528844    -0.184597287076     0.003420333318
    H            4.181423052903     0.423279452228    -0.876072689982
    H            4.701810804830    -1.024707261634     0.002608817152
    H            4.179710777105     0.420209542634     0.885330022497

  Mulliken Charges: (a.u.)
   Center  Symbol    Alpha    Beta     Spin     Total
       1     O     4.28608  4.28608  0.00000 -0.57216
       2     C     2.60486  2.60486  0.00000  0.79028
       3     C     3.20823  3.20823  0.00000 -0.41645
       4     O     4.30741  4.30741  0.00000 -0.61482
       5     C     3.15242  3.15242  0.00000 -0.30485
       6     H     0.40064  0.40064  0.00000  0.19872
       7     H     0.40064  0.40064  0.00000  0.19873
       8     C     3.15332  3.15332  0.00000 -0.30665
       9     H     0.41171  0.41171  0.00000  0.17657
      10     H     0.41173  0.41173  0.00000  0.17655
      11     C     3.15155  3.15155  0.00000 -0.30310
      12     H     0.42402  0.42402  0.00000  0.15196
      13     H     0.42402  0.42402  0.00000  0.15196
      14     C     3.23958  3.23958  0.00000 -0.47917
      15     H     0.42132  0.42132  0.00000  0.15735
      16     H     0.42133  0.42133  0.00000  0.15734
      17     H     0.42182  0.42182  0.00000  0.15636
      18     H     0.41847  0.41847  0.00000  0.16306
      19     H     0.42182  0.42182  0.00000  0.15636
      20     C     3.09245  3.09245  0.00000 -0.18489
      21     H     0.40907  0.40907  0.00000  0.18185
      22     H     0.40843  0.40843  0.00000  0.18314
      23     H     0.40908  0.40908  0.00000  0.18185

   Total alpha = 36.00000, Total beta = 36.00000, Total charge =  0.00000
