  ==> Input File <==

--------------------------------------------------------------------------
set {
	reference rhf
	basis 6-31G*
}

set_num_threads( 4 )
memory 2 gb

molecule MOL {
0 1

H	 -2.944758	 2.272154	 -0.335808
O	 -2.247931	 1.677364	 -0.573637
C	 -2.306886	 0.532354	 0.237577
C	 -1.177863	 -0.397191	 -0.171080
H	 -2.206516	 0.801595	 1.288169
H	 -3.265443	 0.028626	 0.120252
C	 0.198102	 0.111031	 0.262842
H	 -1.208843	 -0.518759	 -1.250427
H	 -1.368741	 -1.376554	 0.258909
C	 1.331804	 -0.827780	 -0.158768
H	 0.361943	 1.100838	 -0.156218
H	 0.217265	 0.229072	 1.345532
C	 2.723619	 -0.410569	 0.329459
H	 1.342964	 -0.912588	 -1.244120
H	 1.116806	 -1.824343	 0.220779
C	 3.243875	 0.895854	 -0.272975
H	 3.424222	 -1.207124	 0.091250
H	 2.714788	 -0.329854	 1.414619
H	 3.251977	 0.848779	 -1.358681
H	 2.637085	 1.747371	 0.016682
H	 4.259473	 1.094070	 0.055697

	symmetry c1
}
set optking {
	frozen_dihedral = ("
		2 3 4 8
	")
}

ee = optimize('scf')
oeprop('DIPOLE', 'QUADRUPOLE', 'MULLIKEN_CHARGES')
f=open( 'psi4out.xyz', 'w' )
f.write( "21  " )
f.write( str(ee) + "\n" )
f.write( MOL.save_string_xyz() )
f.close()
--------------------------------------------------------------------------

    Molecular point group: c1
  Charge       = 0
  Multiplicity = 1
  Basis Set: 6-31G*
  Basis Set:
  @DF-RHF Final Energy:  -310.21262126861433
    Total Energy =                       -310.2126212686144981
    Molecular point group: c1
  Basis Set: 6-31G*
  Basis Set:
  Basis Set: 6-31G*
  Basis Set:
  @DF-RHF Final Energy:  -310.21274542823352
    Total Energy =                       -310.2127454282332337
  Basis Set: 6-31G*
  Basis Set:
  Basis Set: 6-31G*
  Basis Set:
  @DF-RHF Final Energy:  -310.21277299004942
    Total Energy =                       -310.2127729900491886
  Basis Set: 6-31G*
  Basis Set:
  Basis Set: 6-31G*
  Basis Set:
  @DF-RHF Final Energy:  -310.21276710657958
    Total Energy =                       -310.2127671065798040
  Basis Set: 6-31G*
  Basis Set:
  Basis Set: 6-31G*
  Basis Set:
  @DF-RHF Final Energy:  -310.21278611711097
    Total Energy =                       -310.2127861171111363
  Basis Set: 6-31G*
  Basis Set:
  Basis Set: 6-31G*
  Basis Set:
  @DF-RHF Final Energy:  -310.21278807637970
    Total Energy =                       -310.2127880763794678
  Basis Set: 6-31G*
  Basis Set:
  Charge       = 0
  Multiplicity = 1
  Basis Set: 6-31G*
  Basis Set:

    Orbital Energies (a.u.)
    -----------------------

    Doubly Occupied:

       1A    -20.553025     2A    -11.267783     3A    -11.211602
       4A    -11.211289     5A    -11.209077     6A    -11.206704
       7A    -11.203579     8A     -1.359506     9A     -1.081105
      10A     -1.029831    11A     -0.952569    12A     -0.874594
      13A     -0.802031    14A     -0.773203    15A     -0.705681
      16A     -0.637665    17A     -0.628080    18A     -0.599916
      19A     -0.588693    20A     -0.561823    21A     -0.540017
      22A     -0.517049    23A     -0.501634    24A     -0.494524
      25A     -0.475578    26A     -0.455539    27A     -0.455000
      28A     -0.442534    29A     -0.425697

  @DF-RHF Final Energy:  -310.21278860140887

   => Energetics <=

    Nuclear Repulsion Energy =            317.1074350860178583
    One-Electron Energy =               -1049.1097863307322768
    Two-Electron Energy =                 421.7895626433052598
    DFT Exchange-Correlation Energy =       0.0000000000000000
    Empirical Dispersion Energy =           0.0000000000000000
    PCM Polarization Energy =               0.0000000000000000
    EFP Energy =                            0.0000000000000000
    Total Energy =                       -310.2127886014091587
    Molecular point group: c1
  Basis Set: 6-31G*
  Basis Set:

  -Total Gradient:
     Atom            X                  Y                   Z
    ------   -----------------  -----------------  -----------------
       1       -0.000002125108     0.000008325950    -0.000007743386
       2       -0.001008651327    -0.000716003783    -0.001097273291
       3        0.001565176042     0.001320817318     0.001366608304
       4       -0.001844999546    -0.002219253662    -0.000011597973
       5       -0.000004814750    -0.000014726579     0.000005596465
       6       -0.000007139627     0.000024312033    -0.000011154918
       7       -0.000016702436     0.000004973702    -0.000037779246
       8        0.001308675600     0.001663362016    -0.000196108480
       9        0.000031914360    -0.000031437771    -0.000004002372
      10        0.000016456717    -0.000021622851     0.000008017875
      11       -0.000017829558     0.000000940559    -0.000006256971
      12       -0.000030874515    -0.000006250931    -0.000011019694
      13       -0.000000187976    -0.000000568105    -0.000004811103
      14       -0.000004465350     0.000006359055     0.000006186124
      15        0.000016485754    -0.000013934543    -0.000001948754
      16       -0.000000955027    -0.000007233075    -0.000002648445
      17        0.000005125095     0.000001278540     0.000003034192
      18       -0.000005835829     0.000003852250     0.000000399535
      19       -0.000006371051     0.000001134822     0.000001122569
      20        0.000004164367     0.000000587650     0.000003435241
      21        0.000002954175    -0.000004912592    -0.000002055670

  **** Optimization is complete! (in 7 steps) ****
    Final optimized geometry and variables:
    Molecular point group: c1

    Geometry (in Angstrom), charge = 0, multiplicity = 1:

    H           -3.093337452007     2.032086004608    -0.274207775740
    O           -2.432569543917     1.405633475942    -0.532708480916
    C           -2.513741409235     0.265849844160     0.286423198901
    C           -1.382650790793    -0.677293758660    -0.089485589274
    H           -2.441878220576     0.539910970927     1.337997453322
    H           -3.471500744219    -0.231026394250     0.141958753576
    C           -0.003931731424    -0.167332746216     0.336601340052
    H           -1.399812996913    -0.802722918972    -1.168626464219
    H           -1.573006173904    -1.650920467167     0.356781655275
    C            1.129210858362    -1.099482777063    -0.099766808191
    H            0.141487898713     0.823963827416    -0.077925847739
    H            0.019051860679    -0.059548392816     1.420679593756
    C            2.522853115426    -0.679535334390     0.381260516042
    H            1.133856745385    -1.175397119827    -1.185990848723
    H            0.923146212982    -2.101290539380     0.272964288638
    C            3.030217473111     0.634573449255    -0.215280773685
    H            3.226516865571    -1.470261067262     0.132134896913
    H            2.521398686220    -0.606685885682     1.467106466394
    H            3.031916870115     0.594602206355    -1.301232491451
    H            2.418090861760     1.479010182846     0.082892283558
    H            4.046421978620     0.837957362945     0.108795271923

  Mulliken Charges: (a.u.)
   Center  Symbol    Alpha    Beta     Spin     Total
       1     H     0.28069  0.28069  0.00000  0.43863
       2     O     4.37002  4.37002  0.00000 -0.74004
       3     C     2.99782  2.99782  0.00000  0.00437
       4     C     3.15932  3.15932  0.00000 -0.31864
       5     H     0.43246  0.43246  0.00000  0.13508
       6     H     0.42924  0.42924  0.00000  0.14152
       7     C     3.15779  3.15779  0.00000 -0.31558
       8     H     0.41312  0.41312  0.00000  0.17376
       9     H     0.42367  0.42367  0.00000  0.15266
      10     C     3.15266  3.15266  0.00000 -0.30532
      11     H     0.40691  0.40691  0.00000  0.18617
      12     H     0.42793  0.42793  0.00000  0.14414
      13     C     3.15190  3.15190  0.00000 -0.30381
      14     H     0.42331  0.42331  0.00000  0.15338
      15     H     0.42450  0.42450  0.00000  0.15100
      16     C     3.24105  3.24105  0.00000 -0.48211
      17     H     0.42198  0.42198  0.00000  0.15604
      18     H     0.42437  0.42437  0.00000  0.15127
      19     H     0.42186  0.42186  0.00000  0.15627
      20     H     0.41887  0.41887  0.00000  0.16227
      21     H     0.42053  0.42053  0.00000  0.15894

   Total alpha = 29.00000, Total beta = 29.00000, Total charge = -0.00000
