  ==> Input File <==

--------------------------------------------------------------------------
set {
	reference rhf
	basis 6-31G*
}

set_num_threads( 4 )
memory 2 gb

molecule MOL {
0 1

H	 -1.663847	 -1.149727	 0.513795
O	 -1.422729	 -0.573567	 -0.196946
C	 -0.731407	 0.539437	 0.309156
C	 0.680193	 0.672443	 -0.251532
H	 -1.319765	 1.404033	 0.030086
H	 -0.700012	 0.506517	 1.397677
C	 1.599139	 -0.492137	 0.118598
H	 0.616402	 0.758534	 -1.332349
H	 1.107032	 1.602637	 0.117369
H	 1.239738	 -1.428634	 -0.297334
H	 2.601428	 -0.335055	 -0.265730
H	 1.674954	 -0.608418	 1.197020

	symmetry c1
}
set optking {
	frozen_dihedral = ("
		1 2 3 4
	")
}

ee = optimize('scf')
oeprop('DIPOLE', 'QUADRUPOLE', 'MULLIKEN_CHARGES')
f=open( 'psi4out.xyz', 'w' )
f.write( "12  " )
f.write( str(ee) + "\n" )
f.write( MOL.save_string_xyz() )
f.close()
--------------------------------------------------------------------------

    Molecular point group: c1
  Charge       = 0
  Multiplicity = 1
  Basis Set: 6-31G*
  Basis Set:
  @DF-RHF Final Energy:  -193.10822552859008
    Total Energy =                       -193.1082255285900260
    Molecular point group: c1
  Basis Set: 6-31G*
  Basis Set:
  Basis Set: 6-31G*
  Basis Set:
  @DF-RHF Final Energy:  -193.10874772235863
    Total Energy =                       -193.1087477223587143
  Basis Set: 6-31G*
  Basis Set:
  Basis Set: 6-31G*
  Basis Set:
  @DF-RHF Final Energy:  -193.10885336532479
    Total Energy =                       -193.1088533653248192
  Basis Set: 6-31G*
  Basis Set:
  Basis Set: 6-31G*
  Basis Set:
  @DF-RHF Final Energy:  -193.10886477121380
    Total Energy =                       -193.1088647712138595
  Basis Set: 6-31G*
  Basis Set:
  Basis Set: 6-31G*
  Basis Set:
  @DF-RHF Final Energy:  -193.10886882427994
    Total Energy =                       -193.1088688242797957
  Basis Set: 6-31G*
  Basis Set:
  Charge       = 0
  Multiplicity = 1
  Basis Set: 6-31G*
  Basis Set:

    Orbital Energies (a.u.)
    -----------------------

    Doubly Occupied:

       1A    -20.552312     2A    -11.268645     3A    -11.214179
       4A    -11.207534     5A     -1.358549     6A     -1.047423
       7A     -0.921536     8A     -0.801139     9A     -0.704639
      10A     -0.636908    11A     -0.593477    12A     -0.583081
      13A     -0.521206    14A     -0.511676    15A     -0.487615
      16A     -0.467256    17A     -0.428499

  @DF-RHF Final Energy:  -193.10886957171340

   => Energetics <=

    Nuclear Repulsion Energy =            133.1210160807439706
    One-Electron Energy =                -525.8484220651014311
    Two-Electron Energy =                 199.6185364126440618
    DFT Exchange-Correlation Energy =       0.0000000000000000
    Empirical Dispersion Energy =           0.0000000000000000
    PCM Polarization Energy =               0.0000000000000000
    EFP Energy =                            0.0000000000000000
    Total Energy =                       -193.1088695717133987
    Molecular point group: c1
  Basis Set: 6-31G*
  Basis Set:

  -Total Gradient:
     Atom            X                  Y                   Z
    ------   -----------------  -----------------  -----------------
       1       -0.000003924369    -0.000038601776     0.000025168686
       2       -0.000018863369     0.000032085931     0.000005027748
       3        0.000030482481     0.000010887375    -0.000077746155
       4       -0.000005596802     0.000083973909     0.000031062278
       5        0.000025489830    -0.000020711195    -0.000008258010
       6        0.000003743603    -0.000011986854     0.000012110499
       7       -0.000015967813    -0.000003747868     0.000015056093
       8       -0.000011003088     0.000005794165    -0.000007716140
       9       -0.000015308900    -0.000015866690     0.000010063754
      10        0.000013368723    -0.000032792458     0.000006052828
      11       -0.000013971179    -0.000008647293    -0.000005850733
      12        0.000011550884    -0.000000387245    -0.000004970848

  **** Optimization is complete! (in 6 steps) ****
    Final optimized geometry and variables:
    Molecular point group: c1

    Geometry (in Angstrom), charge = 0, multiplicity = 1:

    H           -1.623552623458    -1.183779564850     0.459056789138
    O           -1.380338060760    -0.582925852435    -0.227692061283
    C           -0.727639647985     0.542833271484     0.313009968533
    C            0.679698564903     0.671649294641    -0.251075031997
    H           -1.307788624617     1.425725098630     0.064065842985
    H           -0.687713591200     0.478376248203     1.398258384599
    C            1.588726431827    -0.495868979050     0.127130151806
    H            0.608691628136     0.746076708660    -1.332462169200
    H            1.107598035257     1.607432734795     0.102887063330
    H            1.182445140101    -1.432705098363    -0.236552481048
    H            2.579471230175    -0.373766043115    -0.298804616750
    H            1.701948330657    -0.572312658025     1.206023814599

  Mulliken Charges: (a.u.)
   Center  Symbol    Alpha    Beta     Spin     Total
       1     H     0.27900  0.27900  0.00000  0.44199
       2     O     4.37203  4.37203  0.00000 -0.74406
       3     C     2.99870  2.99870  0.00000  0.00260
       4     C     3.15589  3.15589  0.00000 -0.31178
       5     H     0.42057  0.42057  0.00000  0.15886
       6     H     0.43264  0.43264  0.00000  0.13472
       7     C     3.24503  3.24503  0.00000 -0.49005
       8     H     0.41424  0.41424  0.00000  0.17152
       9     H     0.42503  0.42503  0.00000  0.14994
      10     H     0.41195  0.41195  0.00000  0.17610
      11     H     0.41830  0.41830  0.00000  0.16341
      12     H     0.42662  0.42662  0.00000  0.14676

   Total alpha = 17.00000, Total beta = 17.00000, Total charge =  0.00000
