  ==> Input File <==

--------------------------------------------------------------------------
set {
	reference rhf
	basis 6-31G*
}

set_num_threads( 1 )
memory 2 gb

molecule MOL {
0 1

O	 1.846825	 1.296220	 0.000415
C	 1.705091	 0.115954	 0.001797
C	 0.381791	 -0.609817	 0.001258
O	 2.721346	 -0.737485	 -0.000216
C	 -0.823008	 0.326187	 0.001381
H	 0.371250	 -1.265087	 -0.865474
H	 0.370908	 -1.265746	 0.867490
C	 -0.449785	 1.752581	 0.407788
H	 -1.578755	 -0.063856	 0.675844
H	 -1.273243	 0.329709	 -0.986336
C	 -1.646828	 2.704898	 0.414127
H	 0.004435	 1.741892	 1.397518
H	 0.310076	 2.137214	 -0.270850
C	 -1.273078	 4.130228	 0.819093
H	 -2.405763	 2.323409	 1.093557
H	 -2.101113	 2.717335	 -0.574107
H	 -0.847321	 4.155396	 1.818248
H	 -2.142029	 4.780880	 0.813813
H	 -0.539846	 4.552307	 0.137529
C	 4.024888	 -0.184556	 -0.001949
H	 4.179030	 0.422472	 -0.882452
H	 4.701782	 -1.024608	 -0.003642
H	 4.181981	 0.421185	 0.878906

	symmetry c1
}
set optking {
	frozen_dihedral = ("
		15 11 8 12,
		9 5 8 12,
		1 2 3 6,
		1 2 4 20
	")
}

ee = energy('scf')
oeprop('DIPOLE', 'QUADRUPOLE', 'MULLIKEN_CHARGES')
f=open( 'psi4out.xyz', 'w' )
f.write( "23  " )
f.write( str(ee) + "\n" )
f.write( MOL.save_string_xyz() )
f.close()
--------------------------------------------------------------------------

    Molecular point group: c1

    Geometry (in Angstrom), charge = 0, multiplicity = 1:

       Center              X                  Y                   Z               Mass
    ------------   -----------------  -----------------  -----------------  -----------------
           O          1.083154680458     0.313268904116    -0.182962123096    15.994914619560
           C          0.941420680458    -0.866997095884    -0.181580123096    12.000000000000
           C         -0.381879319542    -1.592768095884    -0.182119123096    12.000000000000
           O          1.957675680458    -1.720436095884    -0.183593123096    15.994914619560
           C         -1.586678319542    -0.656764095884    -0.181996123096    12.000000000000
           H         -0.392420319542    -2.248038095884    -1.048851123096     1.007825032070
           H         -0.392762319542    -2.248697095884     0.684112876904     1.007825032070
           C         -1.213455319542     0.769629904116     0.224410876904    12.000000000000
           H         -2.342425319542    -1.046807095884     0.492466876904     1.007825032070
           H         -2.036913319542    -0.653242095884    -1.169713123096     1.007825032070
           C         -2.410498319542     1.721946904116     0.230749876904    12.000000000000
           H         -0.759235319542     0.758940904116     1.214140876904     1.007825032070
           H         -0.453594319542     1.154262904116    -0.454227123096     1.007825032070
           C         -2.036748319542     3.147276904116     0.635715876904    12.000000000000
           H         -3.169433319542     1.340457904116     0.910179876904     1.007825032070
           H         -2.864783319542     1.734383904116    -0.757484123096     1.007825032070
           H         -1.610991319542     3.172444904116     1.634870876904     1.007825032070
           H         -2.905699319542     3.797928904116     0.630435876904     1.007825032070
           H         -1.303516319542     3.569355904116    -0.045848123096     1.007825032070
           C          3.261217680458    -1.167507095884    -0.185326123096    12.000000000000
           H          3.415359680458    -0.560479095884    -1.065829123096     1.007825032070
           H          3.938111680458    -2.007559095884    -0.187019123096     1.007825032070
           H          3.418310680458    -0.561766095884     0.695528876904     1.007825032070

  Charge       = 0
  Multiplicity = 1
  Basis Set: 6-31G*
  Basis Set:

    Orbital Energies (a.u.)
    -----------------------

    Doubly Occupied:

       1A    -20.606712     2A    -20.543338     3A    -11.377352
       4A    -11.283148     5A    -11.236677     6A    -11.216645
       7A    -11.198502     8A    -11.196351     9A    -11.186448
      10A     -1.474155    11A     -1.370681    12A     -1.085836
      13A     -1.035152    14A     -0.985060    15A     -0.923679
      16A     -0.838902    17A     -0.790091    18A     -0.771833
      19A     -0.698276    20A     -0.687565    21A     -0.670985
      22A     -0.641182    23A     -0.607627    24A     -0.598702
      25A     -0.557254    26A     -0.551166    27A     -0.548604
      28A     -0.529958    29A     -0.522710    30A     -0.514055
      31A     -0.480709    32A     -0.471576    33A     -0.465624
      34A     -0.443019    35A     -0.439986    36A     -0.395979

  @DF-RHF Final Energy:  -422.93938601349112

   => Energetics <=

    Nuclear Repulsion Energy =            474.6327503943043666
    One-Electron Energy =               -1517.2532107781951254
    Two-Electron Energy =                 619.6810743704020297
    DFT Exchange-Correlation Energy =       0.0000000000000000
    Empirical Dispersion Energy =           0.0000000000000000
    PCM Polarization Energy =               0.0000000000000000
    EFP Energy =                            0.0000000000000000
    Total Energy =                       -422.9393860134887291

  Mulliken Charges: (a.u.)
   Center  Symbol    Alpha    Beta     Spin     Total
       1     O     4.28626  4.28626  0.00000 -0.57252
       2     C     2.60365  2.60365  0.00000  0.79270
       3     C     3.21200  3.21200  0.00000 -0.42401
       4     O     4.30726  4.30726  0.00000 -0.61452
       5     C     3.15720  3.15720  0.00000 -0.31441
       6     H     0.39643  0.39643  0.00000  0.20714
       7     H     0.39714  0.39714  0.00000  0.20573
       8     C     3.15889  3.15889  0.00000 -0.31779
       9     H     0.41800  0.41800  0.00000  0.16400
      10     H     0.41830  0.41830  0.00000  0.16340
      11     C     3.14768  3.14768  0.00000 -0.29536
      12     H     0.42798  0.42798  0.00000  0.14403
      13     H     0.38550  0.38550  0.00000  0.22899
      14     C     3.23722  3.23722  0.00000 -0.47445
      15     H     0.43143  0.43143  0.00000  0.13715
      16     H     0.42857  0.42857  0.00000  0.14285
      17     H     0.42333  0.42333  0.00000  0.15335
      18     H     0.42298  0.42298  0.00000  0.15404
      19     H     0.42154  0.42154  0.00000  0.15693
      20     C     3.09269  3.09269  0.00000 -0.18537
      21     H     0.40915  0.40915  0.00000  0.18171
      22     H     0.40787  0.40787  0.00000  0.18427
      23     H     0.40893  0.40893  0.00000  0.18214

   Total alpha = 36.00000, Total beta = 36.00000, Total charge = -0.00000
