  ==> Input File <==

--------------------------------------------------------------------------
set {
	reference rhf
	basis 6-31G*
}

set_num_threads( 4 )
memory 2 gb

molecule MOL {
0 1

H	 2.176868	 -0.646004	 -0.217325
O	 1.337496	 -0.537251	 0.205931
C	 0.702312	 0.627605	 -0.264544
C	 -0.714990	 0.596302	 0.266387
H	 0.682322	 0.642550	 -1.350929
H	 1.215941	 1.520383	 0.085680
O	 -1.405996	 -0.526611	 -0.195820
H	 -1.257453	 1.468809	 -0.075599
H	 -0.688972	 0.618407	 1.353696
H	 -0.773282	 -1.221211	 -0.327036

	symmetry c1
}
set optking {
	frozen_dihedral = ("
		10 7 4 3
	")
}

ee = optimize('scf')
oeprop('DIPOLE', 'QUADRUPOLE', 'MULLIKEN_CHARGES')
f=open( 'psi4out.xyz', 'w' )
f.write( "10  " )
f.write( str(ee) + "\n" )
f.write( MOL.save_string_xyz() )
f.close()
--------------------------------------------------------------------------

    Molecular point group: c1
  Charge       = 0
  Multiplicity = 1
  Basis Set: 6-31G*
  Basis Set:
  @DF-RHF Final Energy:  -228.92378761779275
    Total Energy =                       -228.9237876177926694
    Molecular point group: c1
  Basis Set: 6-31G*
  Basis Set:
  Basis Set: 6-31G*
  Basis Set:
  @DF-RHF Final Energy:  -228.92391050645361
    Total Energy =                       -228.9239105064536091
  Basis Set: 6-31G*
  Basis Set:
  Basis Set: 6-31G*
  Basis Set:
  @DF-RHF Final Energy:  -228.92404949941536
    Total Energy =                       -228.9240494994153323
  Basis Set: 6-31G*
  Basis Set:
  Charge       = 0
  Multiplicity = 1
  Basis Set: 6-31G*
  Basis Set:

    Orbital Energies (a.u.)
    -----------------------

    Doubly Occupied:

       1A    -20.574555     2A    -20.545025     3A    -11.281070
       4A    -11.267945     5A     -1.386841     6A     -1.348769
       7A     -1.003564     8A     -0.846262     9A     -0.730461
      10A     -0.671156    11A     -0.659866    12A     -0.602062
      13A     -0.574638    14A     -0.540920    15A     -0.483063
      16A     -0.458746    17A     -0.430451

  @DF-RHF Final Energy:  -228.92405152571527

   => Energetics <=

    Nuclear Repulsion Energy =            134.8643786799584348
    One-Electron Energy =                -580.7660731296742824
    Two-Electron Energy =                 216.9776429240006905
    DFT Exchange-Correlation Energy =       0.0000000000000000
    Empirical Dispersion Energy =           0.0000000000000000
    PCM Polarization Energy =               0.0000000000000000
    EFP Energy =                            0.0000000000000000
    Total Energy =                       -228.9240515257151287
    Molecular point group: c1
  Basis Set: 6-31G*
  Basis Set:

  -Total Gradient:
     Atom            X                  Y                   Z
    ------   -----------------  -----------------  -----------------
       1       -0.000015161038     0.000015921483    -0.000009323252
       2       -0.000083470689    -0.000117179766     0.000034912879
       3        0.000805772481    -0.001192839244     0.002084917384
       4       -0.000927884789     0.002090410866    -0.003658671882
       5       -0.000027765980     0.000002704206    -0.000007502291
       6       -0.000089987657     0.000052202626    -0.000000138183
       7       -0.000318400117    -0.001899889298     0.005405589518
       8        0.000061299177     0.000037189423    -0.000008397982
       9        0.000032278892     0.000018419153    -0.000006982165
      10        0.000563319723     0.000993060553    -0.003834404026

  **** Optimization is complete! (in 4 steps) ****
    Final optimized geometry and variables:
    Molecular point group: c1

    Geometry (in Angstrom), charge = 0, multiplicity = 1:

    H            2.176242112493    -0.637557718666    -0.223286398614
    O            1.319204340305    -0.555624335703     0.169961320613
    C            0.706069735764     0.639861783216    -0.247803302500
    C           -0.719112903988     0.609268236723     0.266324479441
    H            0.704864619083     0.706366346316    -1.333449368209
    H            1.225344988577     1.508696156258     0.149038387966
    O           -1.396660831182    -0.537307039916    -0.158028831356
    H           -1.259951410492     1.474705387800    -0.097760257734
    H           -0.700381038142     0.654984196152     1.352755756343
    H           -0.761525782974    -1.234757467094    -0.257203864317

  Mulliken Charges: (a.u.)
   Center  Symbol    Alpha    Beta     Spin     Total
       1     H     0.27558  0.27558  0.00000  0.44883
       2     O     4.37599  4.37599  0.00000 -0.75199
       3     C     3.02356  3.02356  0.00000 -0.04712
       4     C     2.98524  2.98524  0.00000  0.02951
       5     H     0.42356  0.42356  0.00000  0.15288
       6     H     0.42479  0.42479  0.00000  0.15041
       7     O     4.37812  4.37812  0.00000 -0.75624
       8     H     0.41976  0.41976  0.00000  0.16049
       9     H     0.42334  0.42334  0.00000  0.15331
      10     H     0.27004  0.27004  0.00000  0.45992

   Total alpha = 17.00000, Total beta = 17.00000, Total charge = -0.00000
