  ==> Input File <==

--------------------------------------------------------------------------
set {
	reference rhf
	basis 6-31G*
}

set_num_threads( 4 )
memory 2 gb

molecule MOL {
0 1

O	 3.746631	 -0.095608	 -0.734588
C	 2.843464	 0.164689	 -0.000222
C	 1.546494	 -0.624492	 -0.000609
C	 2.934747	 1.309506	 0.987814
C	 0.291004	 0.242674	 0.000989
H	 1.557904	 -1.283758	 -0.867573
H	 1.558622	 -1.285963	 0.864672
C	 -0.994322	 -0.586602	 0.000262
H	 0.309117	 0.896430	 -0.865270
H	 0.309661	 0.894078	 0.869017
C	 -2.259874	 0.272531	 0.000494
H	 -1.004862	 -1.240012	 -0.870939
H	 -1.005220	 -1.241071	 0.870675
C	 -3.549786	 -0.549746	 -0.000374
H	 -2.250389	 0.926680	 -0.869574
H	 -2.250838	 0.925513	 0.871430
C	 -4.809590	 0.315458	 -0.000369
H	 -3.560515	 -1.202009	 -0.871156
H	 -3.561123	 -1.202955	 0.869711
H	 -4.844746	 0.956611	 -0.876632
H	 -5.706986	 -0.295590	 -0.001609
H	 -4.845960	 0.954827	 0.877144
H	 2.805164	 0.945383	 2.002822
H	 3.897521	 1.793063	 0.897956
H	 2.146760	 2.033578	 0.802255

	symmetry c1
}
set optking {
	frozen_dihedral = ("
		1 2 3 6
	")
}

ee = optimize('scf')
oeprop('DIPOLE', 'QUADRUPOLE', 'MULLIKEN_CHARGES')
f=open( 'psi4out.xyz', 'w' )
f.write( "25  " )
f.write( str(ee) + "\n" )
f.write( MOL.save_string_xyz() )
f.close()
--------------------------------------------------------------------------

    Molecular point group: c1
  Charge       = 0
  Multiplicity = 1
  Basis Set: 6-31G*
  Basis Set:
  @DF-RHF Final Energy:  -387.13252737376564
    Total Energy =                       -387.1325273737655834
    Molecular point group: c1
  Basis Set: 6-31G*
  Basis Set:
  Basis Set: 6-31G*
  Basis Set:
  @DF-RHF Final Energy:  -387.13241686891030
    Total Energy =                       -387.1324168689102407
  Basis Set: 6-31G*
  Basis Set:
  Basis Set: 6-31G*
  Basis Set:
  @DF-RHF Final Energy:  -387.13261204662240
    Total Energy =                       -387.1326120466222847
  Basis Set: 6-31G*
  Basis Set:
  Basis Set: 6-31G*
  Basis Set:
  @DF-RHF Final Energy:  -387.13374020299705
    Total Energy =                       -387.1337402029970463
  Basis Set: 6-31G*
  Basis Set:
  @DF-RHF Final Energy:  -387.13387342916991
    Total Energy =                       -387.1338734291696255
  @DF-RHF Final Energy:  -387.13388441119503
    Total Energy =                       -387.1338844111945718
  Basis Set: 6-31G*
  Basis Set:
  @DF-RHF Final Energy:  -387.13389069843163
    Total Energy =                       -387.1338906984323103
  Basis Set: 6-31G*
  Basis Set:
  Basis Set: 6-31G*
  Basis Set:
  @DF-RHF Final Energy:  -387.13389525125308
    Total Energy =                       -387.1338952512530796
  Basis Set: 6-31G*
  Basis Set:
  Basis Set: 6-31G*
  Basis Set:
  @DF-RHF Final Energy:  -387.13389999413857
    Total Energy =                       -387.1338999941384600
  Basis Set: 6-31G*
  Basis Set:
  Charge       = 0
  Multiplicity = 1
  Basis Set: 6-31G*
  Basis Set:

    Orbital Energies (a.u.)
    -----------------------

    Doubly Occupied:

       1A    -20.547344     2A    -11.324402     3A    -11.232335
       4A    -11.229845     5A    -11.227277     6A    -11.224229
       7A    -11.220585     8A    -11.219898     9A    -11.212478
      10A     -1.392824    11A     -1.101637    12A     -1.061194
      13A     -1.010725    14A     -0.970909    15A     -0.897716
      16A     -0.821422    17A     -0.797475    18A     -0.731715
      19A     -0.668874    20A     -0.647566    21A     -0.637709
      22A     -0.618132    23A     -0.601842    24A     -0.588931
      25A     -0.564242    26A     -0.560391    27A     -0.545696
      28A     -0.533858    29A     -0.515296    30A     -0.499250
      31A     -0.487205    32A     -0.479667    33A     -0.469514
      34A     -0.468939    35A     -0.457310    36A     -0.395889

  @DF-RHF Final Energy:  -387.13390002387592

   => Energetics <=

    Nuclear Repulsion Energy =            438.8356456605812923
    One-Electron Energy =               -1394.0104545438771311
    Two-Electron Energy =                 568.0409088594208242
    DFT Exchange-Correlation Energy =       0.0000000000000000
    Empirical Dispersion Energy =           0.0000000000000000
    PCM Polarization Energy =               0.0000000000000000
    EFP Energy =                            0.0000000000000000
    Total Energy =                       -387.1339000238749577
    Molecular point group: c1
  Basis Set: 6-31G*
  Basis Set:

  -Total Gradient:
     Atom            X                  Y                   Z
    ------   -----------------  -----------------  -----------------
       1        0.000335810194    -0.000539644591     0.000607349759
       2       -0.000558791276     0.000886330404    -0.000950895350
       3        0.000617873498    -0.000982102389     0.000827880314
       4        0.000000814593     0.000004409163    -0.000000928703
       5       -0.000012759877     0.000009497271    -0.000011667468
       6       -0.000385117353     0.000621651750    -0.000478183682
       7        0.000000133933     0.000001647606    -0.000000369159
       8        0.000008215508     0.000002424315     0.000002132432
       9       -0.000000664715     0.000003308917     0.000000416357
      10        0.000000154173    -0.000006041778    -0.000002124790
      11       -0.000002937105    -0.000001267372     0.000002381045
      12       -0.000000626384    -0.000001179624     0.000002895847
      13        0.000000683592     0.000001539876     0.000001917775
      14       -0.000000297121     0.000003100379    -0.000004337235
      15        0.000002165460     0.000000237594     0.000002269793
      16       -0.000002769343    -0.000000798789     0.000000942341
      17       -0.000002674760    -0.000001748177    -0.000000084595
      18       -0.000000388751    -0.000000822105    -0.000000461936
      19        0.000000171906     0.000001336467    -0.000000870928
      20        0.000000012120    -0.000000783250     0.000000173218
      21       -0.000001685652     0.000000788273     0.000000414705
      22        0.000000493230     0.000000251934    -0.000000311000
      23       -0.000000050953    -0.000001883617     0.000000400766
      24        0.000000444819     0.000001154190     0.000000581730
      25        0.000001790257    -0.000001406447     0.000000478762

  **** Optimization is complete! (in 10 steps) ****
    Final optimized geometry and variables:
    Molecular point group: c1

    Geometry (in Angstrom), charge = 0, multiplicity = 1:

    O            3.749289552760    -0.191590366053    -0.802466849782
    C            2.883870373817     0.112712183920    -0.039106202483
    C            1.576166880075    -0.658306173935     0.007072758766
    C            3.072060192255     1.258120549475     0.934582516952
    C            0.310845098998     0.209117363988     0.018033500912
    H            1.572100488545    -1.321243399966    -0.849765551169
    H            1.596077585108    -1.279677832298     0.901739401400
    C           -0.967384531961    -0.630697195377    -0.021351943974
    H            0.325313347749     0.880398767883    -0.838316567142
    H            0.296026395790     0.838138080572     0.904138777606
    C           -2.242039974874     0.214681452678    -0.010600845474
    H           -0.957359650429    -1.257277823303    -0.910782594331
    H           -0.976999281386    -1.309113826245     0.830000198536
    C           -3.521781033862    -0.622401898374    -0.053370963428
    H           -2.230077522859     0.895015182247    -0.860438714862
    H           -2.252629988497     0.840465335883     0.880381417444
    C           -4.791621126539     0.227822825405    -0.042658048469
    H           -3.513359405520    -1.247011423394    -0.943960932847
    H           -3.535685341321    -1.302310446061     0.795803844322
    H           -4.824198466837     0.894761151634    -0.899534391253
    H           -5.681098529515    -0.393640716325    -0.073667690227
    H           -4.846658473254     0.839445376121     0.853506171936
    H            2.752471739604     0.981929802471     1.934613495851
    H            4.113622068206     1.547598969755     0.947857103753
    H            2.474258857523     2.110958242181     0.626795656534

  Mulliken Charges: (a.u.)
   Center  Symbol    Alpha    Beta     Spin     Total
       1     O     4.26194  4.26194  0.00000 -0.52389
       2     C     2.73110  2.73110  0.00000  0.53780
       3     C     3.20680  3.20680  0.00000 -0.41360
       4     C     3.29138  3.29138  0.00000 -0.58277
       5     C     3.16451  3.16451  0.00000 -0.32902
       6     H     0.39906  0.39906  0.00000  0.20188
       7     H     0.40978  0.40978  0.00000  0.18044
       8     C     3.15214  3.15214  0.00000 -0.30427
       9     H     0.41600  0.41600  0.00000  0.16799
      10     H     0.41883  0.41883  0.00000  0.16234
      11     C     3.15135  3.15135  0.00000 -0.30270
      12     H     0.41935  0.41935  0.00000  0.16131
      13     H     0.42211  0.42211  0.00000  0.15579
      14     C     3.15198  3.15198  0.00000 -0.30396
      15     H     0.42254  0.42254  0.00000  0.15491
      16     H     0.42380  0.42380  0.00000  0.15239
      17     C     3.23960  3.23960  0.00000 -0.47920
      18     H     0.42186  0.42186  0.00000  0.15627
      19     H     0.42261  0.42261  0.00000  0.15478
      20     H     0.42118  0.42118  0.00000  0.15763
      21     H     0.41834  0.41834  0.00000  0.16331
      22     H     0.42167  0.42167  0.00000  0.15667
      23     H     0.41144  0.41144  0.00000  0.17712
      24     H     0.39601  0.39601  0.00000  0.20798
      25     H     0.40460  0.40460  0.00000  0.19080

   Total alpha = 36.00000, Total beta = 36.00000, Total charge = -0.00000
