                              Psi4 1.0.54 Driver

  ==> Input File <==

--------------------------------------------------------------------------
set {
	reference rhf
	basis cc-pvtz
}

set_num_threads( 4 )
memory 2 gb

molecule MOL {
0 1

H	 -3.144994	 -1.202467	 -0.018751
O	 -2.321472	 -0.864941	 -0.318626
C	 -2.021813	 0.336996	 0.342658
C	 -0.669613	 0.837286	 -0.127252
H	 -2.780861	 1.084746	 0.127159
H	 -2.006390	 0.184138	 1.420053
C	 0.490865	 -0.082543	 0.241244
H	 -0.708709	 0.967192	 -1.204587
H	 -0.507562	 1.822272	 0.303070
C	 0.807042	 -1.108750	 -0.842978
H	 0.259548	 -0.593993	 1.168588
H	 1.376782	 0.519374	 0.433523
C	 1.971739	 -2.023438	 -0.478819
H	 -0.076792	 -1.711320	 -1.033894
H	 1.031248	 -0.594441	 -1.774057
H	 1.762846	 -2.578351	 0.429669
H	 2.169930	 -2.741115	 -1.266832
H	 2.880468	 -1.453640	 -0.314539

	symmetry c1
}
set optking {
	frozen_dihedral = ("
		10 7 4 8
	")
}

ee,wfn = optimize('scf', return_wfn=True)
oeprop( wfn, 'DIPOLE', 'QUADRUPOLE', 'MULLIKEN_CHARGES')
f=open( 'psi4out.xyz', 'w' )
f.write( "18  " )
f.write( str(ee) + "\n" )
f.write( MOL.save_string_xyz() )
f.close()
--------------------------------------------------------------------------

    Molecular point group: c1
  Charge       = 0
  Multiplicity = 1
  Basis Set: CC-PVTZ
  Basis Set:
  @DF-RHF Final Energy:  -271.28301499835175
    Total Energy =                       -271.2830149983517458
    Molecular point group: c1
  Basis Set: CC-PVTZ
  Basis Set:
  Basis Set: CC-PVTZ
  Basis Set:
  @DF-RHF Final Energy:  -271.28342184778955
    Total Energy =                       -271.2834218477894410
  Basis Set: CC-PVTZ
  Basis Set:
  Basis Set: CC-PVTZ
  Basis Set:
  @DF-RHF Final Energy:  -271.28347797706601
    Total Energy =                       -271.2834779770658429
  Basis Set: CC-PVTZ
  Basis Set:
  Basis Set: CC-PVTZ
  Basis Set:
  @DF-RHF Final Energy:  -271.28348197354728
    Total Energy =                       -271.2834819735471683
  Basis Set: CC-PVTZ
  Basis Set:
  Charge       = 0
  Multiplicity = 1
  Basis Set: CC-PVTZ
  Basis Set:

    Orbital Energies (a.u.)
    -----------------------

    Doubly Occupied:

       1A    -20.547768     2A    -11.266713     3A    -11.211401
       4A    -11.206772     5A    -11.200681     6A    -11.198542
       7A     -1.365618     8A     -1.072648     9A     -1.007598
      10A     -0.913062    11A     -0.821292    12A     -0.778742
      13A     -0.707763    14A     -0.648465    15A     -0.617718
      16A     -0.579077    17A     -0.571558    18A     -0.557846
      19A     -0.526039    20A     -0.506428    21A     -0.486336
      22A     -0.463356    23A     -0.451331    24A     -0.447819
      25A     -0.431172

  @DF-RHF Final Energy:  -271.28348228664521

   => Energetics <=

    Nuclear Repulsion Energy =            254.0343681377547114
    One-Electron Energy =                -871.4642113528916525
    Two-Electron Energy =                 346.1463609284916174
    DFT Exchange-Correlation Energy =       0.0000000000000000
    Empirical Dispersion Energy =           0.0000000000000000
    PCM Polarization Energy =               0.0000000000000000
    EFP Energy =                            0.0000000000000000
    Total Energy =                       -271.2834822866453806
    Molecular point group: c1
  Basis Set: CC-PVTZ
  Basis Set:

  -Total Gradient:
     Atom            X                  Y                   Z
    ------   -----------------  -----------------  -----------------
       1       -0.000002606832     0.000006806188    -0.000001905903
       2       -0.000003192504     0.000008487853    -0.000009189928
       3        0.000014600600    -0.000008974681     0.000017786787
       4        0.001218841715     0.001562430398    -0.000037609877
       5       -0.000004966120    -0.000018192650    -0.000009967534
       6        0.000008064122     0.000006283553     0.000002724973
       7       -0.001060919936    -0.001137201406     0.000541965944
       8       -0.000788580107    -0.001042726484    -0.000108381118
       9       -0.000000990863     0.000001225555     0.000006786515
      10        0.000608477161     0.000640870622    -0.000379772286
      11        0.000000902481     0.000000795122    -0.000014038477
      12        0.000010592459     0.000001791622    -0.000003493499
      13        0.000014812686    -0.000000495753    -0.000004199431
      14       -0.000019211469    -0.000010911776    -0.000006585238
      15        0.000000365502    -0.000002458366     0.000010723572
      16       -0.000006461394     0.000004550667    -0.000007392208
      17        0.000010463148    -0.000010249482     0.000002282365
      18       -0.000000190657    -0.000002030985     0.000000265344

  **** Optimization is complete! (in 5 steps) ****
    Final optimized geometry and variables:
    Molecular point group: c1

    Geometry (in Angstrom), charge = 0, multiplicity = 1:

    H           -2.846602493119    -0.666602246751     0.213059144628
    O           -2.015012544194    -0.354104156275    -0.091728279595
    C           -1.695949297072     0.859345022275     0.538615367930
    C           -0.336823189372     1.342924755279     0.067126500844
    H           -2.445628411468     1.611894980526     0.306391562927
    H           -1.682444514927     0.730925603510     1.619075261248
    C            0.833954815537     0.411103579715     0.414407375817
    H           -0.383330900545     1.495061775104    -1.006654673076
    H           -0.175676117960     2.317332641188     0.517589567192
    C            1.175912455211    -0.609908963264    -0.669655998952
    H            0.620321289103    -0.106805274464     1.345780214522
    H            1.717321063272     1.014953028956     0.602663167581
    C            2.336068980720    -1.518905875194    -0.278024137807
    H            0.301032947624    -1.207139223699    -0.892320664158
    H            1.429376055299    -0.079025785390    -1.583606622709
    H            2.099904264485    -2.092872849665     0.612166932476
    H            2.568564921960    -2.221541696490    -1.070286952357
    H            3.234428563742    -0.945846296384    -0.070939827352

  Mulliken Charges: (a.u.)
   Center  Symbol    Alpha    Beta     Spin     Total
       1     H     0.39720  0.39720  0.00000  0.20559
       2     O     4.19570  4.19570  0.00000 -0.39139
       3     C     2.97150  2.97150  0.00000  0.05700
       4     C     3.10103  3.10103  0.00000 -0.20205
       5     H     0.46580  0.46580  0.00000  0.06841
       6     H     0.47471  0.47471  0.00000  0.05058
       7     C     3.08884  3.08884  0.00000 -0.17767
       8     H     0.45244  0.45244  0.00000  0.09512
       9     H     0.44663  0.44663  0.00000  0.10673
      10     C     3.08028  3.08028  0.00000 -0.16057
      11     H     0.45760  0.45760  0.00000  0.08479
      12     H     0.45057  0.45057  0.00000  0.09885
      13     C     3.15119  3.15119  0.00000 -0.30237
      14     H     0.44451  0.44451  0.00000  0.11098
      15     H     0.45910  0.45910  0.00000  0.08180
      16     H     0.45591  0.45591  0.00000  0.08818
      17     H     0.44939  0.44939  0.00000  0.10121
      18     H     0.45760  0.45760  0.00000  0.08480

   Total alpha = 25.00000, Total beta = 25.00000, Total charge =  0.00000

*** Psi4 exiting successfully. Buy a developer a beer!
