                              Psi4 1.0.54 Driver

  ==> Input File <==

--------------------------------------------------------------------------
set {
	reference rhf
	basis cc-pvtz
}

set_num_threads( 4 )
memory 2 gb

molecule MOL {
0 1

H	 -0.636438	 1.826045	 -2.207564
C	 0.070157	 1.962941	 -1.377612
C	 0.062554	 0.862911	 -0.350953
O	 0.767189	 2.917013	 -1.345260
C	 -1.339253	 0.577611	 0.196911
H	 0.752623	 1.125361	 0.440513
H	 0.441725	 -0.028661	 -0.845323
C	 -1.813142	 -0.849710	 -0.061612
H	 -2.032833	 1.276441	 -0.256032
H	 -1.357249	 0.782269	 1.263793
H	 -1.839268	 -1.063526	 -1.124230
H	 -2.810118	 -1.001930	 0.334000
H	 -1.159274	 -1.579980	 0.402282

	symmetry c1
}
set optking {
	frozen_dihedral = ("
		6 3 5 9
	")
}

ee,wfn = optimize('scf', return_wfn=True)
oeprop( wfn, 'DIPOLE', 'QUADRUPOLE', 'MULLIKEN_CHARGES')
f=open( 'psi4out.xyz', 'w' )
f.write( "13  " )
f.write( str(ee) + "\n" )
f.write( MOL.save_string_xyz() )
f.close()
--------------------------------------------------------------------------

    Molecular point group: c1
  Charge       = 0
  Multiplicity = 1
  Basis Set: CC-PVTZ
  Basis Set:
  @DF-RHF Final Energy:  -231.06596054599731
    Total Energy =                       -231.0659605459974273
    Molecular point group: c1
  Basis Set: CC-PVTZ
  Basis Set:
  Basis Set: CC-PVTZ
  Basis Set:
  @DF-RHF Final Energy:  -231.06584889452091
    Total Energy =                       -231.0658488945210252
  Basis Set: CC-PVTZ
  Basis Set:
  Basis Set: CC-PVTZ
  Basis Set:
  @DF-RHF Final Energy:  -231.06275589486498
    Total Energy =                       -231.0627558948646936
  Basis Set: CC-PVTZ
  Basis Set:
  Basis Set: CC-PVTZ
  Basis Set:
  @DF-RHF Final Energy:  -231.06626699368283
    Total Energy =                       -231.0662669936829161
  Basis Set: CC-PVTZ
  Basis Set:
  Basis Set: CC-PVTZ
  Basis Set:
  @DF-RHF Final Energy:  -231.06630519901205
    Total Energy =                       -231.0663051990119925
  Basis Set: CC-PVTZ
  Basis Set:
  Basis Set: CC-PVTZ
  Basis Set:
  @DF-RHF Final Energy:  -231.06630691861267
    Total Energy =                       -231.0663069186126677
  Basis Set: CC-PVTZ
  Basis Set:
  Basis Set: CC-PVTZ
  Basis Set:
  @DF-RHF Final Energy:  -231.06630804641210
    Total Energy =                       -231.0663080464121322
  Basis Set: CC-PVTZ
  Basis Set:
  Charge       = 0
  Multiplicity = 1
  Basis Set: CC-PVTZ
  Basis Set:

    Orbital Energies (a.u.)
    -----------------------

    Doubly Occupied:

       1A    -20.552111     2A    -11.322136     3A    -11.237457
       4A    -11.234690     5A    -11.223310     6A     -1.407444
       7A     -1.086100     8A     -0.977596     9A     -0.844619
      10A     -0.794286    11A     -0.676779    12A     -0.650383
      13A     -0.616395    14A     -0.590713    15A     -0.581461
      16A     -0.528802    17A     -0.509760    18A     -0.490770
      19A     -0.486490    20A     -0.413224

  @DF-RHF Final Energy:  -231.06630813767498

   => Energetics <=

    Nuclear Repulsion Energy =            170.8944142399424209
    One-Electron Energy =                -651.4723916088738633
    Two-Electron Energy =                 249.5116692312566613
    DFT Exchange-Correlation Energy =       0.0000000000000000
    Empirical Dispersion Energy =           0.0000000000000000
    PCM Polarization Energy =               0.0000000000000000
    EFP Energy =                            0.0000000000000000
    Total Energy =                       -231.0663081376747812
    Molecular point group: c1
  Basis Set: CC-PVTZ
  Basis Set:

  -Total Gradient:
     Atom            X                  Y                   Z
    ------   -----------------  -----------------  -----------------
       1        0.000005849553    -0.000001536646     0.000001327759
       2       -0.000005820616     0.000002970076     0.000006768457
       3        0.000306850074    -0.000769885112     0.000207772652
       4       -0.000011232014    -0.000000853411     0.000001687068
       5       -0.000217186271    -0.000367256858    -0.000654596849
       6       -0.000173632173     0.000686776556    -0.000080136952
       7       -0.000009757108     0.000001222206     0.000004538948
       8       -0.000002741157    -0.000001198849    -0.000002786530
       9        0.000105458552     0.000443887741     0.000523364924
      10        0.000001452827     0.000002812055    -0.000005918414
      11       -0.000001200687    -0.000002324111     0.000002029437
      12        0.000004923414     0.000000007042    -0.000000602044
      13       -0.000002964393     0.000005379314    -0.000003448455

  **** Optimization is complete! (in 8 steps) ****
    Final optimized geometry and variables:
    Molecular point group: c1

    Geometry (in Angstrom), charge = 0, multiplicity = 1:

    H           -0.224581587747     0.775367818001    -1.590503665916
    C            0.515582286022     0.884520685556    -0.786325177938
    C            0.517192502681    -0.224378175402     0.230850723084
    O            1.235198016494     1.821700797428    -0.767303422022
    C           -0.894290100592    -0.517630382715     0.786005237845
    H            1.213819813879     0.044500681179     1.012158936018
    H            0.909610232941    -1.105429074196    -0.270509367198
    C           -1.360457101382    -1.951112739245     0.554559467311
    H           -1.613743912758     0.166297175129     0.345447999505
    H           -0.902948082965    -0.303439315599     1.847422104077
    H           -1.403915170303    -2.182935595209    -0.504381934645
    H           -2.348104749771    -2.111861615208     0.970146949339
    H           -0.683809245137    -2.659516062963     1.019945993097

  Mulliken Charges: (a.u.)
   Center  Symbol    Alpha    Beta     Spin     Total
       1     H     0.46679  0.46679  0.00000  0.06643
       2     C     2.90334  2.90334  0.00000  0.19332
       3     C     3.08553  3.08553  0.00000 -0.17106
       4     O     4.16385  4.16385  0.00000 -0.32770
       5     C     3.09773  3.09773  0.00000 -0.19546
       6     H     0.43876  0.43876  0.00000  0.12248
       7     H     0.44951  0.44951  0.00000  0.10098
       8     C     3.14608  3.14608  0.00000 -0.29216
       9     H     0.45175  0.45175  0.00000  0.09650
      10     H     0.44306  0.44306  0.00000  0.11388
      11     H     0.45490  0.45490  0.00000  0.09019
      12     H     0.44682  0.44682  0.00000  0.10636
      13     H     0.45188  0.45188  0.00000  0.09624

   Total alpha = 20.00000, Total beta = 20.00000, Total charge =  0.00000

*** Psi4 exiting successfully. Buy a developer a beer!
