  ==> Input File <==

--------------------------------------------------------------------------
set {
	reference rhf
	basis 6-31G*
}

set_num_threads( 4 )
memory 2 gb

molecule MOL {
0 1

H	 -2.365627	 -1.312883	 -0.379134
C	 -1.358347	 -1.274295	 0.019669
C	 -0.681945	 0.000119	 -0.470601
H	 -0.826096	 -2.155117	 -0.321105
H	 -1.409554	 -1.292283	 1.100109
C	 -1.357790	 1.274691	 0.020220
N	 0.739525	 -0.000142	 0.006128
H	 -0.594190	 0.000341	 -1.545128
H	 -2.364980	 1.313977	 -0.378631
H	 -0.825080	 2.155361	 -0.320114
H	 -1.409060	 1.292170	 1.100671
O	 1.092866	 -0.916014	 0.682079
O	 1.427856	 0.918392	 -0.322348

	symmetry c1
}
set optking {
	frozen_dihedral = ("
		12 7 3 8
	")
}

ee = optimize('scf')
oeprop('DIPOLE', 'QUADRUPOLE', 'MULLIKEN_CHARGES')
f=open( 'psi4out.xyz', 'w' )
f.write( "13  " )
f.write( str(ee) + "\n" )
f.write( MOL.save_string_xyz() )
f.close()
--------------------------------------------------------------------------

    Molecular point group: c1
  Charge       = 0
  Multiplicity = 1
  Basis Set: 6-31G*
  Basis Set:
  @DF-RHF Final Energy:  -321.73701328288001
    Total Energy =                       -321.7370132828799569
    Molecular point group: c1
  Basis Set: 6-31G*
  Basis Set:
  Basis Set: 6-31G*
  Basis Set:
  @DF-RHF Final Energy:  -321.73658415489058
    Total Energy =                       -321.7365841548907497
  Basis Set: 6-31G*
  Basis Set:
  Basis Set: 6-31G*
  Basis Set:
  @DF-RHF Final Energy:  -321.73355591901992
    Total Energy =                       -321.7335559190198637
  Basis Set: 6-31G*
  Basis Set:
  Basis Set: 6-31G*
  Basis Set:
  @DF-RHF Final Energy:  -321.73763699439712
    Total Energy =                       -321.7376369943970644
  Basis Set: 6-31G*
  Basis Set:
  @DF-RHF Final Energy:  -321.73772395124735
    Total Energy =                       -321.7377239512472897
  Basis Set: 6-31G*
  Basis Set:
  @DF-RHF Final Energy:  -321.73790600382637
    Total Energy =                       -321.7379060038260832
  Basis Set: 6-31G*
  Basis Set:
  Basis Set: 6-31G*
  Basis Set:
  @DF-RHF Final Energy:  -321.73791184279821
    Total Energy =                       -321.7379118427983258
  Basis Set: 6-31G*
  Basis Set:
  Basis Set: 6-31G*
  Basis Set:
  @DF-RHF Final Energy:  -321.73791390635097
    Total Energy =                       -321.7379139063511957
  Basis Set: 6-31G*
  Basis Set:
  Charge       = 0
  Multiplicity = 1
  Basis Set: 6-31G*
  Basis Set:

    Orbital Energies (a.u.)
    -----------------------

    Doubly Occupied:

       1A    -20.602752     2A    -20.596339     3A    -15.844184
       4A    -11.307853     5A    -11.245339     6A    -11.240282
       7A     -1.629333     8A     -1.414405     9A     -1.142051
      10A     -0.969918    11A     -0.958718    12A     -0.813038
      13A     -0.759806    14A     -0.725344    15A     -0.720791
      16A     -0.642695    17A     -0.593521    18A     -0.587333
      19A     -0.571282    20A     -0.525565    21A     -0.521801
      22A     -0.481131    23A     -0.471569    24A     -0.446846

  @DF-RHF Final Energy:  -321.73791394995254

   => Energetics <=

    Nuclear Repulsion Energy =            256.7406097789183264
    One-Electron Energy =                -947.3332494749677153
    Two-Electron Energy =                 368.8547257460969604
    DFT Exchange-Correlation Energy =       0.0000000000000000
    Empirical Dispersion Energy =           0.0000000000000000
    PCM Polarization Energy =               0.0000000000000000
    EFP Energy =                            0.0000000000000000
    Total Energy =                       -321.7379139499524854
    Molecular point group: c1
  Basis Set: 6-31G*
  Basis Set:

  -Total Gradient:
     Atom            X                  Y                   Z
    ------   -----------------  -----------------  -----------------
       1        0.000007838277    -0.000001713814    -0.000004075189
       2        0.000002635939     0.000007784347     0.000014007785
       3        0.000082362228     0.001088045871    -0.000372693246
       4        0.000007601600    -0.000003505576     0.000001927992
       5       -0.000002782541     0.000001917955    -0.000003505442
       6        0.000002149090     0.000001131241     0.000006480451
       7       -0.000461397888     0.000590152885     0.001295964572
       8        0.000028475189    -0.001130978172    -0.000006028990
       9        0.000003015060     0.000002095604     0.000000752214
      10        0.000000934935    -0.000002116433     0.000006011637
      11       -0.000006917074     0.000008809412     0.000005602772
      12        0.000327712606    -0.000535977514    -0.000958967519
      13        0.000008372570    -0.000025645805     0.000014522960

  **** Optimization is complete! (in 9 steps) ****
    Final optimized geometry and variables:
    Molecular point group: c1

    Geometry (in Angstrom), charge = 0, multiplicity = 1:

    H           -2.390725921902    -1.288451696890    -0.403424593000
    C           -1.388759065836    -1.286788142972     0.011647145368
    C           -0.684509188123    -0.022317615566    -0.450034778414
    H           -0.875102817052    -2.175738721342    -0.327324164913
    H           -1.462183549707    -1.325469669871     1.090753896295
    C           -1.363264720167     1.261473284953     0.018365683417
    N            0.746978013856     0.002859639881     0.017036876215
    H           -0.585812249660    -0.017763659635    -1.527436770134
    H           -2.378424781845     1.280266881675    -0.360422032173
    H           -0.840346808602     2.134736074483    -0.343250231292
    H           -1.405316175911     1.298817242953     1.101700337939
    O            1.147534342446    -0.895278066989     0.688783414424
    O            1.402906534483     0.934408124787    -0.340102658412

  Mulliken Charges: (a.u.)
   Center  Symbol    Alpha    Beta     Spin     Total
       1     H     0.41253  0.41253  0.00000  0.17493
       2     C     3.24154  3.24154  0.00000 -0.48307
       3     C     3.02612  3.02612  0.00000 -0.05223
       4     H     0.39967  0.39967  0.00000  0.20067
       5     H     0.40345  0.40345  0.00000  0.19310
       6     C     3.24937  3.24937  0.00000 -0.49875
       7     N     3.21743  3.21743  0.00000  0.56514
       8     H     0.38611  0.38611  0.00000  0.22778
       9     H     0.40807  0.40807  0.00000  0.18387
      10     H     0.39105  0.39105  0.00000  0.21791
      11     H     0.40687  0.40687  0.00000  0.18627
      12     O     4.22745  4.22745  0.00000 -0.45490
      13     O     4.23035  4.23035  0.00000 -0.46071

   Total alpha = 24.00000, Total beta = 24.00000, Total charge =  0.00000
