  ==> Input File <==

--------------------------------------------------------------------------
set {
	reference rhf
	basis 6-31G*
}

set_num_threads( 4 )
memory 2 gb

molecule MOL {
0 1

O	 -2.821601	 1.309235	 -0.001213
C	 -2.668563	 0.129746	 -0.000350
C	 -3.801572	 -0.864014	 -0.000442
O	 -1.481751	 -0.454642	 0.000584
H	 -4.417280	 -0.689587	 -0.874708
H	 -3.443784	 -1.883046	 -0.000565
H	 -4.417179	 -0.689832	 0.873954
C	 -0.334255	 0.388708	 0.000906
C	 0.891947	 -0.504646	 0.000751
H	 -0.365390	 1.025305	 -0.873475
H	 -0.365484	 1.024911	 0.875569
C	 2.191998	 0.301789	 0.000897
H	 0.855148	 -1.151283	 -0.871571
H	 0.855132	 -1.151660	 0.872805
C	 2.868054	 0.342670	 -1.370819
H	 1.988856	 1.319357	 0.330097
H	 2.882824	 -0.121897	 0.727762
C	 4.165844	 1.149272	 -1.370926
H	 2.179215	 0.766124	 -2.098324
H	 3.073865	 -0.673282	 -1.700292
H	 3.987155	 2.179901	 -1.077860
H	 4.621094	 1.159982	 -2.356252
H	 4.888634	 0.729497	 -0.677114

	symmetry c1
}
set optking {
	frozen_dihedral = ("
		16 12 9 13
	")
}

ee = optimize('scf')
oeprop('DIPOLE', 'QUADRUPOLE', 'MULLIKEN_CHARGES')
f=open( 'psi4out.xyz', 'w' )
f.write( "23  " )
f.write( str(ee) + "\n" )
f.write( MOL.save_string_xyz() )
f.close()
--------------------------------------------------------------------------

    Molecular point group: c1
  Charge       = 0
  Multiplicity = 1
  Basis Set: 6-31G*
  Basis Set:
  @DF-RHF Final Energy:  -422.97511286713478
    Total Energy =                       -422.9751128671349534
    Molecular point group: c1
  Basis Set: 6-31G*
  Basis Set:
  Basis Set: 6-31G*
  Basis Set:
  @DF-RHF Final Energy:  -422.97536242163295
    Total Energy =                       -422.9753624216323260
  Basis Set: 6-31G*
  Basis Set:
  Basis Set: 6-31G*
  Basis Set:
  @DF-RHF Final Energy:  -422.97542901140315
    Total Energy =                       -422.9754290114029800
  Basis Set: 6-31G*
  Basis Set:
  Basis Set: 6-31G*
  Basis Set:
  @DF-RHF Final Energy:  -422.97524520505817
    Total Energy =                       -422.9752452050583997
  Basis Set: 6-31G*
  Basis Set:
  Basis Set: 6-31G*
  Basis Set:
  @DF-RHF Final Energy:  -422.97544088825060
    Total Energy =                       -422.9754408882508869
  Basis Set: 6-31G*
  Basis Set:
  Basis Set: 6-31G*
  Basis Set:
  @DF-RHF Final Energy:  -422.97543887590479
    Total Energy =                       -422.9754388759049561
  Basis Set: 6-31G*
  Basis Set:
  Basis Set: 6-31G*
  Basis Set:
  @DF-RHF Final Energy:  -422.97544213699535
    Total Energy =                       -422.9754421369950705
  Basis Set: 6-31G*
  Basis Set:
  Charge       = 0
  Multiplicity = 1
  Basis Set: 6-31G*
  Basis Set:

    Orbital Energies (a.u.)
    -----------------------

    Doubly Occupied:

       1A    -20.602980     2A    -20.540639     3A    -11.374206
       4A    -11.281689     5A    -11.232431     6A    -11.224314
       7A    -11.223756     8A    -11.221764     9A    -11.212705
      10A     -1.468071    11A     -1.360855    12A     -1.093189
      13A     -1.041315    14A     -1.002687    15A     -0.930120
      16A     -0.844959    17A     -0.799126    18A     -0.777950
      19A     -0.688571    20A     -0.684877    21A     -0.672215
      22A     -0.634796    23A     -0.615097    24A     -0.586177
      25A     -0.578783    26A     -0.571650    27A     -0.560717
      28A     -0.531712    29A     -0.526117    30A     -0.503136
      31A     -0.496423    32A     -0.478155    33A     -0.468653
      34A     -0.462623    35A     -0.449647    36A     -0.435606

  @DF-RHF Final Energy:  -422.97544216392225

   => Energetics <=

    Nuclear Repulsion Energy =            453.4466779663738407
    One-Electron Energy =               -1474.4888155018697944
    Two-Electron Energy =                 598.0666953715734735
    DFT Exchange-Correlation Energy =       0.0000000000000000
    Empirical Dispersion Energy =           0.0000000000000000
    PCM Polarization Energy =               0.0000000000000000
    EFP Energy =                            0.0000000000000000
    Total Energy =                       -422.9754421639224802
    Molecular point group: c1
  Basis Set: 6-31G*
  Basis Set:

  -Total Gradient:
     Atom            X                  Y                   Z
    ------   -----------------  -----------------  -----------------
       1       -0.000003256019     0.000002239806     0.000005689376
       2        0.000005925257     0.000001737830     0.000002771863
       3        0.000001453107     0.000000134929     0.000003431811
       4        0.000001000459    -0.000004418958     0.000005624589
       5        0.000000551446    -0.000002276415    -0.000003139100
       6        0.000000226173    -0.000000100747    -0.000000713606
       7        0.000000802650     0.000002980523    -0.000002905842
       8        0.000001328749     0.000007546273    -0.000027136973
       9        0.001351441099    -0.002142353256     0.001071976447
      10        0.000001619877    -0.000004037597     0.000005390023
      11       -0.000007260848     0.000000081215     0.000007428066
      12        0.000307177761    -0.000377934437     0.002657577718
      13       -0.001177984531     0.001853041606    -0.001319369444
      14        0.000002651277    -0.000000489167     0.000001204611
      15        0.000000329507    -0.000002104779    -0.000000160642
      16       -0.000486786476     0.000668327225    -0.002407136545
      17       -0.000001747165    -0.000003863478     0.000001081648
      18        0.000000043678     0.000000409319    -0.000002556232
      19        0.000000796906    -0.000000041278     0.000001531061
      20        0.000002394144     0.000000547874    -0.000000359059
      21       -0.000000256387     0.000000842411    -0.000000755449
      22        0.000000994244     0.000000058520     0.000000158393
      23       -0.000001444900    -0.000000327417     0.000000367285

  **** Optimization is complete! (in 8 steps) ****
    Final optimized geometry and variables:
    Molecular point group: c1

    Geometry (in Angstrom), charge = 0, multiplicity = 1:

    O           -2.669762676047     1.116191282873     0.302374811136
    C           -2.529364356547    -0.064811210570     0.289476440790
    C           -3.672620576713    -1.045842694755     0.247984282138
    O           -1.349111245202    -0.662141394661     0.310052158295
    H           -4.266284025137    -0.851157591673    -0.637176511145
    H           -3.325821337716    -2.068638431217     0.240086825685
    H           -4.306174632008    -0.878395294869     1.110805500573
    C           -0.193098194998     0.167727809623     0.351119009502
    C            1.025431101900    -0.738775108757     0.367065130296
    H           -0.195794279823     0.818622978063    -0.513615726680
    H           -0.237769766766     0.790434309116     1.234723233122
    C            2.337664079237     0.069636715829     0.327277017382
    H            0.961983143502    -1.394838860201    -0.495692275433
    H            0.978772320247    -1.366718168938     1.250245850816
    C            2.974596152326     0.119418586911    -1.065183077723
    H            2.149538429903     1.092042916164     0.650567153408
    H            3.053120847258    -0.346917698220     1.029774686424
    C            4.240893157250     0.972730177348    -1.110508397131
    H            2.251899875326     0.507389892049    -1.780317553200
    H            3.207949448637    -0.892866617225    -1.387086781315
    H            4.031314489283     2.001769146400    -0.832588257688
    H            4.673715491923     0.980797743554    -2.105894779017
    H            4.993761529795     0.592921915234    -0.425485784184

  Mulliken Charges: (a.u.)
   Center  Symbol    Alpha    Beta     Spin     Total
       1     O     4.28386  4.28386  0.00000 -0.56772
       2     C     2.61551  2.61551  0.00000  0.76898
       3     C     3.28778  3.28778  0.00000 -0.57555
       4     O     4.31236  4.31236  0.00000 -0.62472
       5     H     0.39750  0.39750  0.00000  0.20500
       6     H     0.39986  0.39986  0.00000  0.20028
       7     H     0.39748  0.39748  0.00000  0.20504
       8     C     2.99955  2.99955  0.00000  0.00090
       9     C     3.16604  3.16604  0.00000 -0.33209
      10     H     0.41077  0.41077  0.00000  0.17846
      11     H     0.41009  0.41009  0.00000  0.17982
      12     C     3.16436  3.16436  0.00000 -0.32873
      13     H     0.41192  0.41192  0.00000  0.17616
      14     H     0.41152  0.41152  0.00000  0.17696
      15     C     3.15306  3.15306  0.00000 -0.30612
      16     H     0.41965  0.41965  0.00000  0.16070
      17     H     0.41608  0.41608  0.00000  0.16783
      18     C     3.24035  3.24035  0.00000 -0.48070
      19     H     0.42214  0.42214  0.00000  0.15572
      20     H     0.42071  0.42071  0.00000  0.15858
      21     H     0.42052  0.42052  0.00000  0.15896
      22     H     0.41780  0.41780  0.00000  0.16439
      23     H     0.42108  0.42108  0.00000  0.15785

   Total alpha = 36.00000, Total beta = 36.00000, Total charge =  0.00000
