  ==> Input File <==

--------------------------------------------------------------------------
set {
	reference rhf
	basis cc-pvtz
}

set_num_threads( 4 )
memory 2 gb

molecule MOL {
0 1

H	 -1.740598	 2.279597	 0.834241
C	 -0.722514	 1.914144	 0.864559
C	 -0.600949	 0.658697	 -0.000002
H	 -0.465003	 1.701211	 1.893361
H	 -0.066678	 2.695713	 0.505232
C	 0.763408	 0.112229	 -0.000006
H	 -1.266302	 -0.117782	 0.354002
H	 -0.870221	 0.871117	 -1.026308
N	 1.806008	 -0.317179	 0.000007

	symmetry c1
}
set optking {
	frozen_dihedral = ("
		7 3 6 9
	")
}

ee = optimize('scf')
oeprop('DIPOLE', 'QUADRUPOLE', 'MULLIKEN_CHARGES')
f=open( 'psi4out.xyz', 'w' )
f.write( "9  " )
f.write( str(ee) + "\n" )
f.write( MOL.save_string_xyz() )
f.close()
--------------------------------------------------------------------------

    Molecular point group: c1
  Charge       = 0
  Multiplicity = 1
  Basis Set: CC-PVTZ
  Basis Set:
  @DF-RHF Final Energy:  -171.02344433728544
    Total Energy =                       -171.0234443372853548
    Molecular point group: c1
  Basis Set: CC-PVTZ
  Basis Set:
  Basis Set: CC-PVTZ
  Basis Set:
  @DF-RHF Final Energy:  -170.70655771281878
    Total Energy =                       -170.7065577128186646
  Basis Set: CC-PVTZ
  Basis Set:
  Basis Set: CC-PVTZ
  Basis Set:
  @DF-RHF Final Energy:  -170.75718001802937
    Total Energy =                       -170.7571800180294019
  Basis Set: CC-PVTZ
  Basis Set:
  Basis Set: CC-PVTZ
  Basis Set:
  @DF-RHF Final Energy:  -170.99773482239601
    Total Energy =                       -170.9977348223960689
  Basis Set: CC-PVTZ
  Basis Set:
  @DF-RHF Final Energy:  -168.97662254506108
    Total Energy =                       -168.9766225450610193
  @DF-RHF Final Energy:  -170.98127849552759
    Total Energy =                       -170.9812784955275902
  @DF-RHF Final Energy:  -170.98353642188277
    Total Energy =                       -170.9835364218827181
  @DF-RHF Final Energy:  -171.02093525105448
    Total Energy =                       -171.0209352510545671
  @DF-RHF Final Energy:  -171.02190916030042
    Total Energy =                       -171.0219091603002539
  @DF-RHF Final Energy:  -171.02318991624276
    Total Energy =                       -171.0231899162428704
  @DF-RHF Final Energy:  -171.02336617284968
    Total Energy =                       -171.0233661728495917
  @DF-RHF Final Energy:  -171.02329142726626
    Total Energy =                       -171.0232914272664289
  @DF-RHF Final Energy:  -171.02337298134233
    Total Energy =                       -171.0233729813423054
  @DF-RHF Final Energy:  -171.02325388636564
    Total Energy =                       -171.0232538863656657
  @DF-RHF Final Energy:  -171.02335666883820
    Total Energy =                       -171.0233566688382894
  @DF-RHF Final Energy:  -171.02334710805459
    Total Energy =                       -171.0233471080545655
  @DF-RHF Final Energy:  -171.02336470641114
    Total Energy =                       -171.0233647064111437
  @DF-RHF Final Energy:  -171.02339577155374
    Total Energy =                       -171.0233957715536519
  @DF-RHF Final Energy:  -171.02329174933038
    Total Energy =                       -171.0232917493303830
  @DF-RHF Final Energy:  -171.02323132923715
    Total Energy =                       -171.0232313292372623
  @DF-RHF Final Energy:  -171.02330938941742
    Total Energy =                       -171.0233093894174772
  @DF-RHF Final Energy:  -171.02328582079622
    Total Energy =                       -171.0232858207961613
  @DF-RHF Final Energy:  -171.02328878171747
    Total Energy =                       -171.0232887817174117
  @DF-RHF Final Energy:  -171.02317851486274
    Total Energy =                       -171.0231785148627637
  @DF-RHF Final Energy:  -171.02317976645443
    Total Energy =                       -171.0231797664544615
  @DF-RHF Final Energy:  -171.02330939851291
    Total Energy =                       -171.0233093985128221
  @DF-RHF Final Energy:  -171.02339953781484
    Total Energy =                       -171.0233995378146687
  @DF-RHF Final Energy:  -171.02344988803011
    Total Energy =                       -171.0234498880301715
  @DF-RHF Final Energy:  -171.02344638073646
    Total Energy =                       -171.0234463807364875
  @DF-RHF Final Energy:  -171.02342222477932
    Total Energy =                       -171.0234222247792673
  @DF-RHF Final Energy:  -171.02341542456568
    Total Energy =                       -171.0234154245656839
  @DF-RHF Final Energy:  -171.02324054859463
    Total Energy =                       -171.0232405485947140
  @DF-RHF Final Energy:  -171.02327020632640
    Total Energy =                       -171.0232702063263446
  @DF-RHF Final Energy:  -171.02335463481759
    Total Energy =                       -171.0233546348175935
  @DF-RHF Final Energy:  -171.02345168070394
    Total Energy =                       -171.0234516807039427
  @DF-RHF Final Energy:  -171.02341601715875
    Total Energy =                       -171.0234160171587234
  Basis Set: CC-PVTZ
  Basis Set:
  @DF-RHF Final Energy:  -171.02338567362466
    Total Energy =                       -171.0233856736245457
  Basis Set: CC-PVTZ
  Basis Set:
  Basis Set: CC-PVTZ
  Basis Set:
  @DF-RHF Final Energy:  -171.02340858814665
    Total Energy =                       -171.0234085881466797
  Basis Set: CC-PVTZ
  Basis Set:
  Basis Set: CC-PVTZ
  Basis Set:
  @DF-RHF Final Energy:  -171.02343525808155
    Total Energy =                       -171.0234352580815482
  Basis Set: CC-PVTZ
  Basis Set:
  Charge       = 0
  Multiplicity = 1
  Basis Set: CC-PVTZ
  Basis Set:

    Orbital Energies (a.u.)
    -----------------------

    Doubly Occupied:

       1A    -15.556653     2A    -11.282530     3A    -11.261250
       4A    -11.244507     5A     -1.228880     6A     -1.084494
       7A     -0.913564     8A     -0.700404     9A     -0.661311
      10A     -0.589921    11A     -0.563268    12A     -0.545440
      13A     -0.540126    14A     -0.463858    15A     -0.463656

  @DF-RHF Final Energy:  -171.02342482554280

   => Energetics <=

    Nuclear Repulsion Energy =            103.6985901384267095
    One-Electron Energy =                -435.2443059944133665
    Two-Electron Energy =                 160.5222910304437960
    DFT Exchange-Correlation Energy =       0.0000000000000000
    Empirical Dispersion Energy =           0.0000000000000000
    PCM Polarization Energy =               0.0000000000000000
    EFP Energy =                            0.0000000000000000
    Total Energy =                       -171.0234248255428611
    Molecular point group: c1
  Basis Set: CC-PVTZ
  Basis Set:

  -Total Gradient:
     Atom            X                  Y                   Z
    ------   -----------------  -----------------  -----------------
       1        0.000030217813    -0.000212544290     0.000060462521
       2       -0.000032604309    -0.000142531361     0.000092701544
       3       -0.000630795294    -0.001065723705     0.000622175367
       4       -0.000138988499     0.000302908532    -0.000160172167
       5        0.000188413986    -0.000180754048     0.000073902849
       6       -0.000140842157     0.002728344413    -0.000570623413
       7       -0.000193583763     0.000345272312    -0.000118058285
       8        0.000300652372    -0.000193543568    -0.000090353520
       9        0.000617529848    -0.001581428285     0.000089965105

    Molecular point group: c1

    Geometry (in Angstrom), charge = 0, multiplicity = 1:

    H           -2.014392018512     1.630106485721     0.558668693117
    C           -0.996467745155     1.267259750590     0.612006949351
    C           -0.852799066215     0.015143972166    -0.252979462953
    H           -0.763490777455     1.053401269087     1.646200920874
    H           -0.333104634657     2.050533060065     0.270677255285
    C            0.514340532161    -0.523941691127    -0.234743367243
    H           -1.519727726290    -0.765961667191     0.086456338807
    H           -1.104986284735     0.229160136224    -1.283559650844
    N            1.556779520871    -0.952050042077    -0.198517614631

  Mulliken Charges: (a.u.)
   Center  Symbol    Alpha    Beta     Spin     Total
       1     H     0.44608  0.44608  0.00000  0.10783
       2     C     3.13576  3.13576  0.00000 -0.27151
       3     C     3.07940  3.07940  0.00000 -0.15880
       4     H     0.44480  0.44480  0.00000  0.11041
       5     H     0.44496  0.44496  0.00000  0.11009
       6     C     3.04242  3.04242  0.00000 -0.08483
       7     H     0.43168  0.43168  0.00000  0.13665
       8     H     0.43219  0.43219  0.00000  0.13561
       9     N     3.54272  3.54272  0.00000 -0.08543

   Total alpha = 15.00000, Total beta = 15.00000, Total charge = -0.00000
