  ==> Input File <==

--------------------------------------------------------------------------
set {
	reference rhf
	basis cc-pvtz
}

set_num_threads( 4 )
memory 2 gb

molecule MOL {
0 1

H	 1.170731	 -1.007176	 0.866486
O	 1.328752	 -0.609573	 0.028993
C	 0.706474	 0.636793	 -0.025501
C	 -0.793473	 0.591216	 0.050087
H	 1.002626	 1.086595	 -0.965859
H	 1.078275	 1.290614	 0.761253
C	 -1.534243	 -0.493009	 -0.013340
H	 -1.266611	 1.552628	 0.164437
H	 -1.101195	 -1.466332	 -0.144046
H	 -2.604242	 -0.437780	 0.050785

	symmetry c1
}
set optking {
	frozen_dihedral = ("
		5 3 4 7
	")
}

ee = optimize('scf')
oeprop('DIPOLE', 'QUADRUPOLE', 'MULLIKEN_CHARGES')
f=open( 'psi4out.xyz', 'w' )
f.write( "10  " )
f.write( str(ee) + "\n" )
f.write( MOL.save_string_xyz() )
f.close()
--------------------------------------------------------------------------

    Molecular point group: c1
  Charge       = 0
  Multiplicity = 1
  Basis Set: CC-PVTZ
  Basis Set:
  @DF-RHF Final Energy:  -191.99879885890576
    Total Energy =                       -191.9987988589058432
    Molecular point group: c1
  Basis Set: CC-PVTZ
  Basis Set:
  Basis Set: CC-PVTZ
  Basis Set:
  @DF-RHF Final Energy:  -191.99881153587069
    Total Energy =                       -191.9988115358706580
  Basis Set: CC-PVTZ
  Basis Set:
  Basis Set: CC-PVTZ
  Basis Set:
  @DF-RHF Final Energy:  -191.99881635705594
    Total Energy =                       -191.9988163570560005
  Basis Set: CC-PVTZ
  Basis Set:
  Charge       = 0
  Multiplicity = 1
  Basis Set: CC-PVTZ
  Basis Set:

    Orbital Energies (a.u.)
    -----------------------

    Doubly Occupied:

       1A    -20.554229     2A    -11.278063     3A    -11.230435
       4A    -11.216852     5A     -1.374569     6A     -1.062268
       7A     -0.932036     8A     -0.772173     9A     -0.691500
      10A     -0.665496    11A     -0.620359    12A     -0.574573
      13A     -0.541888    14A     -0.495383    15A     -0.452717
      16A     -0.369270

  @DF-RHF Final Energy:  -191.99881640390527

   => Energetics <=

    Nuclear Repulsion Energy =            119.5421525561091443
    One-Electron Energy =                -497.4183180651174894
    Two-Electron Energy =                 185.8773491051032067
    DFT Exchange-Correlation Energy =       0.0000000000000000
    Empirical Dispersion Energy =           0.0000000000000000
    PCM Polarization Energy =               0.0000000000000000
    EFP Energy =                            0.0000000000000000
    Total Energy =                       -191.9988164039051242
    Molecular point group: c1
  Basis Set: CC-PVTZ
  Basis Set:

  -Total Gradient:
     Atom            X                  Y                   Z
    ------   -----------------  -----------------  -----------------
       1        0.000002546368     0.000008043008    -0.000004688593
       2       -0.000008346431     0.000003990370    -0.000000052800
       3       -0.000007089565     0.000725413950     0.000026915389
       4        0.000045115749    -0.000214355037     0.000860117417
       5        0.000005809915    -0.000574528857    -0.000273848537
       6       -0.000006581614    -0.000002697102    -0.000001742963
       7       -0.000033640773     0.000046486163    -0.000576710689
       8       -0.000000776272     0.000000675661    -0.000004891771
       9        0.000002245008     0.000003712844    -0.000010208266
      10        0.000000717617     0.000003259000    -0.000014889187

  **** Optimization is complete! (in 4 steps) ****
    Final optimized geometry and variables:
    Molecular point group: c1

    Geometry (in Angstrom), charge = 0, multiplicity = 1:

    H            1.154627850643    -1.019029366518     0.830745801641
    O            1.326350345030    -0.610856008644     0.001019376436
    C            0.705423916771     0.637062835099    -0.046436096876
    C           -0.795017351732     0.590124191052     0.029278301823
    H            1.000548573538     1.086387552451    -0.987342155673
    H            1.079638066056     1.286858785699     0.742093647598
    C           -1.532581964273    -0.496339881065    -0.033430621949
    H           -1.271536500876     1.551231490310     0.130760586774
    H           -1.095303948052    -1.469187327459    -0.152984213300
    H           -2.603151952083    -0.443604740537     0.022895703806

  Mulliken Charges: (a.u.)
   Center  Symbol    Alpha    Beta     Spin     Total
       1     H     0.39118  0.39118  0.00000  0.21764
       2     O     4.19954  4.19954  0.00000 -0.39907
       3     C     2.95062  2.95062  0.00000  0.09876
       4     C     3.08657  3.08657  0.00000 -0.17313
       5     H     0.45313  0.45313  0.00000  0.09374
       6     H     0.46786  0.46786  0.00000  0.06428
       7     C     3.17623  3.17623  0.00000 -0.35246
       8     H     0.42330  0.42330  0.00000  0.15339
       9     H     0.42351  0.42351  0.00000  0.15297
      10     H     0.42805  0.42805  0.00000  0.14389

   Total alpha = 16.00000, Total beta = 16.00000, Total charge = -0.00000
