                              Psi4 1.0.54 Driver

  ==> Input File <==

--------------------------------------------------------------------------
set {
	reference rhf
	basis cc-pvtz
}

set_num_threads( 4 )
memory 2 gb

molecule MOL {
0 1

H	 2.263845	 1.694029	 -1.866059
C	 1.974333	 1.042102	 -1.048771
C	 0.464160	 0.847646	 -1.040621
H	 2.299630	 1.491315	 -0.118550
H	 2.507808	 0.107715	 -1.171483
N	 0.000297	 0.000045	 0.046090
H	 0.002272	 1.819723	 -0.936499
H	 0.134529	 0.458457	 -2.007992
C	 -1.359159	 0.315706	 0.454404
C	 0.179757	 -1.414710	 -0.238139
C	 -2.416729	 -0.286720	 -0.460525
H	 -1.478729	 1.390261	 0.442008
H	 -1.539692	 0.003361	 1.486761
C	 0.358219	 -2.261449	 1.014706
H	 1.063962	 -1.530996	 -0.849464
H	 -0.652047	 -1.802402	 -0.832876
H	 -2.285276	 0.073129	 -1.473515
H	 -2.371743	 -1.368476	 -0.483209
H	 -3.408658	 -0.007405	 -0.121593
H	 1.222973	 -1.926169	 1.573898
H	 -0.502189	 -2.210629	 1.670369
H	 0.503918	 -3.302304	 0.745995

	symmetry c1
}
set optking {
	frozen_dihedral = ("
		3 6 9 11
	")
}

ee,wfn = optimize('scf', return_wfn=True)
oeprop( wfn, 'DIPOLE', 'QUADRUPOLE', 'MULLIKEN_CHARGES')
f=open( 'psi4out.xyz', 'w' )
f.write( "22  " )
f.write( str(ee) + "\n" )
f.write( MOL.save_string_xyz() )
f.close()
--------------------------------------------------------------------------

    Molecular point group: c1
  Charge       = 0
  Multiplicity = 1
  Basis Set: CC-PVTZ
  Basis Set:
  @DF-RHF Final Energy:  -290.46780524562666
    Total Energy =                       -290.4678052456266641
    Molecular point group: c1
  Basis Set: CC-PVTZ
  Basis Set:
  Basis Set: CC-PVTZ
  Basis Set:
  @DF-RHF Final Energy:  -289.41900434204115
    Total Energy =                       -289.4190043420412621
  Basis Set: CC-PVTZ
  Basis Set:
  Basis Set: CC-PVTZ
  Basis Set:
  @DF-RHF Final Energy:  -289.62840164659588
    Total Energy =                       -289.6284016465962168
  Basis Set: CC-PVTZ
  Basis Set:
  Basis Set: CC-PVTZ
  Basis Set:
  @DF-RHF Final Energy:  -289.13729049224526
    Total Energy =                       -289.1372904922454268
  Basis Set: CC-PVTZ
  Basis Set:
  @DF-RHF Final Energy:  -289.40316986541819
    Total Energy =                       -289.4031698654183060
  @DF-RHF Final Energy:  -288.68014631581815
    Total Energy =                       -288.6801463158180923
  @DF-RHF Final Energy:  -288.93924066577586
    Total Energy =                       -288.9392406657759125
  @DF-RHF Final Energy:  -289.14333405755411
    Total Energy =                       -289.1433340575540569
  @DF-RHF Final Energy:  -289.47439423640458
    Total Energy =                       -289.4743942364046916
  @DF-RHF Final Energy:  -289.78271575414863
    Total Energy =                       -289.7827157541486258
  @DF-RHF Final Energy:  -289.96733925992856
    Total Energy =                       -289.9673392599283943
  @DF-RHF Final Energy:  -290.05571236799972
    Total Energy =                       -290.0557123679998313
  @DF-RHF Final Energy:  -290.12906555582833
    Total Energy =                       -290.1290655558284470
  @DF-RHF Final Energy:  -290.20087652774185
    Total Energy =                       -290.2008765277416842
  @DF-RHF Final Energy:  -290.26105582797356
    Total Energy =                       -290.2610558279735642
  @DF-RHF Final Energy:  -290.30479198964707
    Total Energy =                       -290.3047919896473559
  @DF-RHF Final Energy:  -290.26022285344283
    Total Energy =                       -290.2602228534429969
  @DF-RHF Final Energy:  -290.33355096052992
    Total Energy =                       -290.3335509605298057
  @DF-RHF Final Energy:  -290.38599567718660
    Total Energy =                       -290.3859956771867701
  @DF-RHF Final Energy:  -290.41068412025601
    Total Energy =                       -290.4106841202558371
  @DF-RHF Final Energy:  -290.47156082037145
    Total Energy =                       -290.4715608203711099
  @DF-RHF Final Energy:  -290.47192051069834
    Total Energy =                       -290.4719205106981690
  @DF-RHF Final Energy:  -290.47214609042101
    Total Energy =                       -290.4721460904210062
  @DF-RHF Final Energy:  -290.47226241218777
    Total Energy =                       -290.4722624121877743
  @DF-RHF Final Energy:  -290.47233623793392
    Total Energy =                       -290.4723362379340870
  @DF-RHF Final Energy:  -290.47247161410519
    Total Energy =                       -290.4724716141051886
  @DF-RHF Final Energy:  -290.47177405312993
    Total Energy =                       -290.4717740531297068
  @DF-RHF Final Energy:  -290.47271186586568
    Total Energy =                       -290.4727118658657901
  @DF-RHF Final Energy:  -290.47247255192269
    Total Energy =                       -290.4724725519229196
  @DF-RHF Final Energy:  -290.47315475336114
    Total Energy =                       -290.4731547533610865
  @DF-RHF Final Energy:  -290.47343003581108
    Total Energy =                       -290.4734300358111341
  @DF-RHF Final Energy:  -290.47388478755903
    Total Energy =                       -290.4738847875593137
  @DF-RHF Final Energy:  -290.47397053226575
    Total Energy =                       -290.4739705322660370
  @DF-RHF Final Energy:  -290.47424609536358
    Total Energy =                       -290.4742460953636964
  @DF-RHF Final Energy:  -290.47427807383497
    Total Energy =                       -290.4742780738349097
  @DF-RHF Final Energy:  -290.47429140360805
    Total Energy =                       -290.4742914036079355
  Basis Set: CC-PVTZ
  Basis Set:
  @DF-RHF Final Energy:  -290.47429612783009
    Total Energy =                       -290.4742961278298594
  Basis Set: CC-PVTZ
  Basis Set:
  Basis Set: CC-PVTZ
  Basis Set:
  @DF-RHF Final Energy:  -290.47429808817645
    Total Energy =                       -290.4742980881768517
  Basis Set: CC-PVTZ
  Basis Set:
  Basis Set: CC-PVTZ
  Basis Set:
  @DF-RHF Final Energy:  -290.47429986574542
    Total Energy =                       -290.4742998657453086
  Basis Set: CC-PVTZ
  Basis Set:
  Charge       = 0
  Multiplicity = 1
  Basis Set: CC-PVTZ
  Basis Set:

    Orbital Energies (a.u.)
    -----------------------

    Doubly Occupied:

       1A    -15.529377     2A    -11.238385     3A    -11.237820
       4A    -11.237510     5A    -11.204746     6A    -11.204719
       7A    -11.202237     8A     -1.222932     9A     -1.025954
      10A     -1.020255    11A     -0.957080    12A     -0.864012
      13A     -0.841762    14A     -0.758462    15A     -0.660235
      16A     -0.644842    17A     -0.618206    18A     -0.596545
      19A     -0.569827    20A     -0.550646    21A     -0.544173
      22A     -0.524953    23A     -0.516021    24A     -0.504452
      25A     -0.492113    26A     -0.481994    27A     -0.470157
      28A     -0.460301    29A     -0.334352

  @DF-RHF Final Energy:  -290.47430009578704

   => Energetics <=

    Nuclear Repulsion Energy =            339.2631559747570691
    One-Electron Energy =               -1064.4467806779484818
    Two-Electron Energy =                 434.7093246074043691
    DFT Exchange-Correlation Energy =       0.0000000000000000
    Empirical Dispersion Energy =           0.0000000000000000
    PCM Polarization Energy =               0.0000000000000000
    EFP Energy =                            0.0000000000000000
    Total Energy =                       -290.4743000957870436
    Molecular point group: c1
  Basis Set: CC-PVTZ
  Basis Set:

  -Total Gradient:
     Atom            X                  Y                   Z
    ------   -----------------  -----------------  -----------------
       1       -0.000013370746     0.000010260256     0.000006409527
       2       -0.000017777882     0.000015545888    -0.000005836854
       3       -0.000475985200    -0.002296832121    -0.001359684963
       4        0.000010237598     0.000003629385     0.000013374047
       5        0.000005821589    -0.000002616152     0.000001362514
       6       -0.000454684805     0.003583662965     0.002183823761
       7        0.000000579415     0.000015672518    -0.000003543960
       8       -0.000018730889    -0.000008778558    -0.000003307384
       9        0.003412707848    -0.002103886895    -0.001289161868
      10        0.000001256815     0.000006246978    -0.000029847420
      11       -0.002422220955     0.000777415108     0.000477766872
      12       -0.000013760114     0.000003725871     0.000019925892
      13       -0.000019752631     0.000001750689    -0.000008837009
      14       -0.000010471497     0.000007344629     0.000007101923
      15        0.000001189945    -0.000000348798    -0.000010679217
      16        0.000007524783    -0.000000067668     0.000012026778
      17        0.000021088333     0.000010095169    -0.000002714259
      18        0.000001110941    -0.000005628870    -0.000003623045
      19       -0.000007065712    -0.000002988790    -0.000001120141
      20       -0.000008679772    -0.000006401999    -0.000005571267
      21       -0.000004205591     0.000002508578    -0.000005155100
      22        0.000005188524    -0.000010308185     0.000007291180

  **** Optimization is complete! (in 44 steps) ****
    Final optimized geometry and variables:
    Molecular point group: c1

    Geometry (in Angstrom), charge = 0, multiplicity = 1:

    H            2.214137645061    -0.112329852949    -2.773584224786
    C            1.217564692713    -0.158447042775    -2.347062725060
    C            1.297373208531    -0.138765648802    -0.825044751863
    H            0.739224063238    -1.068977505939    -2.686397461349
    H            0.656925379685     0.680465195136    -2.739782654336
    N           -0.000205250571    -0.251978863296    -0.183515793278
    H            1.903868547699    -0.978088580073    -0.510172246756
    H            1.831823394466     0.759301474667    -0.504583765304
    C           -0.000391987955    -1.010782161332     1.054598355537
    C           -0.749398436622     0.987941020728    -0.168765871036
    C            0.475487462850    -0.284529719518     2.315720015991
    H            0.611113057418    -1.889588976186     0.897516815186
    H           -1.004406481474    -1.378634371305     1.231462046913
    C           -2.233751807141     0.803741458653     0.118078811867
    H           -0.653320762230     1.439925543497    -1.146419334470
    H           -0.330885013900     1.709470763329     0.537123037747
    H            1.479415683106     0.109361096310     2.198149420714
    H           -0.176253341886     0.538612041660     2.580666154675
    H            0.486782446527    -0.974496118659     3.152587987558
    H           -2.667151665390     0.087244037003    -0.569324651324
    H           -2.419823188122     0.458167080909     1.127312186728
    H           -2.750554218870     1.749311680343    -0.001261634922

  Mulliken Charges: (a.u.)
   Center  Symbol    Alpha    Beta     Spin     Total
       1     H     0.45380  0.45380  0.00000  0.09239
       2     C     3.13845  3.13845  0.00000 -0.27690
       3     C     3.04086  3.04086  0.00000 -0.08172
       4     H     0.45267  0.45267  0.00000  0.09466
       5     H     0.45634  0.45634  0.00000  0.08733
       6     N     3.61362  3.61362  0.00000 -0.22723
       7     H     0.45308  0.45308  0.00000  0.09384
       8     H     0.46544  0.46544  0.00000  0.06911
       9     C     3.06226  3.06226  0.00000 -0.12452
      10     C     3.04670  3.04670  0.00000 -0.09340
      11     C     3.15170  3.15170  0.00000 -0.30340
      12     H     0.44767  0.44767  0.00000  0.10465
      13     H     0.44921  0.44921  0.00000  0.10158
      14     C     3.15155  3.15155  0.00000 -0.30310
      15     H     0.44721  0.44721  0.00000  0.10558
      16     H     0.46366  0.46366  0.00000  0.07268
      17     H     0.45205  0.45205  0.00000  0.09590
      18     H     0.45351  0.45351  0.00000  0.09298
      19     H     0.44768  0.44768  0.00000  0.10464
      20     H     0.44874  0.44874  0.00000  0.10252
      21     H     0.45441  0.45441  0.00000  0.09118
      22     H     0.44938  0.44938  0.00000  0.10125

   Total alpha = 29.00000, Total beta = 29.00000, Total charge = -0.00000

*** Psi4 exiting successfully. Buy a developer a beer!
