  ==> Input File <==

--------------------------------------------------------------------------
set {
	reference rhf
	basis 6-31G*
}

set_num_threads( 4 )
memory 2 gb

molecule MOL {
0 1

H	 3.893188	 0.355400	 -0.101367
N	 3.092854	 -0.246221	 -0.068770
C	 1.865559	 0.531981	 0.018834
H	 3.199514	 -0.826043	 0.741946
C	 0.645745	 -0.382037	 -0.029944
H	 1.841966	 1.207024	 -0.831236
H	 1.815756	 1.155410	 0.915079
C	 -0.679275	 0.379305	 0.025956
H	 0.698998	 -0.976915	 -0.937203
H	 0.693479	 -1.083846	 0.802235
C	 -1.253244	 0.692392	 -1.357124
H	 -0.537617	 1.310312	 0.572773
H	 -1.407962	 -0.198389	 0.592640
C	 -2.575192	 1.456782	 -1.296521
H	 -0.527470	 1.270643	 -1.924654
H	 -1.398333	 -0.236304	 -1.904964
H	 -2.455401	 2.407081	 -0.783785
H	 -2.956111	 1.664157	 -2.291760
H	 -3.332919	 0.888519	 -0.764244

	symmetry c1
}
set optking {
	frozen_dihedral = ("
		12 8 5 9
	")
}

ee = optimize('scf')
oeprop('DIPOLE', 'QUADRUPOLE', 'MULLIKEN_CHARGES')
f=open( 'psi4out.xyz', 'w' )
f.write( "19  " )
f.write( str(ee) + "\n" )
f.write( MOL.save_string_xyz() )
f.close()
--------------------------------------------------------------------------

    Molecular point group: c1
  Charge       = 0
  Multiplicity = 1
  Basis Set: 6-31G*
  Basis Set:
  @DF-RHF Final Energy:  -251.34821603745732
    Total Energy =                       -251.3482160374571777
    Molecular point group: c1
  Basis Set: 6-31G*
  Basis Set:
  Basis Set: 6-31G*
  Basis Set:
  @DF-RHF Final Energy:  -251.34841509809328
    Total Energy =                       -251.3484150980934828
  Basis Set: 6-31G*
  Basis Set:
  Basis Set: 6-31G*
  Basis Set:
  @DF-RHF Final Energy:  -251.34849115092831
    Total Energy =                       -251.3484911509285666
  Basis Set: 6-31G*
  Basis Set:
  Charge       = 0
  Multiplicity = 1
  Basis Set: 6-31G*
  Basis Set:

    Orbital Energies (a.u.)
    -----------------------

    Doubly Occupied:

       1A    -15.532524     2A    -11.239822     3A    -11.213434
       4A    -11.212657     5A    -11.209455     6A    -11.207149
       7A     -1.176732     8A     -1.071681     9A     -0.996371
      10A     -0.899046    11A     -0.821445    12A     -0.783010
      13A     -0.660617    14A     -0.634735    15A     -0.623941
      16A     -0.588360    17A     -0.570150    18A     -0.548548
      19A     -0.525094    20A     -0.498695    21A     -0.487335
      22A     -0.464604    23A     -0.453643    24A     -0.448148
      25A     -0.381192

  @DF-RHF Final Energy:  -251.34849161338755

   => Energetics <=

    Nuclear Repulsion Energy =            248.0799683337149588
    One-Electron Energy =                -830.3601465656913660
    Two-Electron Energy =                 330.9316866185886852
    DFT Exchange-Correlation Energy =       0.0000000000000000
    Empirical Dispersion Energy =           0.0000000000000000
    PCM Polarization Energy =               0.0000000000000000
    EFP Energy =                            0.0000000000000000
    Total Energy =                       -251.3484916133876936
    Molecular point group: c1
  Basis Set: 6-31G*
  Basis Set:

  -Total Gradient:
     Atom            X                  Y                   Z
    ------   -----------------  -----------------  -----------------
       1        0.000020399158    -0.000010408041     0.000015347877
       2        0.000063930816     0.000013863994     0.000016126548
       3       -0.000032473662    -0.000036835630    -0.000053840182
       4        0.000012225300    -0.000000616180    -0.000000260225
       5       -0.001291051925    -0.002447141113     0.001096269863
       6        0.000012587368    -0.000006595774     0.000008422062
       7       -0.000017895125     0.000036212077    -0.000008990178
       8       -0.000599291084    -0.001083600528     0.002673939386
       9        0.001177046687     0.002194750119    -0.001351278473
      10        0.000004662701     0.000044196075    -0.000015508148
      11       -0.000027978487    -0.000098418267     0.000001013633
      12        0.000649184249     0.001327438705    -0.002323646090
      13        0.000013069553     0.000016900657    -0.000059025849
      14        0.000045831299     0.000080226460     0.000014634176
      15       -0.000017308598    -0.000024434508    -0.000019765377
      16       -0.000008275855    -0.000014654145     0.000003808192
      17       -0.000031086673     0.000003666442     0.000025732628
      18        0.000018881499     0.000019955439    -0.000001438107
      19        0.000007542781    -0.000014505780    -0.000021541734

  **** Optimization is complete! (in 4 steps) ****
    Final optimized geometry and variables:
    Molecular point group: c1

    Geometry (in Angstrom), charge = 0, multiplicity = 1:

    H            3.662210396874    -0.009128778281     0.299386685324
    N            2.872664934607    -0.624749213288     0.333641320576
    C            1.635326402164     0.128411176274     0.474892848744
    H            3.009236215337    -1.227175950609     1.123218217152
    C            0.429275226243    -0.808661994648     0.444071083013
    H            1.576872331893     0.823546786861    -0.357079264732
    H            1.599864230950     0.728932611085     1.387196976489
    C           -0.914877508022    -0.061367134155     0.481132056378
    H            0.504577615855    -1.404825118438    -0.460219324658
    H            0.500553478539    -1.495214204239     1.284757568718
    C           -1.467150313132     0.262202758381    -0.911154130141
    H           -0.796996047947     0.873290780818     1.027250653327
    H           -1.653150535058    -0.646043164736     1.023209164592
    C           -2.762273731565     1.071846258673    -0.864822007703
    H           -0.720927273180     0.810153202694    -1.482266750837
    H           -1.640272700594    -0.666281125397    -1.450379630998
    H           -2.613025117783     2.023740177984    -0.362682444507
    H           -3.132811995156     1.279894789962    -1.863881084098
    H           -3.540484008766     0.535619199382    -0.328699589664

  Mulliken Charges: (a.u.)
   Center  Symbol    Alpha    Beta     Spin     Total
       1     H     0.33248  0.33248  0.00000  0.33504
       2     N     3.92197  3.92197  0.00000 -0.84393
       3     C     3.06174  3.06174  0.00000 -0.12348
       4     H     0.33538  0.33538  0.00000  0.32924
       5     C     3.15521  3.15521  0.00000 -0.31041
       6     H     0.42065  0.42065  0.00000  0.15871
       7     H     0.43442  0.43442  0.00000  0.13116
       8     C     3.15797  3.15797  0.00000 -0.31594
       9     H     0.41130  0.41130  0.00000  0.17740
      10     H     0.42488  0.42488  0.00000  0.15023
      11     C     3.15235  3.15235  0.00000 -0.30469
      12     H     0.42415  0.42415  0.00000  0.15170
      13     H     0.42032  0.42032  0.00000  0.15936
      14     C     3.23956  3.23956  0.00000 -0.47912
      15     H     0.42243  0.42243  0.00000  0.15513
      16     H     0.42144  0.42144  0.00000  0.15711
      17     H     0.42241  0.42241  0.00000  0.15518
      18     H     0.41930  0.41930  0.00000  0.16140
      19     H     0.42204  0.42204  0.00000  0.15591

   Total alpha = 25.00000, Total beta = 25.00000, Total charge =  0.00000
