  ==> Input File <==

--------------------------------------------------------------------------
set {
	reference rhf
	basis cc-pvtz
}

set_num_threads( 4 )
memory 2 gb

molecule MOL {
0 1

H	 2.190573	 -0.629143	 -0.208718
O	 1.355408	 -0.529451	 0.208662
C	 0.700177	 0.619554	 -0.266242
C	 -0.713111	 0.588314	 0.266177
H	 0.678680	 0.627133	 -1.351786
H	 1.199747	 1.521489	 0.077736
O	 -1.421673	 -0.521378	 -0.196983
H	 -1.244794	 1.469161	 -0.069059
H	 -0.685100	 0.604721	 1.352683
H	 -1.587855	 -0.407877	 -1.116507

	symmetry c1
}
set optking {
	frozen_dihedral = ("
		10 7 4 3
	")
}

ee = optimize('scf')
oeprop('DIPOLE', 'QUADRUPOLE', 'MULLIKEN_CHARGES')
f=open( 'psi4out.xyz', 'w' )
f.write( "10  " )
f.write( str(ee) + "\n" )
f.write( MOL.save_string_xyz() )
f.close()
--------------------------------------------------------------------------

    Molecular point group: c1
  Charge       = 0
  Multiplicity = 1
  Basis Set: CC-PVTZ
  Basis Set:
  @DF-RHF Final Energy:  -229.02127759871547
    Total Energy =                       -229.0212775987154430
    Molecular point group: c1
  Basis Set: CC-PVTZ
  Basis Set:
  Basis Set: CC-PVTZ
  Basis Set:
  @DF-RHF Final Energy:  -229.02312009255141
    Total Energy =                       -229.0231200925513519
  Basis Set: CC-PVTZ
  Basis Set:
  Basis Set: CC-PVTZ
  Basis Set:
  @DF-RHF Final Energy:  -229.02334761938195
    Total Energy =                       -229.0233476193820934
  Basis Set: CC-PVTZ
  Basis Set:
  Basis Set: CC-PVTZ
  Basis Set:
  @DF-RHF Final Energy:  -229.02335658446270
    Total Energy =                       -229.0233565844627606
  Basis Set: CC-PVTZ
  Basis Set:
  Charge       = 0
  Multiplicity = 1
  Basis Set: CC-PVTZ
  Basis Set:

    Orbital Energies (a.u.)
    -----------------------

    Doubly Occupied:

       1A    -20.550201     2A    -20.546532     3A    -11.272934
       4A    -11.268593     5A     -1.378049     6A     -1.357890
       7A     -1.003422     8A     -0.845229     9A     -0.723426
      10A     -0.679546    11A     -0.657051    12A     -0.600380
      13A     -0.573640    14A     -0.539825    15A     -0.483509
      16A     -0.448110    17A     -0.439301

  @DF-RHF Final Energy:  -229.02335736939557

   => Energetics <=

    Nuclear Repulsion Energy =            133.3681432284812445
    One-Electron Energy =                -578.0477266274795056
    Two-Electron Energy =                 215.6562260296028626
    DFT Exchange-Correlation Energy =       0.0000000000000000
    Empirical Dispersion Energy =           0.0000000000000000
    PCM Polarization Energy =               0.0000000000000000
    EFP Energy =                            0.0000000000000000
    Total Energy =                       -229.0233573693953986
    Molecular point group: c1
  Basis Set: CC-PVTZ
  Basis Set:

  -Total Gradient:
     Atom            X                  Y                   Z
    ------   -----------------  -----------------  -----------------
       1       -0.000008772936    -0.000007774095    -0.000017143402
       2       -0.000005436086     0.000046104399     0.000037075456
       3        0.000042258997    -0.000185362333     0.000256903206
       4       -0.000263581134     0.000329747167    -0.000433296669
       5        0.000001221158    -0.000009427263     0.000012756202
       6        0.000030382430    -0.000018081681     0.000025374515
       7        0.000660870189    -0.000448804149    -0.000040798782
       8        0.000012451283    -0.000010585653    -0.000006886772
       9        0.000017546521    -0.000004792591     0.000020634918
      10       -0.000486940423     0.000308976199     0.000145381328

  **** Optimization is complete! (in 5 steps) ****
    Final optimized geometry and variables:
    Molecular point group: c1

    Geometry (in Angstrom), charge = 0, multiplicity = 1:

    H            2.271923948760    -0.573784605252    -0.116839619362
    O            1.411452928644    -0.527972775976     0.256574843244
    C            0.717221969265     0.568637604087    -0.260024134571
    C           -0.699863791221     0.561630720405     0.269368435607
    H            0.699108003824     0.540404562552    -1.348999904647
    H            1.189454559094     1.503329940028     0.037437684128
    O           -1.466537886377    -0.512202882145    -0.190055684033
    H           -1.168434936294     1.511202760854     0.019549476576
    H           -0.670826925234     0.478700518711     1.347059937680
    H           -1.653667248985    -0.409421951959    -1.105175894412

  Mulliken Charges: (a.u.)
   Center  Symbol    Alpha    Beta     Spin     Total
       1     H     0.39601  0.39601  0.00000  0.20798
       2     O     4.19089  4.19089  0.00000 -0.38178
       3     C     2.96308  2.96308  0.00000  0.07383
       4     C     2.96867  2.96867  0.00000  0.06266
       5     H     0.48259  0.48259  0.00000  0.03482
       6     H     0.47655  0.47655  0.00000  0.04689
       7     O     4.19633  4.19633  0.00000 -0.39266
       8     H     0.47345  0.47345  0.00000  0.05309
       9     H     0.45525  0.45525  0.00000  0.08951
      10     H     0.39718  0.39718  0.00000  0.20565

   Total alpha = 17.00000, Total beta = 17.00000, Total charge = -0.00000
