                              Psi4 1.0.54 Driver

  ==> Input File <==

--------------------------------------------------------------------------
set {
	reference rhf
	basis cc-pvtz
}

set_num_threads( 4 )
memory 2 gb

molecule MOL {
0 1

H	 -2.819198	 0.050379	 0.726482
C	 -2.539205	 0.917711	 0.132999
O	 -1.168534	 0.965021	 -0.082783
H	 -3.023483	 0.850748	 -0.830266
H	 -2.895195	 1.811813	 0.641663
C	 -0.408345	 1.063020	 1.076590
C	 1.058511	 1.001195	 0.731833
H	 -0.612392	 2.006361	 1.582991
H	 -0.648493	 0.254657	 1.763838
O	 1.401606	 -0.295166	 0.366636
H	 1.264944	 1.696844	 -0.078654
H	 1.638535	 1.314763	 1.599715
C	 2.714315	 -0.441627	 -0.061017
H	 2.765292	 -0.641548	 -1.128869
H	 3.305661	 0.447341	 0.150952
H	 3.143725	 -1.278506	 0.470147

	symmetry c1
}
set optking {
	frozen_dihedral = ("
		7 10 13 14
	")
}

ee,wfn = optimize('scf', return_wfn=True)
oeprop( wfn, 'DIPOLE', 'QUADRUPOLE', 'MULLIKEN_CHARGES')
f=open( 'psi4out.xyz', 'w' )
f.write( "16  " )
f.write( str(ee) + "\n" )
f.write( MOL.save_string_xyz() )
f.close()
--------------------------------------------------------------------------

    Molecular point group: c1
  Charge       = 0
  Multiplicity = 1
  Basis Set: CC-PVTZ
  Basis Set:
  @DF-RHF Final Energy:  -307.09424239457547
    Total Energy =                       -307.0942423945757582
    Molecular point group: c1
  Basis Set: CC-PVTZ
  Basis Set:
  Basis Set: CC-PVTZ
  Basis Set:
  @DF-RHF Final Energy:  -307.09450496435630
    Total Energy =                       -307.0945049643563607
  Basis Set: CC-PVTZ
  Basis Set:
  Basis Set: CC-PVTZ
  Basis Set:
  @DF-RHF Final Energy:  -307.09456522859358
    Total Energy =                       -307.0945652285935239
  Basis Set: CC-PVTZ
  Basis Set:
  Charge       = 0
  Multiplicity = 1
  Basis Set: CC-PVTZ
  Basis Set:

    Orbital Energies (a.u.)
    -----------------------

    Doubly Occupied:

       1A    -20.547446     2A    -20.544367     3A    -11.267781
       4A    -11.266585     5A    -11.261333     6A    -11.261097
       7A     -1.389594     8A     -1.371639     9A     -1.031720
      10A     -0.937237    11A     -0.892181    12A     -0.823933
      13A     -0.685003    14A     -0.681072    15A     -0.658792
      16A     -0.636040    17A     -0.630454    18A     -0.597565
      19A     -0.553986    20A     -0.538439    21A     -0.508894
      22A     -0.479260    23A     -0.464005    24A     -0.420840
      25A     -0.410312

  @DF-RHF Final Energy:  -307.09456573503235

   => Energetics <=

    Nuclear Repulsion Energy =            258.6155546138566024
    One-Electron Energy =                -931.7010954851332372
    Two-Electron Energy =                 365.9909751362441739
    DFT Exchange-Correlation Energy =       0.0000000000000000
    Empirical Dispersion Energy =           0.0000000000000000
    PCM Polarization Energy =               0.0000000000000000
    EFP Energy =                            0.0000000000000000
    Total Energy =                       -307.0945657350324609
    Molecular point group: c1
  Basis Set: CC-PVTZ
  Basis Set:

  -Total Gradient:
     Atom            X                  Y                   Z
    ------   -----------------  -----------------  -----------------
       1        0.000000266297     0.000000573814    -0.000000087181
       2       -0.000002448598     0.000000520302     0.000009304916
       3        0.000017627295    -0.000014212295     0.000013788787
       4        0.000002886362    -0.000000872709    -0.000001254357
       5        0.000004150925    -0.000001298169    -0.000000231553
       6       -0.000017447891     0.000059580186     0.000011178483
       7        0.000310064180    -0.000209352246     0.001233434664
       8       -0.000037098215     0.000017692605     0.000017740403
       9        0.000007901762     0.000006798309    -0.000026013639
      10       -0.000422483714    -0.000133392267    -0.001704974664
      11        0.000001285482    -0.000006457924     0.000004967258
      12       -0.000002152139    -0.000026493859    -0.000021878497
      13        0.000208636208     0.001854798115     0.000154249243
      14       -0.000089085933    -0.001548550515     0.000316464904
      15        0.000007706098     0.000006183135    -0.000005527044
      16        0.000010191879    -0.000005516481    -0.000001161723

  **** Optimization is complete! (in 4 steps) ****
    Final optimized geometry and variables:
    Molecular point group: c1

    Geometry (in Angstrom), charge = 0, multiplicity = 1:

    H           -2.982916558130    -0.522776343666     0.372099020035
    C           -2.718405136085     0.341313306218    -0.233083294915
    O           -1.348444971141     0.412263088508    -0.446539667016
    H           -3.198987810857     0.251282421264    -1.196327658657
    H           -3.092971154512     1.235457369915     0.262039113532
    C           -0.593158134647     0.541512147707     0.712954467140
    C            0.875526245982     0.501322441151     0.372964475764
    H           -0.815505526053     1.488728543918     1.204507374090
    H           -0.820419876574    -0.260645570349     1.411641202587
    O            1.238826182748    -0.796060543336     0.027036128978
    H            1.068809287535     1.191170725314    -0.445028954612
    H            1.445225886025     0.836035082427     1.238979478014
    C            2.553845734686    -0.967996150304    -0.402553862846
    H            2.577701672012    -1.190689524164    -1.463990779472
    H            3.162703846898    -0.089116327651    -0.216620236036
    H            2.993361827184    -1.803349785362     0.129098940301

  Mulliken Charges: (a.u.)
   Center  Symbol    Alpha    Beta     Spin     Total
       1     H     0.47016  0.47016  0.00000  0.05967
       2     C     3.03201  3.03201  0.00000 -0.06403
       3     O     4.17038  4.17038  0.00000 -0.34077
       4     H     0.44644  0.44644  0.00000  0.10711
       5     H     0.47374  0.47374  0.00000  0.05252
       6     C     2.96326  2.96326  0.00000  0.07348
       7     C     2.95868  2.95868  0.00000  0.08265
       8     H     0.47616  0.47616  0.00000  0.04768
       9     H     0.47118  0.47118  0.00000  0.05764
      10     O     4.17492  4.17492  0.00000 -0.34983
      11     H     0.47089  0.47089  0.00000  0.05822
      12     H     0.47597  0.47597  0.00000  0.04807
      13     C     3.02765  3.02765  0.00000 -0.05531
      14     H     0.45841  0.45841  0.00000  0.08318
      15     H     0.47372  0.47372  0.00000  0.05256
      16     H     0.45643  0.45643  0.00000  0.08715

   Total alpha = 25.00000, Total beta = 25.00000, Total charge = -0.00000

*** Psi4 exiting successfully. Buy a developer a beer!
