  ==> Input File <==

--------------------------------------------------------------------------
set {
	reference rhf
	basis 6-31G*
}

set_num_threads( 4 )
memory 2 gb

molecule MOL {
0 1

H	 -2.499100	 -0.730091	 -0.745082
O	 -2.347518	 -0.290803	 0.079804
C	 -1.184022	 0.487508	 -0.006784
C	 0.062599	 -0.378592	 0.031606
H	 -1.176523	 1.099369	 -0.904519
H	 -1.187323	 1.153111	 0.844927
O	 1.171513	 0.459272	 -0.058250
H	 0.050699	 -1.089204	 -0.797170
H	 0.078739	 -0.954914	 0.954740
C	 1.347996	 1.051549	 -1.306130
H	 0.497305	 1.675225	 -1.574424
H	 2.232813	 1.670461	 -1.251819
H	 1.487061	 0.304076	 -2.084421

	symmetry c1
}
set optking {
	frozen_dihedral = ("
		10 7 4 8
	")
}

ee = optimize('scf')
oeprop('DIPOLE', 'QUADRUPOLE', 'MULLIKEN_CHARGES')
f=open( 'psi4out.xyz', 'w' )
f.write( "13  " )
f.write( str(ee) + "\n" )
f.write( MOL.save_string_xyz() )
f.close()
--------------------------------------------------------------------------

    Molecular point group: c1
  Charge       = 0
  Multiplicity = 1
  Basis Set: 6-31G*
  Basis Set:
  @DF-RHF Final Energy:  -267.94255299269105
    Total Energy =                       -267.9425529926912759
    Molecular point group: c1
  Basis Set: 6-31G*
  Basis Set:
  Basis Set: 6-31G*
  Basis Set:
  @DF-RHF Final Energy:  -267.94411321665325
    Total Energy =                       -267.9441132166533635
  Basis Set: 6-31G*
  Basis Set:
  Basis Set: 6-31G*
  Basis Set:
  @DF-RHF Final Energy:  -267.94669691730132
    Total Energy =                       -267.9466969173014377
  Basis Set: 6-31G*
  Basis Set:
  Basis Set: 6-31G*
  Basis Set:
  @DF-RHF Final Energy:  -267.94703338775810
    Total Energy =                       -267.9470333877579833
  Basis Set: 6-31G*
  Basis Set:
  Basis Set: 6-31G*
  Basis Set:
  @DF-RHF Final Energy:  -267.94706732072245
    Total Energy =                       -267.9470673207224536
  Basis Set: 6-31G*
  Basis Set:
  Basis Set: 6-31G*
  Basis Set:
  @DF-RHF Final Energy:  -267.94706996109193
    Total Energy =                       -267.9470699610922111
  Basis Set: 6-31G*
  Basis Set:
  Charge       = 0
  Multiplicity = 1
  Basis Set: 6-31G*
  Basis Set:

    Orbital Energies (a.u.)
    -----------------------

    Doubly Occupied:

       1A    -20.563172     2A    -20.562152     3A    -11.272161
       4A    -11.271625     5A    -11.271285     6A     -1.386539
       7A     -1.367454     8A     -1.014390     9A     -0.930100
      10A     -0.836025    11A     -0.710882    12A     -0.673278
      13A     -0.663399    14A     -0.636550    15A     -0.598211
      16A     -0.575037    17A     -0.537409    18A     -0.493112
      19A     -0.488576    20A     -0.457063    21A     -0.406584

  @DF-RHF Final Energy:  -267.94707022298076

   => Energetics <=

    Nuclear Repulsion Energy =            192.0454055682394312
    One-Electron Energy =                -746.5549403871693812
    Two-Electron Energy =                 286.5624645959491659
    DFT Exchange-Correlation Energy =       0.0000000000000000
    Empirical Dispersion Energy =           0.0000000000000000
    PCM Polarization Energy =               0.0000000000000000
    EFP Energy =                            0.0000000000000000
    Total Energy =                       -267.9470702229808126
    Molecular point group: c1
  Basis Set: 6-31G*
  Basis Set:

  -Total Gradient:
     Atom            X                  Y                   Z
    ------   -----------------  -----------------  -----------------
       1       -0.000016008473    -0.000012061193     0.000000117387
       2        0.000001973838    -0.000022929005    -0.000038442101
       3        0.000000999793     0.000057895883     0.000056809625
       4       -0.001109542840     0.001475924095    -0.000860761953
       5       -0.000004925994    -0.000017510356    -0.000002145361
       6        0.000011378159     0.000020406530    -0.000003455694
       7        0.001046945107    -0.001499640720    -0.000191694506
       8        0.000669297410    -0.000868838625     0.000764245234
       9        0.000012431821     0.000011732549    -0.000006848155
      10       -0.000610903156     0.000857662744     0.000263970494
      11       -0.000001100195    -0.000000272072     0.000005470775
      12       -0.000003167516    -0.000001867034     0.000014173691
      13        0.000002622044    -0.000000502796    -0.000001439437

  **** Optimization is complete! (in 7 steps) ****
    Final optimized geometry and variables:
    Molecular point group: c1

    Geometry (in Angstrom), charge = 0, multiplicity = 1:

    H           -2.301542456818    -1.129881890069    -0.352757551018
    O           -2.145565786174    -0.635597998656     0.439710619631
    C           -1.047093702668     0.218451733511     0.257430406366
    C            0.254451893386    -0.575548874759     0.243932984136
    H           -1.164196262704     0.808819629251    -0.647595886167
    H           -1.038771262914     0.901970481931     1.095356182979
    O            1.396188248426     0.225512648149     0.186342520638
    H            0.251865209653    -1.296372268070    -0.575814742520
    H            0.318051149802    -1.137815119275     1.165943942030
    C            1.676020565709     0.813668923869    -1.046993025539
    H            0.956966949125     1.583478414420    -1.312224153240
    H            2.652978641324     1.270198494610    -0.969006040557
    H            1.699573850880     0.071632363860    -1.843100814012

  Mulliken Charges: (a.u.)
   Center  Symbol    Alpha    Beta     Spin     Total
       1     H     0.28134  0.28134  0.00000  0.43733
       2     O     4.36931  4.36931  0.00000 -0.73863
       3     C     3.00980  3.00980  0.00000 -0.01960
       4     C     3.00331  3.00331  0.00000 -0.00663
       5     H     0.42931  0.42931  0.00000  0.14138
       6     H     0.40781  0.40781  0.00000  0.18437
       7     O     4.30538  4.30538  0.00000 -0.61076
       8     H     0.43719  0.43719  0.00000  0.12563
       9     H     0.40579  0.40579  0.00000  0.18843
      10     C     3.08275  3.08275  0.00000 -0.16550
      11     H     0.42846  0.42846  0.00000  0.14308
      12     H     0.40948  0.40948  0.00000  0.18104
      13     H     0.43007  0.43007  0.00000  0.13985

   Total alpha = 21.00000, Total beta = 21.00000, Total charge =  0.00000
