  ==> Input File <==

--------------------------------------------------------------------------
set {
	reference rhf
	basis 6-31G*
}

set_num_threads( 1 )
memory 2 gb

molecule MOL {
0 1

O	 -1.253850	 -0.824740	 2.172577
C	 -1.837637	 -1.001285	 1.151479
C	 -3.062427	 -1.870115	 1.023841
O	 -1.481751	 -0.454642	 0.000584
H	 -3.828108	 -1.492217	 1.690765
H	 -3.436377	 -1.893129	 0.010889
H	 -2.812399	 -2.873541	 1.347110
C	 -0.334255	 0.388708	 0.000906
C	 0.891947	 -0.504646	 0.000751
H	 -0.365390	 1.025305	 -0.873475
H	 -0.365484	 1.024911	 0.875569
C	 2.191998	 0.301789	 0.000897
H	 0.855148	 -1.151283	 -0.871571
H	 0.855132	 -1.151660	 0.872805
C	 3.441114	 -0.581407	 0.000108
H	 2.215074	 0.954890	 -0.869742
H	 2.215465	 0.953923	 0.872248
C	 4.739576	 0.224112	 -0.001102
H	 3.419457	 -1.233487	 -0.870178
H	 3.420834	 -1.233096	 0.870717
H	 4.804918	 0.861552	 -0.878265
H	 5.606527	 -0.429058	 -0.001824
H	 4.806469	 0.861674	 0.875853

	symmetry c1
}
set optking {
	frozen_dihedral = ("
		13 9 8 10,
		16 12 9 13,
		19 15 12 16,
		1 2 4 8
	")
}

ee = energy('scf')
oeprop('DIPOLE', 'QUADRUPOLE', 'MULLIKEN_CHARGES')
f=open( 'psi4out.xyz', 'w' )
f.write( "23  " )
f.write( str(ee) + "\n" )
f.write( MOL.save_string_xyz() )
f.close()
--------------------------------------------------------------------------

    Molecular point group: c1

    Geometry (in Angstrom), charge = 0, multiplicity = 1:

       Center              X                  Y                   Z               Mass
    ------------   -----------------  -----------------  -----------------  -----------------
           O         -1.608466915904    -0.342046375659     1.680976969308    15.994914619560
           C         -2.192253915904    -0.518591375659     0.659878969308    12.000000000000
           C         -3.417043915904    -1.387421375659     0.532240969308    12.000000000000
           O         -1.836367915904     0.028051624341    -0.491016030692    15.994914619560
           H         -4.182724915904    -1.009523375659     1.199164969308     1.007825032070
           H         -3.790993915904    -1.410435375659    -0.480711030692     1.007825032070
           H         -3.167015915904    -2.390847375659     0.855509969308     1.007825032070
           C         -0.688871915904     0.871401624341    -0.490694030692    12.000000000000
           C          0.537330084096    -0.021952375659    -0.490849030692    12.000000000000
           H         -0.720006915904     1.507998624341    -1.365075030692     1.007825032070
           H         -0.720100915904     1.507604624341     0.383968969308     1.007825032070
           C          1.837381084096     0.784482624341    -0.490703030692    12.000000000000
           H          0.500531084096    -0.668589375659    -1.363171030692     1.007825032070
           H          0.500515084096    -0.668966375659     0.381204969308     1.007825032070
           C          3.086497084096    -0.098713375659    -0.491492030692    12.000000000000
           H          1.860457084096     1.437583624341    -1.361342030692     1.007825032070
           H          1.860848084096     1.436616624341     0.380647969308     1.007825032070
           C          4.384959084096     0.706805624341    -0.492702030692    12.000000000000
           H          3.064840084096    -0.750793375659    -1.361778030692     1.007825032070
           H          3.066217084096    -0.750402375659     0.379116969308     1.007825032070
           H          4.450301084096     1.344245624341    -1.369865030692     1.007825032070
           H          5.251910084096     0.053635624341    -0.493424030692     1.007825032070
           H          4.451852084096     1.344367624341     0.384252969308     1.007825032070

  Charge       = 0
  Multiplicity = 1
  Basis Set: 6-31G*
  Basis Set:

    Orbital Energies (a.u.)
    -----------------------

    Doubly Occupied:

       1A    -20.603080     2A    -20.541331     3A    -11.376195
       4A    -11.281510     5A    -11.233312     6A    -11.218889
       7A    -11.217373     8A    -11.216160     9A    -11.209669
      10A     -1.469625    11A     -1.362064    12A     -1.089250
      13A     -1.040419    14A     -1.001131    15A     -0.929869
      16A     -0.849043    17A     -0.797406    18A     -0.766256
      19A     -0.701391    20A     -0.680425    21A     -0.655883
      22A     -0.646681    23A     -0.602353    24A     -0.589725
      25A     -0.583521    26A     -0.571856    27A     -0.551318
      28A     -0.536534    29A     -0.520468    30A     -0.515504
      31A     -0.483478    32A     -0.475510    33A     -0.472525
      34A     -0.466066    35A     -0.437118    36A     -0.434422

  @DF-RHF Final Energy:  -422.97666606414964

   => Energetics <=

    Nuclear Repulsion Energy =            460.3398945577376935
    One-Electron Energy =               -1488.3781051243240654
    Two-Electron Energy =                 605.0615445024354813
    DFT Exchange-Correlation Energy =       0.0000000000000000
    Empirical Dispersion Energy =           0.0000000000000000
    PCM Polarization Energy =               0.0000000000000000
    EFP Energy =                            0.0000000000000000
    Total Energy =                       -422.9766660641507769

  Mulliken Charges: (a.u.)
   Center  Symbol    Alpha    Beta     Spin     Total
       1     O     4.28514  4.28514  0.00000 -0.57027
       2     C     2.61560  2.61560  0.00000  0.76881
       3     C     3.28781  3.28781  0.00000 -0.57561
       4     O     4.31075  4.31075  0.00000 -0.62149
       5     H     0.39717  0.39717  0.00000  0.20565
       6     H     0.39914  0.39914  0.00000  0.20171
       7     H     0.39774  0.39774  0.00000  0.20451
       8     C     3.00469  3.00469  0.00000 -0.00938
       9     C     3.17136  3.17136  0.00000 -0.34272
      10     H     0.40860  0.40860  0.00000  0.18279
      11     H     0.40391  0.40391  0.00000  0.19219
      12     C     3.16065  3.16065  0.00000 -0.32130
      13     H     0.41760  0.41760  0.00000  0.16480
      14     H     0.40087  0.40087  0.00000  0.19826
      15     C     3.15140  3.15140  0.00000 -0.30280
      16     H     0.42473  0.42473  0.00000  0.15054
      17     H     0.41923  0.41923  0.00000  0.16155
      18     C     3.23974  3.23974  0.00000 -0.47947
      19     H     0.42268  0.42268  0.00000  0.15464
      20     H     0.41979  0.41979  0.00000  0.16041
      21     H     0.42208  0.42208  0.00000  0.15583
      22     H     0.41859  0.41859  0.00000  0.16282
      23     H     0.42073  0.42073  0.00000  0.15853

   Total alpha = 36.00000, Total beta = 36.00000, Total charge =  0.00000
