  ==> Input File <==

--------------------------------------------------------------------------
set {
	reference rhf
	basis 6-31G*
}

set_num_threads( 1 )
memory 2 gb

molecule MOL {
0 1

H	 -2.800547	 0.810870	 -2.161406
C	 -2.095904	 0.140100	 -1.709514
C	 -2.076860	 -0.007332	 -0.404944
H	 -1.418447	 -0.397777	 -2.345637
O	 -1.180634	 -0.819263	 0.215062
H	 -2.751470	 0.516533	 0.249014
C	 0.051604	 -1.018856	 -0.387932
C	 1.043764	 0.054862	 -0.001873
H	 -0.017620	 -1.041351	 -1.469781
H	 0.437898	 -1.966374	 -0.042284
F	 2.212596	 -0.199467	 -0.571921
F	 0.652529	 1.252447	 -0.405055
F	 1.230877	 0.110694	 1.300533

	symmetry c1
}
set optking {
	frozen_dihedral = ("
		11 8 7 9,
		3 5 7 9,
		6 3 2 1
	")
}

ee = energy('scf')
oeprop('DIPOLE', 'QUADRUPOLE', 'MULLIKEN_CHARGES')
f=open( 'psi4out.xyz', 'w' )
f.write( "13  " )
f.write( str(ee) + "\n" )
f.write( MOL.save_string_xyz() )
f.close()
--------------------------------------------------------------------------

    Molecular point group: c1

    Geometry (in Angstrom), charge = 0, multiplicity = 1:

       Center              X                  Y                   Z               Mass
    ------------   -----------------  -----------------  -----------------  -----------------
           H         -2.922765962874     0.835191068858    -1.952887448909     1.007825032070
           C         -2.218122962874     0.164421068858    -1.500995448909    12.000000000000
           C         -2.199078962874     0.016989068858    -0.196425448909    12.000000000000
           H         -1.540665962874    -0.373455931142    -2.137118448909     1.007825032070
           O         -1.302852962874    -0.794941931142     0.423580551091    15.994914619560
           H         -2.873688962874     0.540854068858     0.457532551091     1.007825032070
           C         -0.070614962874    -0.994534931142    -0.179413448909    12.000000000000
           C          0.921545037126     0.079183068858     0.206645551091    12.000000000000
           H         -0.139838962874    -1.017029931142    -1.261262448909     1.007825032070
           H          0.315679037126    -1.942052931142     0.166234551091     1.007825032070
           F          2.090377037126    -0.175145931142    -0.363402448909    18.998403224000
           F          0.530310037126     1.276768068858    -0.196536448909    18.998403224000
           F          1.108658037126     0.135015068858     1.509051551091    18.998403224000

  Charge       = 0
  Multiplicity = 1
  Basis Set: 6-31G*
  Basis Set:

    Orbital Energies (a.u.)
    -----------------------

    Doubly Occupied:

       1A    -26.341891     2A    -26.338428     3A    -26.337561
       4A    -20.606325     5A    -11.500304     6A    -11.313722
       7A    -11.302008     8A    -11.220208     9A     -1.738266
      10A     -1.636769    11A     -1.634242    12A     -1.437811
      13A     -1.076857    14A     -1.024836    15A     -0.930567
      16A     -0.835300    17A     -0.828002    18A     -0.826003
      19A     -0.759253    20A     -0.733163    21A     -0.708850
      22A     -0.700783    23A     -0.674191    24A     -0.657730
      25A     -0.655474    26A     -0.639643    27A     -0.636971
      28A     -0.590232    29A     -0.558194    30A     -0.529723
      31A     -0.500678    32A     -0.358934

  @DF-RHF Final Energy:  -527.52751136868460

   => Energetics <=

    Nuclear Repulsion Energy =            420.6419467867979733
    One-Electron Energy =               -1565.0731091043312517
    Two-Electron Energy =                 616.9036509488493039
    DFT Exchange-Correlation Energy =       0.0000000000000000
    Empirical Dispersion Energy =           0.0000000000000000
    PCM Polarization Energy =               0.0000000000000000
    EFP Energy =                            0.0000000000000000
    Total Energy =                       -527.5275113686840314

  Mulliken Charges: (a.u.)
   Center  Symbol    Alpha    Beta     Spin     Total
       1     H     0.40372  0.40372  0.00000  0.19255
       2     C     3.24049  3.24049  0.00000 -0.48097
       3     C     2.89728  2.89728  0.00000  0.20544
       4     H     0.40888  0.40888  0.00000  0.18224
       5     O     4.30792  4.30792  0.00000 -0.61583
       6     H     0.39299  0.39299  0.00000  0.21401
       7     C     3.05923  3.05923  0.00000 -0.11846
       8     C     2.45588  2.45588  0.00000  1.08823
       9     H     0.40514  0.40514  0.00000  0.18973
      10     H     0.39198  0.39198  0.00000  0.21605
      11     F     4.68299  4.68299  0.00000 -0.36598
      12     F     4.67802  4.67802  0.00000 -0.35603
      13     F     4.67549  4.67549  0.00000 -0.35098

   Total alpha = 32.00000, Total beta = 32.00000, Total charge = -0.00000
