  ==> Input File <==

--------------------------------------------------------------------------
set {
	reference rhf
	basis cc-pvtz
}

set_num_threads( 4 )
memory 2 gb

molecule MOL {
0 1

O	 0.749630	 1.305591	 -0.000460
C	 0.576499	 0.134701	 -0.003900
C	 -0.765656	 -0.550508	 -0.002152
O	 1.564816	 -0.744612	 -0.000631
C	 -1.945526	 0.411052	 0.000603
H	 -0.794329	 -1.203792	 -0.868145
H	 -0.791555	 -1.205429	 0.862701
C	 -3.281254	 -0.319477	 0.084755
H	 -1.912751	 1.019394	 -0.895075
H	 -1.846031	 1.096241	 0.833667
H	 -3.418359	 -0.989732	 -0.757428
H	 -4.106193	 0.382618	 0.084928
H	 -3.351211	 -0.911266	 0.991518
C	 2.884339	 -0.237801	 0.002883
H	 3.064150	 0.362814	 -0.876312
H	 3.533055	 -1.098529	 0.004958
H	 3.059365	 0.363432	 0.882614

	symmetry c1
}
set optking {
	frozen_dihedral = ("
		9 5 3 6
	")
}

ee = optimize('scf')
oeprop('DIPOLE', 'QUADRUPOLE', 'MULLIKEN_CHARGES')
f=open( 'psi4out.xyz', 'w' )
f.write( "17  " )
f.write( str(ee) + "\n" )
f.write( MOL.save_string_xyz() )
f.close()
--------------------------------------------------------------------------

    Molecular point group: c1
  Charge       = 0
  Multiplicity = 1
  Basis Set: CC-PVTZ
  Basis Set:
  @DF-RHF Final Energy:  -345.03537294899252
    Total Energy =                       -345.0353729489925172
    Molecular point group: c1
  Basis Set: CC-PVTZ
  Basis Set:
  Basis Set: CC-PVTZ
  Basis Set:
  @DF-RHF Final Energy:  -345.03514443971471
    Total Energy =                       -345.0351444397145997
  Basis Set: CC-PVTZ
  Basis Set:
  Basis Set: CC-PVTZ
  Basis Set:
  @DF-RHF Final Energy:  -345.03538135896662
    Total Energy =                       -345.0353813589669585
  Basis Set: CC-PVTZ
  Basis Set:
  Basis Set: CC-PVTZ
  Basis Set:
  @DF-RHF Final Energy:  -345.03538284846911
    Total Energy =                       -345.0353828484691121
  Basis Set: CC-PVTZ
  Basis Set:
  Charge       = 0
  Multiplicity = 1
  Basis Set: CC-PVTZ
  Basis Set:

    Orbital Energies (a.u.)
    -----------------------

    Doubly Occupied:

       1A    -20.596665     2A    -20.534498     3A    -11.364921
       4A    -11.278754     5A    -11.234401     6A    -11.220118
       7A    -11.212696     8A     -1.472582     9A     -1.366177
      10A     -1.081757    11A     -1.002548    12A     -0.940322
      13A     -0.827807    14A     -0.769308    15A     -0.702503
      16A     -0.686779    17A     -0.676273    18A     -0.637944
      19A     -0.596828    20A     -0.575506    21A     -0.569874
      22A     -0.528720    23A     -0.523359    24A     -0.500151
      25A     -0.487764    26A     -0.480005    27A     -0.460084
      28A     -0.441412

  @DF-RHF Final Energy:  -345.03538291256064

   => Energetics <=

    Nuclear Repulsion Energy =            313.0267263176693859
    One-Electron Energy =               -1090.5847034772932602
    Two-Electron Energy =                 432.5225942470631253
    DFT Exchange-Correlation Energy =       0.0000000000000000
    Empirical Dispersion Energy =           0.0000000000000000
    PCM Polarization Energy =               0.0000000000000000
    EFP Energy =                            0.0000000000000000
    Total Energy =                       -345.0353829125607490
    Molecular point group: c1
  Basis Set: CC-PVTZ
  Basis Set:

  -Total Gradient:
     Atom            X                  Y                   Z
    ------   -----------------  -----------------  -----------------
       1       -0.000001777119     0.000014820030     0.000001842255
       2        0.000010658283    -0.000011195775     0.000008461512
       3       -0.000488020770    -0.000598119697     0.000307289639
       4       -0.000011071006    -0.000003408187    -0.000004513023
       5        0.000495478595     0.000605918785     0.000278115278
       6        0.000325656013     0.000395071904    -0.000311224929
       7       -0.000002591263     0.000007907585    -0.000003002660
       8       -0.000001550377    -0.000000547741     0.000007575051
       9       -0.000325725503    -0.000409342714    -0.000286140765
      10       -0.000000684080    -0.000001496925    -0.000003125732
      11        0.000003203699     0.000000261568     0.000001656709
      12       -0.000001556042    -0.000000832966    -0.000001130542
      13       -0.000006433460    -0.000001611203     0.000001766616
      14        0.000010716935     0.000005620491     0.000003067195
      15       -0.000002528744    -0.000001285393     0.000000787840
      16       -0.000002566424    -0.000000735829    -0.000000174064
      17       -0.000001208733    -0.000001023931    -0.000001250381

  **** Optimization is complete! (in 5 steps) ****
    Final optimized geometry and variables:
    Molecular point group: c1

    Geometry (in Angstrom), charge = 0, multiplicity = 1:

    O            0.749943979362     1.305056884079    -0.013842905322
    C            0.576185271620     0.134230534201    -0.010791259699
    C           -0.766359995786    -0.551184719504    -0.006299609088
    O            1.564706027877    -0.744977961953    -0.011669400969
    C           -1.945426681611     0.411473457575    -0.006566634187
    H           -0.793191205097    -1.203774236216    -0.872913483326
    H           -0.791640106028    -1.204309424877     0.859841757034
    C           -3.282002046399    -0.319402598326     0.064692039340
    H           -1.908884495272     1.020231940754    -0.902091385910
    H           -1.851680331609     1.093963576139     0.829047094542
    H           -3.410705126609    -0.990606840622    -0.778171861012
    H           -4.107107308330     0.382531099627     0.055858098362
    H           -3.360857600730    -0.910345152060     0.971304000519
    C            2.883976069960    -0.238151238309    -0.016309192608
    H            3.059126055765     0.361086926321    -0.897475060624
    H            3.533320382959    -1.098502718905    -0.016238229740
    H            3.063911608314     0.364821997309     0.861337452542

  Mulliken Charges: (a.u.)
   Center  Symbol    Alpha    Beta     Spin     Total
       1     O     4.19662  4.19662  0.00000 -0.39324
       2     C     2.80667  2.80667  0.00000  0.38667
       3     C     3.09578  3.09578  0.00000 -0.19156
       4     O     4.14694  4.14694  0.00000 -0.29388
       5     C     3.07857  3.07857  0.00000 -0.15713
       6     H     0.44071  0.44071  0.00000  0.11859
       7     H     0.44116  0.44116  0.00000  0.11768
       8     C     3.15134  3.15134  0.00000 -0.30268
       9     H     0.44753  0.44753  0.00000  0.10494
      10     H     0.44597  0.44597  0.00000  0.10805
      11     H     0.45594  0.45594  0.00000  0.08811
      12     H     0.44562  0.44562  0.00000  0.10876
      13     H     0.45578  0.45578  0.00000  0.08845
      14     C     3.03743  3.03743  0.00000 -0.07487
      15     H     0.45434  0.45434  0.00000  0.09133
      16     H     0.44529  0.44529  0.00000  0.10942
      17     H     0.45432  0.45432  0.00000  0.09136

   Total alpha = 28.00000, Total beta = 28.00000, Total charge = -0.00000
