                              Psi4 1.0.54 Driver

  ==> Input File <==

--------------------------------------------------------------------------
set {
	reference rhf
	basis cc-pvtz
}

set_num_threads( 4 )
memory 2 gb

molecule MOL {
0 1

O	 3.219313	 0.959291	 -0.614106
C	 2.698710	 0.058177	 -0.050237
C	 1.246364	 -0.005813	 0.348416
O	 3.344101	 -1.038700	 0.312317
C	 0.453207	 1.232821	 -0.049003
H	 0.839270	 -0.907818	 -0.092281
H	 1.216683	 -0.160521	 1.422434
C	 -0.998367	 1.217982	 0.432195
H	 0.481498	 1.345443	 -1.127236
H	 0.951413	 2.105557	 0.354893
C	 -1.882951	 0.151251	 -0.211235
H	 -1.429490	 2.193659	 0.228843
H	 -1.019755	 1.099323	 1.513279
C	 -3.342450	 0.243269	 0.226009
H	 -1.826223	 0.246578	 -1.293162
H	 -1.508033	 -0.839650	 0.027695
C	 -4.234517	 -0.821434	 -0.405970
H	 -3.730149	 1.228245	 -0.022691
H	 -3.398860	 0.159952	 1.308941
C	 -3.482923	 -2.100022	 -0.761068
H	 -5.046889	 -1.059172	 0.275390
H	 -4.697814	 -0.416264	 -1.301542
H	 -4.144333	 -2.833834	 -1.207208
H	 -3.037103	 -2.549373	 0.120089
H	 -2.684675	 -1.901154	 -1.468500
C	 4.720529	 -1.114346	 0.001449
H	 4.874321	 -1.055557	 -1.065852
H	 5.057824	 -2.067950	 0.373977
H	 5.264321	 -0.313596	 0.480350

	symmetry c1
}
set optking {
	frozen_dihedral = ("
		21 17 14 11
	")
}

ee,wfn = optimize('scf', return_wfn=True)
oeprop( wfn, 'DIPOLE', 'QUADRUPOLE', 'MULLIKEN_CHARGES')
f=open( 'psi4out.xyz', 'w' )
f.write( "29  " )
f.write( str(ee) + "\n" )
f.write( MOL.save_string_xyz() )
f.close()
--------------------------------------------------------------------------

    Molecular point group: c1
  Charge       = 0
  Multiplicity = 1
  Basis Set: CC-PVTZ
  Basis Set:
  @DF-RHF Final Energy:  -501.21586386772742
    Total Energy =                       -501.2158638677267390
    Molecular point group: c1
  Basis Set: CC-PVTZ
  Basis Set:
  Basis Set: CC-PVTZ
  Basis Set:
  @DF-RHF Final Energy:  -499.36574200434831
    Total Energy =                       -499.3657420043485899
  Basis Set: CC-PVTZ
  Basis Set:
  Basis Set: CC-PVTZ
  Basis Set:
  @DF-RHF Final Energy:  -499.62812889467875
    Total Energy =                       -499.6281288946785253
  Basis Set: CC-PVTZ
  Basis Set:
  Basis Set: CC-PVTZ
  Basis Set:
  @DF-RHF Final Energy:  -500.12075655262322
    Total Energy =                       -500.1207565526224244
  Basis Set: CC-PVTZ
  Basis Set:
  @DF-RHF Final Energy:  -500.56744871653541
    Total Energy =                       -500.5674487165356368
  @DF-RHF Final Energy:  -500.91427907149500
    Total Energy =                       -500.9142790714951161
  @DF-RHF Final Energy:  -501.12808248852946
    Total Energy =                       -501.1280824885291167
  @DF-RHF Final Energy:  -501.20228752865376
    Total Energy =                       -501.2022875286539829
  @DF-RHF Final Energy:  -501.21714095425568
    Total Energy =                       -501.2171409542561378
  @DF-RHF Final Energy:  -501.17193291653143
    Total Energy =                       -501.1719329165309773
  @DF-RHF Final Energy:  -501.21641294552512
    Total Energy =                       -501.2164129455255761
  @DF-RHF Final Energy:  -501.21850941062371
    Total Energy =                       -501.2185094106232555
  @DF-RHF Final Energy:  -501.21837829550975
    Total Energy =                       -501.2183782955098650
  @DF-RHF Final Energy:  -501.21849503362898
    Total Energy =                       -501.2184950336285283
  Basis Set: CC-PVTZ
  Basis Set:
  @DF-RHF Final Energy:  -501.21853030262196
    Total Energy =                       -501.2185303026217298
  Basis Set: CC-PVTZ
  Basis Set:
  Basis Set: CC-PVTZ
  Basis Set:
  @DF-RHF Final Energy:  -501.21852739514929
    Total Energy =                       -501.2185273951489535
  Basis Set: CC-PVTZ
  Basis Set:
  Basis Set: CC-PVTZ
  Basis Set:
  @DF-RHF Final Energy:  -501.21853350894639
    Total Energy =                       -501.2185335089468481
  Basis Set: CC-PVTZ
  Basis Set:
  Charge       = 0
  Multiplicity = 1
  Basis Set: CC-PVTZ
  Basis Set:

    Orbital Energies (a.u.)
    -----------------------

    Doubly Occupied:

       1A    -20.595955     2A    -20.533822     3A    -11.364221
       4A    -11.278204     5A    -11.232917     6A    -11.216878
       7A    -11.215241     8A    -11.214685     9A    -11.213246
      10A    -11.212634    11A    -11.207151    12A     -1.471847
      13A     -1.365461    14A     -1.098735    15A     -1.065968
      16A     -1.018638    17A     -0.976382    18A     -0.928532
      19A     -0.873795    20A     -0.804817    21A     -0.774651
      22A     -0.765152    23A     -0.702947    24A     -0.685365
      25A     -0.676028    26A     -0.647849    27A     -0.631367
      28A     -0.604625    29A     -0.596169    30A     -0.594076
      31A     -0.558405    32A     -0.552083    33A     -0.540236
      34A     -0.525194    35A     -0.521506    36A     -0.509859
      37A     -0.500373    38A     -0.478198    39A     -0.473575
      40A     -0.460392    41A     -0.454469    42A     -0.451256
      43A     -0.444897    44A     -0.437761

  @DF-RHF Final Energy:  -501.21853365695790

   => Energetics <=

    Nuclear Repulsion Energy =            619.3357660206396531
    One-Electron Energy =               -1910.1574737573996572
    Two-Electron Energy =                 789.6031740798014198
    DFT Exchange-Correlation Energy =       0.0000000000000000
    Empirical Dispersion Energy =           0.0000000000000000
    PCM Polarization Energy =               0.0000000000000000
    EFP Energy =                            0.0000000000000000
    Total Energy =                       -501.2185336569584706
    Molecular point group: c1
  Basis Set: CC-PVTZ
  Basis Set:

  -Total Gradient:
     Atom            X                  Y                   Z
    ------   -----------------  -----------------  -----------------
       1        0.000000241082    -0.000010240011     0.000067280509
       2       -0.000040299606     0.000015791145    -0.000075879787
       3        0.000022051969     0.000030072350     0.000020387445
       4        0.000024299053     0.000001979421     0.000024234486
       5       -0.000014002532    -0.000019114488    -0.000024179133
       6        0.000006917874     0.000004650198    -0.000031365903
       7       -0.000010788840    -0.000028407426    -0.000008655556
       8        0.000054730737     0.000010827764     0.000018235936
       9        0.000015228342     0.000020915185     0.000017941274
      10       -0.000014481095    -0.000012558678     0.000011685814
      11        0.003424493114     0.000520582919     0.003039309984
      12        0.000001466540    -0.000015430872     0.000004576543
      13       -0.000003696554    -0.000003154763    -0.000004795961
      14       -0.003821695877    -0.001150719855    -0.003944622222
      15        0.000006931193     0.000006488015    -0.000001902226
      16       -0.000013111936     0.000015219802    -0.000001527302
      17       -0.005147818076     0.002385548352    -0.001356531339
      18        0.000011354685    -0.000009799610     0.000005482121
      19       -0.000014121274    -0.000008413656    -0.000002958058
      20       -0.000002769302    -0.000014523602     0.000009280034
      21        0.005497406692    -0.001765328447     0.002236370948
      22        0.000013265597     0.000006948393     0.000001059719
      23        0.000012915567     0.000006195679    -0.000013042748
      24       -0.000013364804    -0.000002077164     0.000003474712
      25        0.000002124382     0.000019349010     0.000007784289
      26        0.000020172158    -0.000004362309    -0.000024289402
      27        0.000006722778     0.000020030518     0.000013450448
      28       -0.000010187878     0.000004609064    -0.000013028697
      29       -0.000013983986    -0.000025076931     0.000022224071

  **** Optimization is complete! (in 18 steps) ****
    Final optimized geometry and variables:
    Molecular point group: c1

    Geometry (in Angstrom), charge = 0, multiplicity = 1:

    O            1.759418592043    -0.166076110362    -2.754846149238
    C            1.956825834905    -0.215619735322    -1.588886385963
    C            1.004717688487     0.250304523084    -0.517070506383
    O            3.069964702211    -0.701303888494    -1.063228068913
    C           -0.293219196203     0.827640809074    -1.067928167020
    H            0.828368169946    -0.596855961217     0.134779337856
    H            1.533879963012     0.982620809351     0.084414691557
    C           -1.226747963341     1.387195232209     0.006561203169
    H           -0.808770459458     0.065890533622    -1.642235349960
    H           -0.049211456179     1.615575661453    -1.769854261788
    C           -1.820541969646     0.345242230958     0.954008993136
    H           -2.039606109947     1.906184601942    -0.492212577955
    H           -0.699388985467     2.141796975001     0.586229620441
    C           -2.799292377400     0.964580773557     1.951296404791
    H           -2.322964931388    -0.419445659309     0.365209700695
    H           -1.027166782086    -0.156116198688     1.494588374444
    C           -3.504421942235    -0.005985601970     2.919456387842
    H           -3.552777024052     1.529927129376     1.412296201137
    H           -2.246623771143     1.694407490451     2.537954038931
    C           -2.706516285576    -1.250400626125     3.312527035196
    H           -3.709349613695     0.529024800224     3.840654181151
    H           -4.456670260166    -0.317626251383     2.504099379299
    H           -3.257579191927    -1.829727299307     4.044558091056
    H           -1.752646303610    -0.986240339893     3.757365955015
    H           -2.509923752892    -1.896809700084     2.466181868097
    C            4.055612416966    -1.177345861555    -1.957009557849
    H            3.667896867380    -1.988092239223    -2.555796122657
    H            4.870970606601    -1.524812916185    -1.343553085320
    H            4.391814063958    -0.386217611219    -2.610644037234

  Mulliken Charges: (a.u.)
   Center  Symbol    Alpha    Beta     Spin     Total
       1     O     4.19699  4.19699  0.00000 -0.39397
       2     C     2.80476  2.80476  0.00000  0.39049
       3     C     3.10169  3.10169  0.00000 -0.20338
       4     O     4.14726  4.14726  0.00000 -0.29452
       5     C     3.09210  3.09210  0.00000 -0.18420
       6     H     0.43962  0.43962  0.00000  0.12075
       7     H     0.43982  0.43982  0.00000  0.12035
       8     C     3.10495  3.10495  0.00000 -0.20989
       9     H     0.44627  0.44627  0.00000  0.10746
      10     H     0.43975  0.43975  0.00000  0.12049
      11     C     3.09498  3.09498  0.00000 -0.18996
      12     H     0.44474  0.44474  0.00000  0.11053
      13     H     0.45387  0.45387  0.00000  0.09225
      14     C     3.09652  3.09652  0.00000 -0.19304
      15     H     0.45238  0.45238  0.00000  0.09523
      16     H     0.44921  0.44921  0.00000  0.10158
      17     C     3.08645  3.08645  0.00000 -0.17290
      18     H     0.44949  0.44949  0.00000  0.10101
      19     H     0.45430  0.45430  0.00000  0.09141
      20     C     3.15998  3.15998  0.00000 -0.31995
      21     H     0.45095  0.45095  0.00000  0.09811
      22     H     0.45166  0.45166  0.00000  0.09668
      23     H     0.44387  0.44387  0.00000  0.11226
      24     H     0.45433  0.45433  0.00000  0.09134
      25     H     0.45201  0.45201  0.00000  0.09598
      26     C     3.03822  3.03822  0.00000 -0.07644
      27     H     0.45436  0.45436  0.00000  0.09129
      28     H     0.44527  0.44527  0.00000  0.10946
      29     H     0.45420  0.45420  0.00000  0.09159

   Total alpha = 44.00000, Total beta = 44.00000, Total charge = -0.00000

*** Psi4 exiting successfully. Buy a developer a beer!
