                              Psi4 1.0.54 Driver

  ==> Input File <==

--------------------------------------------------------------------------
set {
	reference rhf
	basis cc-pvtz
}

set_num_threads( 4 )
memory 2 gb

molecule MOL {
0 1

O	 0.623971	 1.347241	 -0.000777
C	 0.485107	 0.171416	 -0.000134
C	 1.606966	 -0.836201	 0.000174
O	 -0.695554	 -0.422406	 0.000602
C	 2.988788	 -0.202529	 -0.000115
H	 1.465110	 -1.474645	 -0.864821
H	 1.465209	 -1.474077	 0.865596
H	 3.131767	 0.419673	 -0.873407
H	 3.750876	 -0.972315	 0.000098
H	 3.131883	 0.420264	 0.872742
C	 -1.818192	 0.334833	 0.430207
C	 -3.036624	 -0.553790	 0.339311
H	 -1.916308	 1.208435	 -0.198711
H	 -1.648901	 0.673981	 1.442454
H	 -3.195460	 -0.887903	 -0.678290
H	 -3.914018	 -0.005156	 0.660890
H	 -2.926581	 -1.425364	 0.972256

	symmetry c1
}
set optking {
	frozen_dihedral = ("
		11 4 2 3
	")
}

ee,wfn = optimize('scf', return_wfn=True)
oeprop( wfn, 'DIPOLE', 'QUADRUPOLE', 'MULLIKEN_CHARGES')
f=open( 'psi4out.xyz', 'w' )
f.write( "17  " )
f.write( str(ee) + "\n" )
f.write( MOL.save_string_xyz() )
f.close()
--------------------------------------------------------------------------

    Molecular point group: c1
  Charge       = 0
  Multiplicity = 1
  Basis Set: CC-PVTZ
  Basis Set:
  @DF-RHF Final Energy:  -345.03833201181078
    Total Energy =                       -345.0383320118106667
    Molecular point group: c1
  Basis Set: CC-PVTZ
  Basis Set:
  Basis Set: CC-PVTZ
  Basis Set:
  @DF-RHF Final Energy:  -345.03581440418657
    Total Energy =                       -345.0358144041864534
  Basis Set: CC-PVTZ
  Basis Set:
  Basis Set: CC-PVTZ
  Basis Set:
  @DF-RHF Final Energy:  -345.03857047829302
    Total Energy =                       -345.0385704782929110
  Basis Set: CC-PVTZ
  Basis Set:
  Basis Set: CC-PVTZ
  Basis Set:
  @DF-RHF Final Energy:  -345.03866166930572
    Total Energy =                       -345.0386616693061228
  Basis Set: CC-PVTZ
  Basis Set:
  @DF-RHF Final Energy:  -345.03869794150376
    Total Energy =                       -345.0386979415035853
  @DF-RHF Final Energy:  -345.03870792820550
    Total Energy =                       -345.0387079282053264
  @DF-RHF Final Energy:  -345.03870948145197
    Total Energy =                       -345.0387094814520879
  @DF-RHF Final Energy:  -345.03871053532254
    Total Energy =                       -345.0387105353229344
  Basis Set: CC-PVTZ
  Basis Set:
  @DF-RHF Final Energy:  -345.03871286445093
    Total Energy =                       -345.0387128644509858
  Basis Set: CC-PVTZ
  Basis Set:
  Basis Set: CC-PVTZ
  Basis Set:
  @DF-RHF Final Energy:  -345.03870855011758
    Total Energy =                       -345.0387085501172351
  Basis Set: CC-PVTZ
  Basis Set:
  Basis Set: CC-PVTZ
  Basis Set:
  @DF-RHF Final Energy:  -345.03871385002645
    Total Energy =                       -345.0387138500264541
  Basis Set: CC-PVTZ
  Basis Set:
  Charge       = 0
  Multiplicity = 1
  Basis Set: CC-PVTZ
  Basis Set:

    Orbital Energies (a.u.)
    -----------------------

    Doubly Occupied:

       1A    -20.591853     2A    -20.533586     3A    -11.363789
       4A    -11.283430     5A    -11.236225     6A    -11.220597
       7A    -11.214093     8A     -1.469445     9A     -1.365112
      10A     -1.070540    11A     -1.032941    12A     -0.911511
      13A     -0.849037    14A     -0.774542    15A     -0.698618
      16A     -0.690655    17A     -0.668084    18A     -0.630230
      19A     -0.585580    20A     -0.574565    21A     -0.558148
      22A     -0.525573    23A     -0.521507    24A     -0.514577
      25A     -0.505362    26A     -0.494050    27A     -0.455859
      28A     -0.438625

  @DF-RHF Final Energy:  -345.03871478934383

   => Energetics <=

    Nuclear Repulsion Energy =            315.1609707961484332
    One-Electron Energy =               -1094.8431008666100297
    Two-Electron Energy =                 434.6434152811174272
    DFT Exchange-Correlation Energy =       0.0000000000000000
    Empirical Dispersion Energy =           0.0000000000000000
    PCM Polarization Energy =               0.0000000000000000
    EFP Energy =                            0.0000000000000000
    Total Energy =                       -345.0387147893442261
    Molecular point group: c1
  Basis Set: CC-PVTZ
  Basis Set:

  -Total Gradient:
     Atom            X                  Y                   Z
    ------   -----------------  -----------------  -----------------
       1        0.000199670561    -0.000142202833    -0.000185920182
       2        0.000132161218    -0.000254480563    -0.003293159411
       3       -0.000110528768    -0.000301408223     0.003977171873
       4       -0.000725559703     0.002471760530    -0.004762403192
       5        0.000011263941    -0.000005646231     0.000025361320
       6        0.000009543184     0.000039613557     0.000033687125
       7       -0.000002231067     0.000002624871    -0.000015687279
       8       -0.000012079731    -0.000007427380     0.000018494554
       9       -0.000006215930     0.000011645435     0.000005151150
      10       -0.000008346792    -0.000025992096    -0.000034739862
      11        0.000507903423    -0.001806643323     0.004273421300
      12       -0.000005061198    -0.000001078828    -0.000005306023
      13       -0.000002669432    -0.000003879340    -0.000005270647
      14       -0.000001876175    -0.000002028479    -0.000033320763
      15        0.000007735738     0.000005132826     0.000018635349
      16       -0.000000190312    -0.000001875353    -0.000003829385
      17        0.000006481040     0.000021885431    -0.000012285927

  **** Optimization is complete! (in 12 steps) ****
    Final optimized geometry and variables:
    Molecular point group: c1

    Geometry (in Angstrom), charge = 0, multiplicity = 1:

    O            0.628403190434     1.360532930742     0.092203021159
    C            0.481021311527     0.197290116105    -0.067778762835
    C            1.593913213601    -0.819082640660    -0.100946990034
    O           -0.705770828545    -0.378754398421    -0.175490208129
    C            2.979334581329    -0.200902074490    -0.198635478432
    H            1.402903169205    -1.502960365858    -0.919290717276
    H            1.490711379203    -1.405316824636     0.806772041014
    H            3.086297432870     0.372681624887    -1.110312266938
    H            3.734805942357    -0.977103514363    -0.194954088349
    H            3.167153952774     0.465265522005     0.631904172953
    C           -1.840113860587     0.355464712543     0.264533541299
    C           -3.044302514714    -0.551326407169     0.165774400845
    H           -1.957417052321     1.236429132075    -0.349921730301
    H           -1.670852018650     0.681479349174     1.281847175894
    H           -3.200347640347    -0.872688724846    -0.856264643261
    H           -3.929424844354    -0.021271618017     0.497211582096
    H           -2.918357130931    -1.430277054036     0.785340869194

  Mulliken Charges: (a.u.)
   Center  Symbol    Alpha    Beta     Spin     Total
       1     O     4.19496  4.19496  0.00000 -0.38991
       2     C     2.80996  2.80996  0.00000  0.38009
       3     C     3.09192  3.09192  0.00000 -0.18384
       4     O     4.15285  4.15285  0.00000 -0.30569
       5     C     3.14043  3.14043  0.00000 -0.28086
       6     H     0.43974  0.43974  0.00000  0.12052
       7     H     0.44468  0.44468  0.00000  0.11064
       8     H     0.45025  0.45025  0.00000  0.09949
       9     H     0.45046  0.45046  0.00000  0.09907
      10     H     0.44613  0.44613  0.00000  0.10774
      11     C     2.97969  2.97969  0.00000  0.04062
      12     C     3.13316  3.13316  0.00000 -0.26632
      13     H     0.45067  0.45067  0.00000  0.09866
      14     H     0.45787  0.45787  0.00000  0.08427
      15     H     0.45050  0.45050  0.00000  0.09900
      16     H     0.45467  0.45467  0.00000  0.09066
      17     H     0.45207  0.45207  0.00000  0.09586

   Total alpha = 28.00000, Total beta = 28.00000, Total charge = -0.00000

*** Psi4 exiting successfully. Buy a developer a beer!
