  ==> Input File <==

--------------------------------------------------------------------------
set {
	reference rhf
	basis 6-31G*
}

set_num_threads( 4 )
memory 2 gb

molecule MOL {
0 1

O	 2.025183	 0.132352	 -1.022283
C	 2.701189	 0.057885	 -0.047330
C	 2.943722	 1.171266	 0.942795
O	 3.347903	 -1.046386	 0.304773
C	 2.208823	 2.461625	 0.586405
H	 2.657075	 0.796392	 1.919777
H	 4.017622	 1.333058	 0.990314
C	 2.527326	 3.632078	 1.522935
H	 1.139064	 2.275332	 0.581152
H	 2.469270	 2.738525	 -0.429428
C	 2.041513	 3.455821	 2.964472
H	 2.070373	 4.528180	 1.109511
H	 3.601036	 3.814167	 1.523471
C	 2.285183	 4.693769	 3.829984
H	 0.977149	 3.225821	 2.957619
H	 2.535381	 2.603008	 3.424665
C	 1.808409	 4.527188	 5.273961
H	 1.782594	 5.549833	 3.383002
H	 3.348007	 4.930629	 3.828554
C	 2.051917	 5.769210	 6.130573
H	 0.746750	 4.289467	 5.277186
H	 2.312909	 3.674611	 5.723821
H	 1.703666	 5.620309	 7.147999
H	 1.531411	 6.632673	 5.725975
H	 3.109582	 6.013348	 6.175480
C	 4.728119	 -1.109107	 -0.004993
H	 4.882018	 -1.033965	 -1.071845
H	 5.068212	 -2.067527	 0.355250
H	 5.265056	 -0.311663	 0.488280

	symmetry c1
}
set optking {
	frozen_dihedral = ("
		1 2 4 26
	")
}

ee = optimize('scf')
oeprop('DIPOLE', 'QUADRUPOLE', 'MULLIKEN_CHARGES')
f=open( 'psi4out.xyz', 'w' )
f.write( "29  " )
f.write( str(ee) + "\n" )
f.write( MOL.save_string_xyz() )
f.close()
--------------------------------------------------------------------------

    Molecular point group: c1
  Charge       = 0
  Multiplicity = 1
  Basis Set: 6-31G*
  Basis Set:
  @DF-RHF Final Energy:  -501.02102578143229
    Total Energy =                       -501.0210257814317174
    Molecular point group: c1
  Basis Set: 6-31G*
  Basis Set:
  Basis Set: 6-31G*
  Basis Set:
  @DF-RHF Final Energy:  -501.01938886423261
    Total Energy =                       -501.0193888642331785
  Basis Set: 6-31G*
  Basis Set:
  Basis Set: 6-31G*
  Basis Set:
  @DF-RHF Final Energy:  -501.02219482823079
    Total Energy =                       -501.0221948282305675
  Basis Set: 6-31G*
  Basis Set:
  Basis Set: 6-31G*
  Basis Set:
  @DF-RHF Final Energy:  -501.02313297762475
    Total Energy =                       -501.0231329776250959
  Basis Set: 6-31G*
  Basis Set:
  @DF-RHF Final Energy:  -501.02316836467935
    Total Energy =                       -501.0231683646799183
  @DF-RHF Final Energy:  -501.02317522937437
    Total Energy =                       -501.0231752293747149
  Basis Set: 6-31G*
  Basis Set:
  @DF-RHF Final Energy:  -501.02317315173559
    Total Energy =                       -501.0231731517360458
  Basis Set: 6-31G*
  Basis Set:
  Basis Set: 6-31G*
  Basis Set:
  @DF-RHF Final Energy:  -501.02317612030356
    Total Energy =                       -501.0231761203034466
  Basis Set: 6-31G*
  Basis Set:
  Basis Set: 6-31G*
  Basis Set:
  @DF-RHF Final Energy:  -501.02317729576794
    Total Energy =                       -501.0231772957681642
  Basis Set: 6-31G*
  Basis Set:
  Charge       = 0
  Multiplicity = 1
  Basis Set: 6-31G*
  Basis Set:

    Orbital Energies (a.u.)
    -----------------------

    Doubly Occupied:

       1A    -20.585563     2A    -20.556517     3A    -11.374760
       4A    -11.292721     5A    -11.239668     6A    -11.222373
       7A    -11.220463     8A    -11.218108     9A    -11.217268
      10A    -11.216245    11A    -11.210256    12A     -1.458226
      13A     -1.367334    14A     -1.100108    15A     -1.067261
      16A     -1.015059    17A     -0.976249    18A     -0.939210
      19A     -0.867140    20A     -0.803001    21A     -0.793025
      22A     -0.762153    23A     -0.699853    24A     -0.677661
      25A     -0.673005    26A     -0.652817    27A     -0.628547
      28A     -0.618542    29A     -0.599993    30A     -0.587959
      31A     -0.565861    32A     -0.556701    33A     -0.539381
      34A     -0.532673    35A     -0.519816    36A     -0.501761
      37A     -0.492605    38A     -0.482238    39A     -0.473474
      40A     -0.466578    41A     -0.464073    42A     -0.451096
      43A     -0.442962    44A     -0.432413

  @DF-RHF Final Energy:  -501.02317724541024

   => Energetics <=

    Nuclear Repulsion Energy =            611.6461513195982889
    One-Electron Energy =               -1894.2132216439708827
    Two-Electron Energy =                 781.5438930789623555
    DFT Exchange-Correlation Energy =       0.0000000000000000
    Empirical Dispersion Energy =           0.0000000000000000
    PCM Polarization Energy =               0.0000000000000000
    EFP Energy =                            0.0000000000000000
    Total Energy =                       -501.0231772454103520
    Molecular point group: c1
  Basis Set: 6-31G*
  Basis Set:

  -Total Gradient:
     Atom            X                  Y                   Z
    ------   -----------------  -----------------  -----------------
       1       -0.001224620528    -0.000413532476     0.001009705804
       2        0.001967407042     0.000886529904    -0.000902037023
       3       -0.000018910385    -0.000006616393     0.000013226331
       4       -0.001186029957    -0.001008782994    -0.001248667301
       5       -0.000008238446     0.000012150709    -0.000012432514
       6        0.000003664150     0.000000921604    -0.000005098465
       7        0.000008664364    -0.000000959121    -0.000016172357
       8       -0.000006694748     0.000006070553     0.000001811683
       9       -0.000007204063    -0.000003895109    -0.000007618551
      10        0.000006467147    -0.000006235299     0.000008543393
      11        0.000007179861    -0.000011490988    -0.000001173238
      12       -0.000002394063     0.000001001669     0.000003147370
      13        0.000002599443     0.000002991179    -0.000001479217
      14        0.000003501116     0.000000500351    -0.000002877580
      15        0.000005803389    -0.000006303152     0.000003227263
      16        0.000006084041    -0.000006734631    -0.000003126221
      17       -0.000005824658     0.000001428877    -0.000002696603
      18        0.000007767923     0.000005627378    -0.000002486210
      19        0.000001251202    -0.000006650091     0.000005618142
      20       -0.000007764107     0.000003539471    -0.000003412808
      21       -0.000000821518    -0.000004829689     0.000002571282
      22        0.000003626732     0.000003448332    -0.000002305528
      23       -0.000001906093     0.000000292000    -0.000000952854
      24        0.000001346689     0.000002107156     0.000000437958
      25       -0.000000193466    -0.000002198949     0.000000048544
      26        0.000436110625     0.000549650994     0.001177238114
      27       -0.000015478299    -0.000001388489     0.000002454302
      28        0.000006034392     0.000003518374    -0.000009384227
      29        0.000018572217    -0.000000161161    -0.000006109482

  **** Optimization is complete! (in 10 steps) ****
    Final optimized geometry and variables:
    Molecular point group: c1

    Geometry (in Angstrom), charge = 0, multiplicity = 1:

    O           -0.648753800673    -2.026103017066    -2.768911078720
    C            0.104940352828    -2.068743754159    -1.860453105289
    C            0.348316514182    -0.937040118425    -0.889030656639
    O            0.769874530711    -3.208199946909    -1.554232347650
    C           -0.389410743130     0.348943110626    -1.255625542008
    H            0.054356007665    -1.309129377971     0.087913747304
    H            1.419452722710    -0.761185352524    -0.824601362300
    C           -0.085373537057     1.524845591027    -0.321153108943
    H           -1.457228943563     0.155246001675    -1.269663392028
    H           -0.121949935352     0.624129409592    -2.270656369810
    C           -0.582172711149     1.350662145862     1.116893954297
    H           -0.544663785496     2.416311813102    -0.741756526464
    H            0.987164255688     1.714515243864    -0.312411652320
    C           -0.355698495233     2.594165145133     1.979129747331
    H           -1.644421747027     1.112146221659     1.101661354254
    H           -0.085809233460     0.503598654647     1.585096534940
    C           -0.845976361848     2.430664055639     3.418923396917
    H           -0.859708841310     3.444599636639     1.523180397391
    H            0.705433905325     2.838580348492     1.987348480081
    C           -0.620728090728     3.678573081154     4.271950743317
    H           -1.905705699264     2.184822275249     3.412363946775
    H           -0.339693095010     1.584080304639     3.878008392051
    H           -0.978393196318     3.531744975361     5.286369503786
    H           -1.143586334822     4.536082534775     3.857888029524
    H            0.434536189311     3.931025319709     4.326659492593
    C            2.107310705848    -3.322173107140    -1.987336956455
    H            2.167508499799    -3.242523993465    -3.066307005890
    H            2.445819414395    -4.299744716690    -1.681540362189
    H            2.740422026936    -2.569116921552    -1.530928366733

  Mulliken Charges: (a.u.)
   Center  Symbol    Alpha    Beta     Spin     Total
       1     O     4.25049  4.25049  0.00000 -0.50098
       2     C     2.61330  2.61330  0.00000  0.77341
       3     C     3.21693  3.21693  0.00000 -0.43386
       4     O     4.31531  4.31531  0.00000 -0.63062
       5     C     3.15354  3.15354  0.00000 -0.30707
       6     H     0.39589  0.39589  0.00000  0.20821
       7     H     0.40889  0.40889  0.00000  0.18222
       8     C     3.15654  3.15654  0.00000 -0.31308
       9     H     0.40989  0.40989  0.00000  0.18021
      10     H     0.41093  0.41093  0.00000  0.17814
      11     C     3.15509  3.15509  0.00000 -0.31017
      12     H     0.41761  0.41761  0.00000  0.16479
      13     H     0.42494  0.42494  0.00000  0.15013
      14     C     3.15034  3.15034  0.00000 -0.30069
      15     H     0.42156  0.42156  0.00000  0.15688
      16     H     0.42407  0.42407  0.00000  0.15185
      17     C     3.15154  3.15154  0.00000 -0.30308
      18     H     0.42303  0.42303  0.00000  0.15393
      19     H     0.42435  0.42435  0.00000  0.15130
      20     C     3.23940  3.23940  0.00000 -0.47881
      21     H     0.42231  0.42231  0.00000  0.15537
      22     H     0.42348  0.42348  0.00000  0.15305
      23     H     0.41893  0.41893  0.00000  0.16214
      24     H     0.42139  0.42139  0.00000  0.15723
      25     H     0.42198  0.42198  0.00000  0.15603
      26     C     3.09260  3.09260  0.00000 -0.18520
      27     H     0.41116  0.41116  0.00000  0.17767
      28     H     0.40187  0.40187  0.00000  0.19626
      29     H     0.42263  0.42263  0.00000  0.15475

   Total alpha = 44.00000, Total beta = 44.00000, Total charge = -0.00000
