                              Psi4 1.0.54 Driver

  ==> Input File <==

--------------------------------------------------------------------------
set {
	reference rhf
	basis cc-pvtz
}

set_num_threads( 4 )
memory 2 gb

molecule MOL {
0 1

O	 -2.071633	 -1.227563	 -0.223463
C	 -1.652164	 -0.152425	 0.058082
C	 -0.327811	 0.006324	 0.778296
C	 -2.402515	 1.108629	 -0.298924
C	 -0.536205	 0.505788	 2.213054
H	 0.208001	 -0.936998	 0.791518
H	 0.261961	 0.725739	 0.224717
C	 0.776590	 0.696059	 2.967108
H	 -1.163458	 -0.194435	 2.758887
H	 -1.077389	 1.445090	 2.178466
C	 0.574908	 1.204722	 4.390396
H	 1.317042	 -0.246145	 2.993302
H	 1.404010	 1.393378	 2.419724
H	 -0.020539	 0.510616	 4.974086
H	 0.064590	 2.161762	 4.394713
H	 1.523935	 1.333373	 4.897543
H	 -3.240910	 0.874416	 -0.936711
H	 -1.747554	 1.818823	 -0.790984
H	 -2.760419	 1.579708	 0.610998

	symmetry c1
}
set optking {
	frozen_dihedral = ("
		5 3 2 4
	")
}

ee,wfn = optimize('scf', return_wfn=True)
oeprop( wfn, 'DIPOLE', 'QUADRUPOLE', 'MULLIKEN_CHARGES')
f=open( 'psi4out.xyz', 'w' )
f.write( "19  " )
f.write( str(ee) + "\n" )
f.write( MOL.save_string_xyz() )
f.close()
--------------------------------------------------------------------------

    Molecular point group: c1
  Charge       = 0
  Multiplicity = 1
  Basis Set: CC-PVTZ
  Basis Set:
  @DF-RHF Final Energy:  -309.17610856283329
    Total Energy =                       -309.1761085628336332
    Molecular point group: c1
  Basis Set: CC-PVTZ
  Basis Set:
  Basis Set: CC-PVTZ
  Basis Set:
  @DF-RHF Final Energy:  -309.17460889148168
    Total Energy =                       -309.1746088914814550
  Basis Set: CC-PVTZ
  Basis Set:
  Basis Set: CC-PVTZ
  Basis Set:
  @DF-RHF Final Energy:  -309.17679899505197
    Total Energy =                       -309.1767989950521383
  Basis Set: CC-PVTZ
  Basis Set:
  Basis Set: CC-PVTZ
  Basis Set:
  @DF-RHF Final Energy:  -309.17663199793958
    Total Energy =                       -309.1766319979392961
  Basis Set: CC-PVTZ
  Basis Set:
  @DF-RHF Final Energy:  -309.17681368583226
    Total Energy =                       -309.1768136858323714
  @DF-RHF Final Energy:  -309.17685213369793
    Total Energy =                       -309.1768521336979916
  @DF-RHF Final Energy:  -309.17687311099559
    Total Energy =                       -309.1768731109955866
  Basis Set: CC-PVTZ
  Basis Set:
  @DF-RHF Final Energy:  -309.17687583874192
    Total Energy =                       -309.1768758387420348
  Basis Set: CC-PVTZ
  Basis Set:
  Basis Set: CC-PVTZ
  Basis Set:
  @DF-RHF Final Energy:  -309.17687717824333
    Total Energy =                       -309.1768771782432168
  Basis Set: CC-PVTZ
  Basis Set:
  Basis Set: CC-PVTZ
  Basis Set:
  @DF-RHF Final Energy:  -309.17687884167071
    Total Energy =                       -309.1768788416708276
  Basis Set: CC-PVTZ
  Basis Set:
  Charge       = 0
  Multiplicity = 1
  Basis Set: CC-PVTZ
  Basis Set:

    Orbital Energies (a.u.)
    -----------------------

    Doubly Occupied:

       1A    -20.537633     2A    -11.319320     3A    -11.230791
       4A    -11.228179     5A    -11.226193     6A    -11.224435
       7A    -11.214643     8A     -1.397141     9A     -1.094788
      10A     -1.030200    11A     -0.983613    12A     -0.893674
      13A     -0.809505    14A     -0.734506    15A     -0.665611
      16A     -0.648148    17A     -0.627383    18A     -0.615449
      19A     -0.582441    20A     -0.576108    21A     -0.555167
      22A     -0.535586    23A     -0.509298    24A     -0.506774
      25A     -0.485303    26A     -0.477651    27A     -0.473493
      28A     -0.399660

  @DF-RHF Final Energy:  -309.17687929661463

   => Energetics <=

    Nuclear Repulsion Energy =            301.6786123073900399
    One-Electron Energy =               -1016.5455920930893399
    Two-Electron Energy =                 405.6901004890847844
    DFT Exchange-Correlation Energy =       0.0000000000000000
    Empirical Dispersion Energy =           0.0000000000000000
    PCM Polarization Energy =               0.0000000000000000
    EFP Energy =                            0.0000000000000000
    Total Energy =                       -309.1768792966145156
    Molecular point group: c1
  Basis Set: CC-PVTZ
  Basis Set:

  -Total Gradient:
     Atom            X                  Y                   Z
    ------   -----------------  -----------------  -----------------
       1        0.000008565999     0.000029536288     0.000015783853
       2        0.000156071571     0.000093091230    -0.000379990522
       3       -0.000031381635    -0.000310106415     0.000213778847
       4       -0.000094817735    -0.000061958654     0.000218062614
       5       -0.000013477724     0.000215856595    -0.000056721840
       6       -0.000007534745    -0.000001958951    -0.000003367321
       7        0.000006673659    -0.000004912832    -0.000006664952
       8       -0.000005566553     0.000007085299    -0.000016638128
       9       -0.000001084727     0.000000082222     0.000002095845
      10        0.000009615803    -0.000006313821     0.000003517067
      11       -0.000005338380     0.000002543639     0.000011471583
      12       -0.000006631849     0.000006278309     0.000000032285
      13        0.000003214476    -0.000000010218     0.000000740995
      14        0.000000523019     0.000003204999    -0.000001795289
      15        0.000003692575    -0.000004332453    -0.000000590919
      16       -0.000001971990    -0.000002527230    -0.000004443315
      17       -0.000030266998    -0.000013350995    -0.000019498692
      18        0.000023862552     0.000034483643    -0.000019521081
      19       -0.000014147317     0.000013309345     0.000043748970

  **** Optimization is complete! (in 11 steps) ****
    Final optimized geometry and variables:
    Molecular point group: c1

    Geometry (in Angstrom), charge = 0, multiplicity = 1:

    O           -1.068898714236    -1.565822800835    -1.739526269843
    C           -0.812343361119    -0.457761700063    -1.395919678987
    C            0.477199801127    -0.143098216963    -0.663839367680
    C           -1.765372873833     0.684924419890    -1.666666166210
    C            0.261301238003     0.218767355850     0.810000039294
    H            1.108591173536    -1.017661562946    -0.742321941460
    H            0.976481941376     0.680126681394    -1.167302354492
    C            1.575561213644     0.438224918771     1.554271765501
    H           -0.297191926253    -0.577592409581     1.293539525291
    H           -0.344447370545     1.116041594332     0.888947226021
    C            1.374327836805     0.796510663392     3.022644647301
    H            2.181489496851    -0.459804526333     1.481044283128
    H            2.138058477632     1.227536623178     1.063245317075
    H            0.841976166440     0.010625469205     3.547571071321
    H            0.800748595814     1.711324217297     3.128268374403
    H            2.324511583232     0.942961824446     3.522599240277
    H           -2.589793600797     0.333667515176    -2.267863620758
    H           -1.253823620909     1.492899349154    -2.177804310989
    H           -2.147005951272     1.083067255383    -0.733563280447

  Mulliken Charges: (a.u.)
   Center  Symbol    Alpha    Beta     Spin     Total
       1     O     4.17329  4.17329  0.00000 -0.34659
       2     C     2.85827  2.85827  0.00000  0.28347
       3     C     3.09480  3.09480  0.00000 -0.18959
       4     C     3.15962  3.15962  0.00000 -0.31925
       5     C     3.10347  3.10347  0.00000 -0.20693
       6     H     0.43881  0.43881  0.00000  0.12237
       7     H     0.44928  0.44928  0.00000  0.10145
       8     C     3.08508  3.08508  0.00000 -0.17016
       9     H     0.44463  0.44463  0.00000  0.11074
      10     H     0.45167  0.45167  0.00000  0.09667
      11     C     3.14919  3.14919  0.00000 -0.29839
      12     H     0.45000  0.45000  0.00000  0.10001
      13     H     0.45372  0.45372  0.00000  0.09256
      14     H     0.45317  0.45317  0.00000  0.09365
      15     H     0.45526  0.45526  0.00000  0.08949
      16     H     0.44683  0.44683  0.00000  0.10635
      17     H     0.43369  0.43369  0.00000  0.13262
      18     H     0.45020  0.45020  0.00000  0.09960
      19     H     0.44903  0.44903  0.00000  0.10195

   Total alpha = 28.00000, Total beta = 28.00000, Total charge = -0.00000

*** Psi4 exiting successfully. Buy a developer a beer!
