  ==> Input File <==

--------------------------------------------------------------------------
set {
	reference rhf
	basis cc-pvtz
}

set_num_threads( 4 )
memory 2 gb

molecule MOL {
0 1

H	 0.550589	 2.415857	 1.136798
C	 0.961040	 1.511678	 0.666876
C	 0.062554	 0.862911	 -0.350953
O	 2.036285	 1.124237	 0.968360
C	 -1.339253	 0.577611	 0.196911
H	 0.541167	 -0.040056	 -0.707426
H	 -0.013956	 1.554945	 -1.186602
C	 -1.813142	 -0.849710	 -0.061612
H	 -2.032833	 1.276441	 -0.256032
H	 -1.357249	 0.782269	 1.263793
H	 -1.839268	 -1.063526	 -1.124230
H	 -2.810118	 -1.001930	 0.334000
H	 -1.159274	 -1.579980	 0.402282

	symmetry c1
}
set optking {
	frozen_dihedral = ("
		6 3 5 9
	")
}

ee = optimize('scf')
oeprop('DIPOLE', 'QUADRUPOLE', 'MULLIKEN_CHARGES')
f=open( 'psi4out.xyz', 'w' )
f.write( "13  " )
f.write( str(ee) + "\n" )
f.write( MOL.save_string_xyz() )
f.close()
--------------------------------------------------------------------------

    Molecular point group: c1
  Charge       = 0
  Multiplicity = 1
  Basis Set: CC-PVTZ
  Basis Set:
  @DF-RHF Final Energy:  -231.06603688415981
    Total Energy =                       -231.0660368841596437
    Molecular point group: c1
  Basis Set: CC-PVTZ
  Basis Set:
  Basis Set: CC-PVTZ
  Basis Set:
  @DF-RHF Final Energy:  -231.06578259463262
    Total Energy =                       -231.0657825946324806
  Basis Set: CC-PVTZ
  Basis Set:
  Basis Set: CC-PVTZ
  Basis Set:
  @DF-RHF Final Energy:  -231.06334447891757
    Total Energy =                       -231.0633444789175712
  Basis Set: CC-PVTZ
  Basis Set:
  Basis Set: CC-PVTZ
  Basis Set:
  @DF-RHF Final Energy:  -231.06637435730531
    Total Energy =                       -231.0663743573055910
  Basis Set: CC-PVTZ
  Basis Set:
  Basis Set: CC-PVTZ
  Basis Set:
  @DF-RHF Final Energy:  -231.06639543442131
    Total Energy =                       -231.0663954344211675
  Basis Set: CC-PVTZ
  Basis Set:
  Basis Set: CC-PVTZ
  Basis Set:
  @DF-RHF Final Energy:  -231.06639680634186
    Total Energy =                       -231.0663968063419418
  Basis Set: CC-PVTZ
  Basis Set:
  Charge       = 0
  Multiplicity = 1
  Basis Set: CC-PVTZ
  Basis Set:

    Orbital Energies (a.u.)
    -----------------------

    Doubly Occupied:

       1A    -20.552027     2A    -11.322064     3A    -11.237329
       4A    -11.234472     5A    -11.221105     6A     -1.407190
       7A     -1.085298     8A     -0.977137     9A     -0.840624
      10A     -0.796010    11A     -0.673877    12A     -0.647317
      13A     -0.634855    14A     -0.586646    15A     -0.558375
      16A     -0.542271    17A     -0.504947    18A     -0.495542
      19A     -0.481235    20A     -0.413349

  @DF-RHF Final Energy:  -231.06639723775098

   => Energetics <=

    Nuclear Repulsion Energy =            171.1685700177335150
    One-Electron Energy =                -652.0465940171307011
    Two-Electron Energy =                 249.8116267616461812
    DFT Exchange-Correlation Energy =       0.0000000000000000
    Empirical Dispersion Energy =           0.0000000000000000
    PCM Polarization Energy =               0.0000000000000000
    EFP Energy =                            0.0000000000000000
    Total Energy =                       -231.0663972377510333
    Molecular point group: c1
  Basis Set: CC-PVTZ
  Basis Set:

  -Total Gradient:
     Atom            X                  Y                   Z
    ------   -----------------  -----------------  -----------------
       1        0.000019395016    -0.000000075548     0.000012387875
       2       -0.000021862244    -0.000005950363    -0.000031008686
       3        0.000846504625    -0.000580448836     0.001615346775
       4        0.000009185727     0.000007556084     0.000044604385
       5        0.000098315598     0.001423409637     0.001165665448
       6       -0.000665549287     0.000249792553    -0.001558557660
       7       -0.000041994790    -0.000000891334     0.000015748800
       8        0.000007742362    -0.000031860069     0.000006631654
       9       -0.000257996290    -0.001088129718    -0.001261009350
      10        0.000005873761     0.000006017560    -0.000013731505
      11       -0.000008534358     0.000016924231     0.000005647595
      12        0.000004116753    -0.000002986936     0.000005719835
      13        0.000004803125     0.000006642739    -0.000007445167

  **** Optimization is complete! (in 7 steps) ****
    Final optimized geometry and variables:
    Molecular point group: c1

    Geometry (in Angstrom), charge = 0, multiplicity = 1:

    H            0.557990820321     1.761856848091     0.873268211391
    C            0.979872787769     0.876225414718     0.379950226174
    C            0.080364315674     0.220124580144    -0.630603331569
    O            2.067221476791     0.505520666616     0.658291999319
    C           -1.337557471783    -0.053085789010    -0.080659144812
    H            0.557734960321    -0.686182091590    -0.977246250604
    H            0.022969305919     0.893063400013    -1.482029578734
    C           -1.803196246668    -1.481772052034    -0.346886084561
    H           -2.044805125203     0.634287831899    -0.528674601469
    H           -1.364930549822     0.132185497872     0.988528991792
    H           -1.821643174383    -1.693462523074    -1.410323450093
    H           -2.801849438332    -1.642694732261     0.041569667893
    H           -1.141416872684    -2.200796256513     0.122526655542

  Mulliken Charges: (a.u.)
   Center  Symbol    Alpha    Beta     Spin     Total
       1     H     0.46511  0.46511  0.00000  0.06977
       2     C     2.90523  2.90523  0.00000  0.18955
       3     C     3.08424  3.08424  0.00000 -0.16849
       4     O     4.16480  4.16480  0.00000 -0.32960
       5     C     3.09341  3.09341  0.00000 -0.18682
       6     H     0.44281  0.44281  0.00000  0.11439
       7     H     0.44650  0.44650  0.00000  0.10700
       8     C     3.14574  3.14574  0.00000 -0.29148
       9     H     0.44848  0.44848  0.00000  0.10304
      10     H     0.45332  0.45332  0.00000  0.09336
      11     H     0.45258  0.45258  0.00000  0.09484
      12     H     0.44751  0.44751  0.00000  0.10498
      13     H     0.45027  0.45027  0.00000  0.09946

   Total alpha = 20.00000, Total beta = 20.00000, Total charge = -0.00000
