  ==> Input File <==

--------------------------------------------------------------------------
set {
	reference rhf
	basis 6-31G*
}

set_num_threads( 1 )
memory 2 gb

molecule MOL {
0 1

O	 -0.495907	 0.104786	 0.667748
C	 0.486307	 0.169203	 0.000779
C	 1.608116	 -0.841643	 0.000302
O	 0.730282	 1.159628	 -0.846064
C	 2.990107	 -0.200498	 -0.000684
H	 1.468623	 -1.481519	 -0.865924
H	 1.469683	 -1.481289	 0.866878
H	 3.129736	 0.423364	 -0.875135
H	 3.757882	 -0.966877	 -0.001197
H	 3.130964	 0.423383	 0.873533
C	 -0.245648	 2.191138	 -0.950698
C	 0.259653	 3.192486	 -1.967696
H	 -0.385159	 2.644332	 0.021278
H	 -1.188248	 1.755427	 -1.252779
H	 1.206866	 3.615626	 -1.653213
H	 -0.457077	 3.999675	 -2.079010
H	 0.399360	 2.721965	 -2.934313

	symmetry c1
}
set optking {
	frozen_dihedral = ("
		2 4 11 13,
		11 4 2 3
	")
}

ee = energy('scf')
oeprop('DIPOLE', 'QUADRUPOLE', 'MULLIKEN_CHARGES')
f=open( 'psi4out.xyz', 'w' )
f.write( "17  " )
f.write( str(ee) + "\n" )
f.write( MOL.save_string_xyz() )
f.close()
--------------------------------------------------------------------------

    Molecular point group: c1

    Geometry (in Angstrom), charge = 0, multiplicity = 1:

       Center              X                  Y                   Z               Mass
    ------------   -----------------  -----------------  -----------------  -----------------
           O         -1.255810847316    -0.738746149812     1.116760190912    15.994914619560
           C         -0.273596847316    -0.674329149812     0.449791190912    12.000000000000
           C          0.848212152684    -1.685175149812     0.449314190912    12.000000000000
           O         -0.029621847316     0.316095850188    -0.397051809088    15.994914619560
           C          2.230203152684    -1.044030149812     0.448328190912    12.000000000000
           H          0.708719152684    -2.325051149812    -0.416911809088     1.007825032070
           H          0.709779152684    -2.324821149812     1.315890190912     1.007825032070
           H          2.369832152684    -0.420168149812    -0.426122809088     1.007825032070
           H          2.997978152684    -1.810409149812     0.447815190912     1.007825032070
           H          2.371060152684    -0.420149149812     1.322545190912     1.007825032070
           C         -1.005551847316     1.347605850188    -0.501685809088    12.000000000000
           C         -0.500250847316     2.348953850188    -1.518683809088    12.000000000000
           H         -1.145062847316     1.800799850188     0.470290190912     1.007825032070
           H         -1.948151847316     0.911894850188    -0.803766809088     1.007825032070
           H          0.446962152684     2.772093850188    -1.204200809088     1.007825032070
           H         -1.216980847316     3.156142850188    -1.629997809088     1.007825032070
           H         -0.360543847316     1.878432850188    -2.485300809088     1.007825032070

  Charge       = 0
  Multiplicity = 1
  Basis Set: 6-31G*
  Basis Set:

    Orbital Energies (a.u.)
    -----------------------

    Doubly Occupied:

       1A    -20.602021     2A    -20.542892     3A    -11.370938
       4A    -11.285285     5A    -11.236767     6A    -11.222993
       7A    -11.221650     8A     -1.467905     9A     -1.361188
      10A     -1.074539    11A     -1.030029    12A     -0.905447
      13A     -0.858880    14A     -0.778139    15A     -0.692171
      16A     -0.677764    17A     -0.673582    18A     -0.624056
      19A     -0.584580    20A     -0.572207    21A     -0.552474
      22A     -0.545525    23A     -0.526107    24A     -0.512442
      25A     -0.504407    26A     -0.492247    27A     -0.452312
      28A     -0.431127

  @DF-RHF Final Energy:  -344.90974605131777

   => Energetics <=

    Nuclear Repulsion Energy =            318.2134823808366377
    One-Electron Energy =               -1100.6471596129858881
    Two-Electron Energy =                 437.5239311808321645
    DFT Exchange-Correlation Energy =       0.0000000000000000
    Empirical Dispersion Energy =           0.0000000000000000
    PCM Polarization Energy =               0.0000000000000000
    EFP Energy =                            0.0000000000000000
    Total Energy =                       -344.9097460513170290

  Mulliken Charges: (a.u.)
   Center  Symbol    Alpha    Beta     Spin     Total
       1     O     4.28730  4.28730  0.00000 -0.57460
       2     C     2.60840  2.60840  0.00000  0.78321
       3     C     3.20218  3.20218  0.00000 -0.40437
       4     O     4.30940  4.30940  0.00000 -0.61880
       5     C     3.24594  3.24594  0.00000 -0.49188
       6     H     0.40189  0.40189  0.00000  0.19622
       7     H     0.39844  0.39844  0.00000  0.20311
       8     H     0.40551  0.40551  0.00000  0.18899
       9     H     0.41492  0.41492  0.00000  0.17016
      10     H     0.41502  0.41502  0.00000  0.16996
      11     C     3.00218  3.00218  0.00000 -0.00437
      12     C     3.24886  3.24886  0.00000 -0.49771
      13     H     0.40989  0.40989  0.00000  0.18021
      14     H     0.41007  0.41007  0.00000  0.17987
      15     H     0.41203  0.41203  0.00000  0.17594
      16     H     0.41601  0.41601  0.00000  0.16797
      17     H     0.41195  0.41195  0.00000  0.17609

   Total alpha = 28.00000, Total beta = 28.00000, Total charge =  0.00000
