  ==> Input File <==

--------------------------------------------------------------------------
set {
	reference rhf
	basis 6-31G*
}

set_num_threads( 1 )
memory 2 gb

molecule MOL {
0 1

H	 -3.420663	 1.227371	 -1.044276
O	 -3.452007	 0.283848	 -0.965577
C	 -3.181085	 -0.079926	 0.364119
C	 -1.765924	 0.277073	 0.805136
H	 -3.327791	 -1.152017	 0.410903
H	 -3.905698	 0.375695	 1.036898
C	 -0.677594	 -0.417312	 -0.014550
H	 -1.637766	 1.358238	 0.744969
H	 -1.659588	 0.017670	 1.857098
C	 0.738335	 -0.034840	 0.421385
H	 -0.814977	 -0.178223	 -1.064632
H	 -0.802730	 -1.495410	 0.071702
C	 1.822265	 -0.738362	 -0.399735
H	 0.853533	 1.043532	 0.342250
H	 0.871597	 -0.279636	 1.474438
C	 2.152487	 -0.065183	 -1.736873
H	 1.523041	 -1.769379	 -0.581846
H	 2.731903	 -0.788110	 0.195159
C	 1.013020	 -0.085303	 -2.757469
H	 3.016067	 -0.564477	 -2.169569
H	 2.457059	 0.963746	 -1.555922
H	 0.678928	 -1.101592	 -2.948980
H	 1.335225	 0.339233	 -3.703403
H	 0.155133	 0.486992	 -2.420316

	symmetry c1
}
set optking {
	frozen_dihedral = ("
		20 16 13 17,
		13 10 7 11,
		11 7 4 3,
		1 2 3 5,
		7 4 3 2
	")
}

ee = energy('scf')
oeprop('DIPOLE', 'QUADRUPOLE', 'MULLIKEN_CHARGES')
f=open( 'psi4out.xyz', 'w' )
f.write( "24  " )
f.write( str(ee) + "\n" )
f.write( MOL.save_string_xyz() )
f.close()
--------------------------------------------------------------------------

    Molecular point group: c1

    Geometry (in Angstrom), charge = 0, multiplicity = 1:

       Center              X                  Y                   Z               Mass
    ------------   -----------------  -----------------  -----------------  -----------------
           H         -2.938761398642     1.319640492527    -0.487189918071     1.007825032070
           O         -2.970105398642     0.376117492527    -0.408490918071    15.994914619560
           C         -2.699183398642     0.012343492527     0.921205081929    12.000000000000
           C         -1.284022398642     0.369342492527     1.362222081929    12.000000000000
           H         -2.845889398642    -1.059747507473     0.967989081929     1.007825032070
           H         -3.423796398642     0.467964492527     1.593984081929     1.007825032070
           C         -0.195692398642    -0.325042507473     0.542536081929    12.000000000000
           H         -1.155864398642     1.450507492527     1.302055081929     1.007825032070
           H         -1.177686398642     0.109939492527     2.414184081929     1.007825032070
           C          1.220236601358     0.057429492527     0.978471081929    12.000000000000
           H         -0.333075398642    -0.085953507473    -0.507545918071     1.007825032070
           H         -0.320828398642    -1.403140507473     0.628788081929     1.007825032070
           C          2.304166601358    -0.646092507473     0.157351081929    12.000000000000
           H          1.335434601358     1.135801492527     0.899336081929     1.007825032070
           H          1.353498601358    -0.187366507473     2.031524081929     1.007825032070
           C          2.634388601358     0.027086492527    -1.179786918071    12.000000000000
           H          2.004942601358    -1.677109507473    -0.024759918071     1.007825032070
           H          3.213804601358    -0.695840507473     0.752245081929     1.007825032070
           C          1.494921601358     0.006966492527    -2.200382918071    12.000000000000
           H          3.497968601358    -0.472207507473    -1.612482918071     1.007825032070
           H          2.938960601358     1.056015492527    -0.998835918071     1.007825032070
           H          1.160829601358    -1.009322507473    -2.391893918071     1.007825032070
           H          1.817126601358     0.431502492527    -3.146316918071     1.007825032070
           H          0.637034601358     0.579261492527    -1.863229918071     1.007825032070

  Charge       = 0
  Multiplicity = 1
  Basis Set: 6-31G*
  Basis Set:

    Orbital Energies (a.u.)
    -----------------------

    Doubly Occupied:

       1A    -20.553690     2A    -11.267300     3A    -11.216333
       4A    -11.213362     5A    -11.212017     6A    -11.210978
       7A    -11.207896     8A    -11.204670     9A     -1.360180
      10A     -1.090123    11A     -1.045091    12A     -0.983647
      13A     -0.919561    14A     -0.848596    15A     -0.799967
      16A     -0.774969    17A     -0.679464    18A     -0.656511
      19A     -0.624252    20A     -0.614696    21A     -0.597262
      22A     -0.587451    23A     -0.554830    24A     -0.534364
      25A     -0.529158    26A     -0.508581    27A     -0.493883
      28A     -0.477713    29A     -0.466302    30A     -0.461225
      31A     -0.454871    32A     -0.437824    33A     -0.417652

  @DF-RHF Final Energy:  -349.23954325544560

   => Energetics <=

    Nuclear Repulsion Energy =            397.4227090081042206
    One-Electron Energy =               -1261.3154988453807164
    Two-Electron Energy =                 514.6532465818303308
    DFT Exchange-Correlation Energy =       0.0000000000000000
    Empirical Dispersion Energy =           0.0000000000000000
    PCM Polarization Energy =               0.0000000000000000
    EFP Energy =                            0.0000000000000000
    Total Energy =                       -349.2395432554461649

  Mulliken Charges: (a.u.)
   Center  Symbol    Alpha    Beta     Spin     Total
       1     H     0.28350  0.28350  0.00000  0.43300
       2     O     4.36824  4.36824  0.00000 -0.73648
       3     C     2.99603  2.99603  0.00000  0.00793
       4     C     3.16830  3.16830  0.00000 -0.33660
       5     H     0.41642  0.41642  0.00000  0.16716
       6     H     0.42835  0.42835  0.00000  0.14331
       7     C     3.15689  3.15689  0.00000 -0.31378
       8     H     0.42909  0.42909  0.00000  0.14183
       9     H     0.42272  0.42272  0.00000  0.15457
      10     C     3.15494  3.15494  0.00000 -0.30989
      11     H     0.40642  0.40642  0.00000  0.18716
      12     H     0.42396  0.42396  0.00000  0.15209
      13     C     3.15554  3.15554  0.00000 -0.31109
      14     H     0.42461  0.42461  0.00000  0.15078
      15     H     0.42228  0.42228  0.00000  0.15544
      16     C     3.15084  3.15084  0.00000 -0.30168
      17     H     0.42305  0.42305  0.00000  0.15390
      18     H     0.42088  0.42088  0.00000  0.15824
      19     C     3.24315  3.24315  0.00000 -0.48630
      20     H     0.42141  0.42141  0.00000  0.15718
      21     H     0.42410  0.42410  0.00000  0.15180
      22     H     0.42024  0.42024  0.00000  0.15952
      23     H     0.41985  0.41985  0.00000  0.16030
      24     H     0.41919  0.41919  0.00000  0.16161

   Total alpha = 33.00000, Total beta = 33.00000, Total charge =  0.00000
