                              Psi4 1.0.54 Driver

  ==> Input File <==

--------------------------------------------------------------------------
set {
	reference rhf
	basis cc-pvtz
}

set_num_threads( 4 )
memory 2 gb

molecule MOL {
0 1

H	 3.889604	 0.356866	 -0.089510
N	 3.091268	 -0.241216	 -0.065538
C	 1.860978	 0.530248	 0.016256
H	 3.192566	 -0.835836	 0.730398
C	 0.644130	 -0.381765	 -0.031064
H	 1.835721	 1.204666	 -0.833114
H	 1.808789	 1.151975	 0.911067
C	 -0.678115	 0.376691	 0.025731
H	 0.693998	 -0.977147	 -0.936845
H	 0.693309	 -1.082142	 0.800523
C	 -1.770817	 -0.248074	 -0.837329
H	 -0.517083	 1.404259	 -0.292275
H	 -1.023615	 0.428524	 1.055690
C	 -3.089099	 0.516674	 -0.782851
H	 -1.427424	 -0.301220	 -1.866673
H	 -1.936359	 -1.273791	 -0.519097
H	 -2.963948	 1.537508	 -1.128502
H	 -3.841915	 0.047289	 -1.405708
H	 -3.476613	 0.557585	 0.229816

	symmetry c1
}
set optking {
	frozen_dihedral = ("
		12 8 5 9
	")
}

ee,wfn = optimize('scf', return_wfn=True)
oeprop( wfn, 'DIPOLE', 'QUADRUPOLE', 'MULLIKEN_CHARGES')
f=open( 'psi4out.xyz', 'w' )
f.write( "19  " )
f.write( str(ee) + "\n" )
f.write( MOL.save_string_xyz() )
f.close()
--------------------------------------------------------------------------

    Molecular point group: c1
  Charge       = 0
  Multiplicity = 1
  Basis Set: CC-PVTZ
  Basis Set:
  @DF-RHF Final Energy:  -251.44473477230329
    Total Energy =                       -251.4447347723033204
    Molecular point group: c1
  Basis Set: CC-PVTZ
  Basis Set:
  Basis Set: CC-PVTZ
  Basis Set:
  @DF-RHF Final Energy:  -251.44496567238519
    Total Energy =                       -251.4449656723851376
  Basis Set: CC-PVTZ
  Basis Set:
  Basis Set: CC-PVTZ
  Basis Set:
  @DF-RHF Final Energy:  -251.44504018602703
    Total Energy =                       -251.4450401860271427
  Basis Set: CC-PVTZ
  Basis Set:
  Basis Set: CC-PVTZ
  Basis Set:
  @DF-RHF Final Energy:  -251.44504267603125
    Total Energy =                       -251.4450426760312212
  Basis Set: CC-PVTZ
  Basis Set:
  Charge       = 0
  Multiplicity = 1
  Basis Set: CC-PVTZ
  Basis Set:

    Orbital Energies (a.u.)
    -----------------------

    Doubly Occupied:

       1A    -15.526541     2A    -11.238568     3A    -11.212111
       4A    -11.210392     5A    -11.207506     6A    -11.205293
       7A     -1.178413     8A     -1.073144     9A     -0.999037
      10A     -0.901200    11A     -0.815298    12A     -0.789819
      13A     -0.663322    14A     -0.639182    15A     -0.622689
      16A     -0.586482    17A     -0.570001    18A     -0.550429
      19A     -0.526349    20A     -0.502296    21A     -0.480319
      22A     -0.466434    23A     -0.454549    24A     -0.452288
      25A     -0.383894

  @DF-RHF Final Energy:  -251.44504327858351

   => Energetics <=

    Nuclear Repulsion Energy =            246.0868253493071052
    One-Electron Energy =                -826.5526250448958763
    Two-Electron Energy =                 329.0207564170054297
    DFT Exchange-Correlation Energy =       0.0000000000000000
    Empirical Dispersion Energy =           0.0000000000000000
    PCM Polarization Energy =               0.0000000000000000
    EFP Energy =                            0.0000000000000000
    Total Energy =                       -251.4450432785833414
    Molecular point group: c1
  Basis Set: CC-PVTZ
  Basis Set:

  -Total Gradient:
     Atom            X                  Y                   Z
    ------   -----------------  -----------------  -----------------
       1        0.000055669798    -0.000008210241     0.000006701372
       2        0.000065115073    -0.000016351550     0.000017432158
       3       -0.000074590364    -0.000017109694    -0.000040222248
       4        0.000018267128    -0.000006989623     0.000000722644
       5        0.002221100588     0.004052628769    -0.001475636985
       6       -0.000027471832    -0.000008506530     0.000022536169
       7       -0.000017026951    -0.000024754899    -0.000026256170
       8       -0.001342185831    -0.002072129885    -0.004062054473
       9       -0.001628648899    -0.002944677925     0.001874019202
      10       -0.000004764167    -0.000002281123     0.000013333425
      11        0.000004239467     0.000008498699     0.000025518149
      12        0.000738849353     0.001020476230     0.003623246443
      13       -0.000008314225    -0.000008583473     0.000010309652
      14       -0.000017488265     0.000014164940    -0.000011020342
      15        0.000006177819    -0.000006744647     0.000040916082
      16        0.000015665707     0.000031982813    -0.000001704365
      17       -0.000004704737    -0.000024042980     0.000013059016
      18       -0.000013678678     0.000013894126    -0.000000938369
      19        0.000013789017    -0.000001263007    -0.000029961359

  **** Optimization is complete! (in 5 steps) ****
    Final optimized geometry and variables:
    Molecular point group: c1

    Geometry (in Angstrom), charge = 0, multiplicity = 1:

    H            3.864257691687     0.237459328279     0.269665042415
    N            3.059060519587    -0.351904037864     0.266334604065
    C            1.834735604508     0.431894828119     0.280130110048
    H            3.117946162423    -0.936199550398     1.074052436068
    C            0.611409914721    -0.466003871449     0.191632768995
    H            1.852893758904     1.093513701872    -0.579384512180
    H            1.746563462222     1.068513849355     1.162073233260
    C           -0.716354310049     0.301662761052     0.244373532188
    H            0.668390574816    -1.068299559337    -0.708680609232
    H            0.641912312443    -1.180493260742     1.011505301897
    C           -1.830088105779    -0.338368029606    -0.577371834419
    H           -0.561555363680     1.329231166594    -0.076501767238
    H           -1.042393096544     0.380468363288     1.278462822842
    C           -3.158775634314     0.401525923715    -0.469160590616
    H           -1.524090722361    -0.382395605195    -1.618728287735
    H           -1.963111083614    -1.368299016223    -0.256860080183
    H           -3.063640815626     1.427576169407    -0.809018322127
    H           -3.924609522429    -0.075627324240    -1.069893314897
    H           -3.511003416107     0.426303194494     0.556730513777

  Mulliken Charges: (a.u.)
   Center  Symbol    Alpha    Beta     Spin     Total
       1     H     0.43027  0.43027  0.00000  0.13946
       2     N     3.68963  3.68963  0.00000 -0.37925
       3     C     3.02635  3.02635  0.00000 -0.05270
       4     H     0.43082  0.43082  0.00000  0.13837
       5     C     3.08381  3.08381  0.00000 -0.16761
       6     H     0.45681  0.45681  0.00000  0.08638
       7     H     0.46739  0.46739  0.00000  0.06522
       8     C     3.09677  3.09677  0.00000 -0.19353
       9     H     0.44943  0.44943  0.00000  0.10114
      10     H     0.45877  0.45877  0.00000  0.08246
      11     C     3.08248  3.08248  0.00000 -0.16496
      12     H     0.45596  0.45596  0.00000  0.08807
      13     H     0.45474  0.45474  0.00000  0.09051
      14     C     3.14990  3.14990  0.00000 -0.29979
      15     H     0.45376  0.45376  0.00000  0.09248
      16     H     0.45373  0.45373  0.00000  0.09253
      17     H     0.45531  0.45531  0.00000  0.08938
      18     H     0.44857  0.44857  0.00000  0.10285
      19     H     0.45550  0.45550  0.00000  0.08900

   Total alpha = 25.00000, Total beta = 25.00000, Total charge =  0.00000

*** Psi4 exiting successfully. Buy a developer a beer!
