                              Psi4 1.0.54 Driver

  ==> Input File <==

--------------------------------------------------------------------------
set {
	reference rhf
	basis cc-pvtz
}

set_num_threads( 4 )
memory 2 gb

molecule MOL {
0 1

H	 -0.000105	 1.988529	 0.748933
O	 -0.000098	 1.879786	 -0.188206
C	 -0.000014	 0.545691	 -0.532416
C	 -1.377230	 -0.066975	 -0.272237
C	 1.155718	 -0.178398	 0.160225
H	 0.178477	 0.477213	 -1.595484
F	 -2.275515	 0.568859	 -0.983334
F	 -1.428394	 -1.333486	 -0.599413
F	 -1.718964	 0.043485	 0.993619
F	 2.289592	 0.368029	 -0.203924
F	 1.204071	 -1.449291	 -0.149946
F	 1.067061	 -0.079057	 1.469289

	symmetry c1
}
set optking {
	frozen_dihedral = ("
		6 3 2 1
	")
}

ee,wfn = optimize('scf', return_wfn=True)
oeprop( wfn, 'DIPOLE', 'QUADRUPOLE', 'MULLIKEN_CHARGES')
f=open( 'psi4out.xyz', 'w' )
f.write( "12  " )
f.write( str(ee) + "\n" )
f.write( MOL.save_string_xyz() )
f.close()
--------------------------------------------------------------------------

    Molecular point group: c1
  Charge       = 0
  Multiplicity = 1
  Basis Set: CC-PVTZ
  Basis Set:
  @DF-RHF Final Energy:  -786.58928937952828
    Total Energy =                       -786.5892893795282816
    Molecular point group: c1
  Basis Set: CC-PVTZ
  Basis Set:
  Basis Set: CC-PVTZ
  Basis Set:
  @DF-RHF Final Energy:  -786.58931031695943
    Total Energy =                       -786.5893103169594269
  Basis Set: CC-PVTZ
  Basis Set:
  Basis Set: CC-PVTZ
  Basis Set:
  @DF-RHF Final Energy:  -786.58932114712138
    Total Energy =                       -786.5893211471208133
  Basis Set: CC-PVTZ
  Basis Set:
  Charge       = 0
  Multiplicity = 1
  Basis Set: CC-PVTZ
  Basis Set:

    Orbital Energies (a.u.)
    -----------------------

    Doubly Occupied:

       1A    -26.360485     2A    -26.358975     3A    -26.356493
       4A    -26.355677     5A    -26.355490     6A    -26.352161
       7A    -20.609805     8A    -11.521624     9A    -11.518041
      10A    -11.351609    11A     -1.772556    12A     -1.766018
      13A     -1.668454    14A     -1.664261    15A     -1.662442
      16A     -1.660214    17A     -1.439709    18A     -1.103245
      19A     -1.002002    20A     -0.945346    21A     -0.871284
      22A     -0.869056    23A     -0.859751    24A     -0.852017
      25A     -0.839849    26A     -0.821759    27A     -0.749829
      28A     -0.734834    29A     -0.730804    30A     -0.725504
      31A     -0.696488    32A     -0.692467    33A     -0.690371
      34A     -0.681339    35A     -0.677317    36A     -0.669817
      37A     -0.663041    38A     -0.657984    39A     -0.625228
      40A     -0.553915    41A     -0.510192

  @DF-RHF Final Energy:  -786.58932196313981

   => Energetics <=

    Nuclear Repulsion Energy =            670.8575637382855348
    One-Electron Energy =               -2428.8988611422437316
    Two-Electron Energy =                 971.4519754408182735
    DFT Exchange-Correlation Energy =       0.0000000000000000
    Empirical Dispersion Energy =           0.0000000000000000
    PCM Polarization Energy =               0.0000000000000000
    EFP Energy =                            0.0000000000000000
    Total Energy =                       -786.5893219631399234
    Molecular point group: c1
  Basis Set: CC-PVTZ
  Basis Set:

  -Total Gradient:
     Atom            X                  Y                   Z
    ------   -----------------  -----------------  -----------------
       1        0.001326432490    -0.000031856450    -0.000033851207
       2       -0.001385541307     0.000028827478     0.000075344968
       3       -0.001085318308     0.000101577581    -0.000240410478
       4       -0.000055249341    -0.000160877781    -0.000024505733
       5        0.000020083227     0.000064384721     0.000102916548
       6        0.001160727612    -0.000064671458     0.000170756797
       7        0.000041393313     0.000065919142    -0.000009710374
       8        0.000024749756     0.000012613457     0.000004682113
       9        0.000041263749     0.000039629601     0.000043120631
      10       -0.000062475957     0.000009895174    -0.000022609446
      11       -0.000020571721    -0.000093567094    -0.000072053426
      12       -0.000005493517     0.000028125633     0.000006319603

  **** Optimization is complete! (in 4 steps) ****
    Final optimized geometry and variables:
    Molecular point group: c1

    Geometry (in Angstrom), charge = 0, multiplicity = 1:

    H            0.159574801160     1.983107693195     0.760501047283
    O            0.140142020298     1.876162323741    -0.176490028133
    C            0.108538910777     0.543038252299    -0.524256183050
    C           -1.272315824453    -0.045464924200    -0.230541656567
    C            1.267535574509    -0.204595695513     0.137043568387
    H            0.265893078579     0.473058274957    -1.590666854575
    F           -2.180602163228     0.634454079772    -0.885121258026
    F           -1.364408483156    -1.298483368321    -0.601219276496
    F           -1.563279859761     0.025715702795     1.049921333936
    F            2.402825186667     0.296294417301    -0.284922343060
    F            1.262412827651    -1.482695838429    -0.142239806948
    F            1.236958289453    -0.070190206619     1.446401703271

  Mulliken Charges: (a.u.)
   Center  Symbol    Alpha    Beta     Spin     Total
       1     H     0.38128  0.38128  0.00000  0.23743
       2     O     4.18999  4.18999  0.00000 -0.37997
       3     C     3.00459  3.00459  0.00000 -0.00917
       4     C     2.68475  2.68475  0.00000  0.63050
       5     C     2.68589  2.68589  0.00000  0.62822
       6     H     0.42476  0.42476  0.00000  0.15049
       7     F     4.60176  4.60176  0.00000 -0.20352
       8     F     4.60338  4.60338  0.00000 -0.20676
       9     F     4.60945  4.60945  0.00000 -0.21889
      10     F     4.60225  4.60225  0.00000 -0.20449
      11     F     4.60123  4.60123  0.00000 -0.20246
      12     F     4.61069  4.61069  0.00000 -0.22138

   Total alpha = 41.00000, Total beta = 41.00000, Total charge =  0.00000

*** Psi4 exiting successfully. Buy a developer a beer!
