  ==> Input File <==

--------------------------------------------------------------------------
set {
	reference rhf
	basis 6-31G*
}

set_num_threads( 4 )
memory 2 gb

molecule MOL {
0 1

H	 -2.499100	 -0.730091	 -0.745082
O	 -2.347518	 -0.290803	 0.079804
C	 -1.184022	 0.487508	 -0.006784
C	 0.062599	 -0.378592	 0.031606
H	 -1.176523	 1.099369	 -0.904519
H	 -1.187323	 1.153111	 0.844927
O	 1.171356	 0.464000	 0.053508
H	 0.093237	 -1.030051	 -0.843975
H	 0.036556	 -1.017509	 0.912339
C	 2.396064	 -0.195092	 0.123015
H	 2.548229	 -0.843738	 -0.737644
H	 3.171951	 0.557728	 0.135825
H	 2.472651	 -0.796615	 1.026395

	symmetry c1
}
set optking {
	frozen_dihedral = ("
		8 4 3 5
	")
}

ee = optimize('scf')
oeprop('DIPOLE', 'QUADRUPOLE', 'MULLIKEN_CHARGES')
f=open( 'psi4out.xyz', 'w' )
f.write( "13  " )
f.write( str(ee) + "\n" )
f.write( MOL.save_string_xyz() )
f.close()
--------------------------------------------------------------------------

    Molecular point group: c1
  Charge       = 0
  Multiplicity = 1
  Basis Set: 6-31G*
  Basis Set:
  @DF-RHF Final Energy:  -267.95052954596031
    Total Energy =                       -267.9505295459601939
    Molecular point group: c1
  Basis Set: 6-31G*
  Basis Set:
  Basis Set: 6-31G*
  Basis Set:
  @DF-RHF Final Energy:  -267.95054613435718
    Total Energy =                       -267.9505461343570687
  Basis Set: 6-31G*
  Basis Set:
  Charge       = 0
  Multiplicity = 1
  Basis Set: 6-31G*
  Basis Set:

    Orbital Energies (a.u.)
    -----------------------

    Doubly Occupied:

       1A    -20.562145     2A    -20.559988     3A    -11.270764
       4A    -11.270153     5A    -11.269054     6A     -1.388518
       7A     -1.364960     8A     -1.018514     9A     -0.913129
      10A     -0.841726    11A     -0.709679    12A     -0.673520
      13A     -0.660710    14A     -0.638156    15A     -0.593817
      16A     -0.569926    17A     -0.546084    18A     -0.489076
      19A     -0.481928    20A     -0.438423    21A     -0.422134

  @DF-RHF Final Energy:  -267.95055149658879

   => Energetics <=

    Nuclear Repulsion Energy =            190.2267095103219674
    One-Electron Energy =                -742.9897088489137786
    Two-Electron Energy =                 284.8124478420032801
    DFT Exchange-Correlation Energy =       0.0000000000000000
    Empirical Dispersion Energy =           0.0000000000000000
    PCM Polarization Energy =               0.0000000000000000
    EFP Energy =                            0.0000000000000000
    Total Energy =                       -267.9505514965885595
    Molecular point group: c1
  Basis Set: 6-31G*
  Basis Set:

  -Total Gradient:
     Atom            X                  Y                   Z
    ------   -----------------  -----------------  -----------------
       1        0.000022551177     0.000016808973     0.000006055699
       2        0.000081009511     0.000105139512     0.000027929713
       3        0.000721612149     0.001047726447     0.000517939027
       4       -0.000720404580    -0.001002071362     0.000603918558
       5       -0.000543291295    -0.000781686993    -0.000600586755
       6       -0.000020500160    -0.000044377591     0.000023579553
       7       -0.000105938606    -0.000123932370    -0.000004027606
       8        0.000551408374     0.000753527645    -0.000631556992
       9       -0.000000930484     0.000009222817     0.000043734870
      10        0.000037744659     0.000012811186     0.000028106539
      11       -0.000019648704     0.000008344473    -0.000007066916
      12       -0.000002237868    -0.000000316714    -0.000005668817
      13       -0.000001374171    -0.000001196023    -0.000002356874

  **** Optimization is complete! (in 3 steps) ****
    Final optimized geometry and variables:
    Molecular point group: c1

    Geometry (in Angstrom), charge = 0, multiplicity = 1:

    H           -2.495501839281    -0.724154272160    -0.808851109238
    O           -2.347839919455    -0.292901768260     0.020904118704
    C           -1.183058249089     0.486080575667    -0.051804157744
    C            0.062587568966    -0.380989460514    -0.004402158884
    H           -1.172198388054     1.096404606114    -0.950508203869
    H           -1.192606599612     1.148372880193     0.802125636249
    O            1.171556002764     0.462663370308     0.011686605075
    H            0.098991580216    -1.035558390003    -0.877389922316
    H            0.034188704245    -1.010794788176     0.882459516273
    C            2.397028024984    -0.196075924420     0.070932138816
    H            2.543254620155    -0.841624943058    -0.793090056832
    H            3.172692593236     0.557067703516     0.080892645045
    H            2.479909085025    -0.800612077136     0.971785215790

  Mulliken Charges: (a.u.)
   Center  Symbol    Alpha    Beta     Spin     Total
       1     H     0.28134  0.28134  0.00000  0.43733
       2     O     4.37098  4.37098  0.00000 -0.74196
       3     C     3.00460  3.00460  0.00000 -0.00920
       4     C     2.99685  2.99685  0.00000  0.00631
       5     H     0.42289  0.42289  0.00000  0.15422
       6     H     0.40772  0.40772  0.00000  0.18457
       7     O     4.30764  4.30764  0.00000 -0.61528
       8     H     0.43749  0.43749  0.00000  0.12501
       9     H     0.42272  0.42272  0.00000  0.15456
      10     C     3.07993  3.07993  0.00000 -0.15985
      11     H     0.42939  0.42939  0.00000  0.14121
      12     H     0.41072  0.41072  0.00000  0.17855
      13     H     0.42773  0.42773  0.00000  0.14454

   Total alpha = 21.00000, Total beta = 21.00000, Total charge = -0.00000
