  ==> Input File <==

--------------------------------------------------------------------------
set {
	reference rhf
	basis 6-31G*
}

set_num_threads( 1 )
memory 2 gb

molecule MOL {
0 1

O	 -2.042549	 -1.228399	 -0.269030
C	 -1.653912	 -0.146171	 0.050137
C	 -0.332303	 0.024011	 0.778412
C	 -2.438579	 1.106236	 -0.272369
C	 0.845713	 -0.001731	 -0.208243
H	 -0.323783	 0.953829	 1.340327
H	 -0.235459	 -0.796807	 1.480410
C	 1.928909	 -1.003708	 0.193948
H	 1.285658	 0.991286	 -0.282064
H	 0.465327	 -0.247652	 -1.195142
C	 3.097413	 -1.037856	 -0.790247
H	 2.298895	 -0.757174	 1.186801
H	 1.489021	 -1.995458	 0.268106
H	 3.580049	 -0.067217	 -0.860780
H	 2.762771	 -1.313669	 -1.785930
H	 3.848007	 -1.758558	 -0.481666
H	 -3.277823	 0.863061	 -0.908988
H	 -1.806773	 1.843019	 -0.759671
H	 -2.802853	 1.554979	 0.648059

	symmetry c1
}
set optking {
	frozen_dihedral = ("
		11 8 5 9,
		5 3 2 4
	")
}

ee = energy('scf')
oeprop('DIPOLE', 'QUADRUPOLE', 'MULLIKEN_CHARGES')
f=open( 'psi4out.xyz', 'w' )
f.write( "19  " )
f.write( str(ee) + "\n" )
f.write( MOL.save_string_xyz() )
f.close()
--------------------------------------------------------------------------

    Molecular point group: c1

    Geometry (in Angstrom), charge = 0, multiplicity = 1:

       Center              X                  Y                   Z               Mass
    ------------   -----------------  -----------------  -----------------  -----------------
           O         -1.962984886239    -0.897744258803    -0.182661089719    15.994914619560
           C         -1.574347886239     0.184483741197     0.136505910281    12.000000000000
           C         -0.252738886239     0.354665741197     0.864780910281    12.000000000000
           C         -2.359014886239     1.436890741197    -0.186000089719    12.000000000000
           C          0.925277113761     0.328923741197    -0.121874089719    12.000000000000
           H         -0.244218886239     1.284483741197     1.426695910281     1.007825032070
           H         -0.155894886239    -0.466152258803     1.566778910281     1.007825032070
           C          2.008473113761    -0.673053258803     0.280316910281    12.000000000000
           H          1.365222113761     1.321940741197    -0.195695089719     1.007825032070
           H          0.544891113761     0.083002741197    -1.108773089719     1.007825032070
           C          3.176977113761    -0.707201258803    -0.703878089719    12.000000000000
           H          2.378459113761    -0.426519258803     1.273169910281     1.007825032070
           H          1.568585113761    -1.664803258803     0.354474910281     1.007825032070
           H          3.659613113761     0.263437741197    -0.774411089719     1.007825032070
           H          2.842335113761    -0.983014258803    -1.699561089719     1.007825032070
           H          3.927571113761    -1.427903258803    -0.395297089719     1.007825032070
           H         -3.198258886239     1.193715741197    -0.822619089719     1.007825032070
           H         -1.727208886239     2.173673741197    -0.673302089719     1.007825032070
           H         -2.723288886239     1.885633741197     0.734427910281     1.007825032070

  Charge       = 0
  Multiplicity = 1
  Basis Set: 6-31G*
  Basis Set:

    Orbital Energies (a.u.)
    -----------------------

    Doubly Occupied:

       1A    -20.546868     2A    -11.324719     3A    -11.229375
       4A    -11.228443     5A    -11.227725     6A    -11.222272
       7A    -11.212408     8A     -1.393089     9A     -1.090313
      10A     -1.028412    11A     -0.982980    12A     -0.888320
      13A     -0.806590    14A     -0.734510    15A     -0.663238
      16A     -0.638736    17A     -0.624006    18A     -0.611365
      19A     -0.581728    20A     -0.574924    21A     -0.553761
      22A     -0.527867    23A     -0.525191    24A     -0.495143
      25A     -0.478487    26A     -0.469977    27A     -0.466112
      28A     -0.396781

  @DF-RHF Final Energy:  -309.05966367998610

   => Energetics <=

    Nuclear Repulsion Energy =            302.8917042498638921
    One-Electron Energy =               -1018.8562305553068654
    Two-Electron Energy =                 406.9048626254567580
    DFT Exchange-Correlation Energy =       0.0000000000000000
    Empirical Dispersion Energy =           0.0000000000000000
    PCM Polarization Energy =               0.0000000000000000
    EFP Energy =                            0.0000000000000000
    Total Energy =                       -309.0596636799862154

  Mulliken Charges: (a.u.)
   Center  Symbol    Alpha    Beta     Spin     Total
       1     O     4.26241  4.26241  0.00000 -0.52482
       2     C     2.74167  2.74167  0.00000  0.51666
       3     C     3.20167  3.20167  0.00000 -0.40333
       4     C     3.28954  3.28954  0.00000 -0.57909
       5     C     3.15869  3.15869  0.00000 -0.31738
       6     H     0.41458  0.41458  0.00000  0.17085
       7     H     0.39893  0.39893  0.00000  0.20214
       8     C     3.15466  3.15466  0.00000 -0.30932
       9     H     0.41881  0.41881  0.00000  0.16238
      10     H     0.41043  0.41043  0.00000  0.17913
      11     C     3.24142  3.24142  0.00000 -0.48284
      12     H     0.42167  0.42167  0.00000  0.15665
      13     H     0.41364  0.41364  0.00000  0.17273
      14     H     0.42215  0.42215  0.00000  0.15570
      15     H     0.41894  0.41894  0.00000  0.16213
      16     H     0.41735  0.41735  0.00000  0.16530
      17     H     0.39716  0.39716  0.00000  0.20568
      18     H     0.40972  0.40972  0.00000  0.18055
      19     H     0.40656  0.40656  0.00000  0.18687

   Total alpha = 28.00000, Total beta = 28.00000, Total charge =  0.00000
