  ==> Input File <==

--------------------------------------------------------------------------
set {
	reference rhf
	basis 6-31G*
}

set_num_threads( 4 )
memory 2 gb

molecule MOL {
0 1

O	 -2.723086	 0.159885	 0.153516
C	 -1.999293	 -0.489911	 0.845124
C	 -0.763536	 -1.157690	 0.267819
C	 -2.253926	 -0.654709	 2.326805
C	 0.379448	 -0.143569	 0.099626
H	 -1.031858	 -1.564455	 -0.701124
H	 -0.441201	 -1.978695	 0.901914
C	 1.631333	 -0.777471	 -0.511575
H	 0.021243	 0.669685	 -0.521414
H	 0.632161	 0.287471	 1.067143
C	 2.915987	 -0.544314	 0.291766
H	 1.766672	 -0.399098	 -1.523130
H	 1.471257	 -1.849544	 -0.605828
C	 3.373361	 0.914346	 0.347591
H	 3.708709	 -1.142521	 -0.150311
H	 2.780642	 -0.921148	 1.303579
H	 3.506512	 1.320010	 -0.651625
H	 4.322697	 0.999599	 0.867103
H	 2.660624	 1.545032	 0.868198
H	 -2.489605	 -1.693317	 2.543632
H	 -3.079976	 -0.027833	 2.632506
H	 -1.366626	 -0.401522	 2.899867

	symmetry c1
}
set optking {
	frozen_dihedral = ("
		3 5 8 12
	")
}

ee = optimize('scf')
oeprop('DIPOLE', 'QUADRUPOLE', 'MULLIKEN_CHARGES')
f=open( 'psi4out.xyz', 'w' )
f.write( "22  " )
f.write( str(ee) + "\n" )
f.write( MOL.save_string_xyz() )
f.close()
--------------------------------------------------------------------------

    Molecular point group: c1
  Charge       = 0
  Multiplicity = 1
  Basis Set: 6-31G*
  Basis Set:
  @DF-RHF Final Energy:  -348.09309015525798
    Total Energy =                       -348.0930901552583805
    Molecular point group: c1
  Basis Set: 6-31G*
  Basis Set:
  Basis Set: 6-31G*
  Basis Set:
  @DF-RHF Final Energy:  -348.09330461281002
    Total Energy =                       -348.0933046128103570
  Basis Set: 6-31G*
  Basis Set:
  Basis Set: 6-31G*
  Basis Set:
  @DF-RHF Final Energy:  -348.09197126450408
    Total Energy =                       -348.0919712645039681
  Basis Set: 6-31G*
  Basis Set:
  Basis Set: 6-31G*
  Basis Set:
  @DF-RHF Final Energy:  -348.09342749321934
    Total Energy =                       -348.0934274932192807
  Basis Set: 6-31G*
  Basis Set:
  @DF-RHF Final Energy:  -348.09281015551244
    Total Energy =                       -348.0928101555120406
  @DF-RHF Final Energy:  -348.09344621899413
    Total Energy =                       -348.0934462189944725
  @DF-RHF Final Energy:  -348.09195929127083
    Total Energy =                       -348.0919592912709390
  @DF-RHF Final Energy:  -348.09331977427382
    Total Energy =                       -348.0933197742739367
  Basis Set: 6-31G*
  Basis Set:
  @DF-RHF Final Energy:  -348.09346922216469
    Total Energy =                       -348.0934692221649129
  Basis Set: 6-31G*
  Basis Set:
  Basis Set: 6-31G*
  Basis Set:
  @DF-RHF Final Energy:  -348.09346915579334
    Total Energy =                       -348.0934691557937981
  Basis Set: 6-31G*
  Basis Set:
  Basis Set: 6-31G*
  Basis Set:
  @DF-RHF Final Energy:  -348.09348290764132
    Total Energy =                       -348.0934829076413166
  Basis Set: 6-31G*
  Basis Set:
  Charge       = 0
  Multiplicity = 1
  Basis Set: 6-31G*
  Basis Set:

    Orbital Energies (a.u.)
    -----------------------

    Doubly Occupied:

       1A    -20.547416     2A    -11.324272     3A    -11.229839
       4A    -11.229266     5A    -11.228282     6A    -11.222331
       7A    -11.221692     8A    -11.212890     9A     -1.393093
      10A     -1.094396    11A     -1.044782    12A     -0.999159
      13A     -0.937030    14A     -0.859218    15A     -0.786494
      16A     -0.734603    17A     -0.661920    18A     -0.644637
      19A     -0.626286    20A     -0.615675    21A     -0.597209
      22A     -0.588522    23A     -0.559486    24A     -0.543152
      25A     -0.531779    26A     -0.524686    27A     -0.498122
      28A     -0.488303    29A     -0.467794    30A     -0.465454
      31A     -0.458693    32A     -0.396106

  @DF-RHF Final Energy:  -348.09348293839753

   => Energetics <=

    Nuclear Repulsion Energy =            373.3610299344492205
    One-Electron Energy =               -1211.4438566705312041
    Two-Electron Energy =                 489.9893437976843984
    DFT Exchange-Correlation Energy =       0.0000000000000000
    Empirical Dispersion Energy =           0.0000000000000000
    PCM Polarization Energy =               0.0000000000000000
    EFP Energy =                            0.0000000000000000
    Total Energy =                       -348.0934829383975853
    Molecular point group: c1
  Basis Set: 6-31G*
  Basis Set:

  -Total Gradient:
     Atom            X                  Y                   Z
    ------   -----------------  -----------------  -----------------
       1        0.000004403567     0.000003579024     0.000000139788
       2       -0.000004505060    -0.000001739178     0.000001581591
       3        0.000554789088    -0.000401702874     0.001527878496
       4       -0.000003941396    -0.000003992943    -0.000001624412
       5       -0.000456075355     0.000967338721    -0.001905431194
       6        0.000004860392     0.000004180164    -0.000001482807
       7        0.000000538626    -0.000003027662    -0.000001354654
       8       -0.001371657831    -0.002258853259    -0.000488815451
       9       -0.000002247823     0.000001012680     0.000000875854
      10       -0.000009622304    -0.000005833281     0.000001017280
      11       -0.000014947386    -0.000003139988     0.000023012346
      12        0.001286431195     0.001697603691     0.000852100754
      13       -0.000003019102     0.000000689427     0.000004016144
      14        0.000008745429     0.000000943654    -0.000011861790
      15       -0.000000842305     0.000012593762    -0.000000751840
      16        0.000002174588    -0.000014444824     0.000002419738
      17       -0.000001040826     0.000007015024    -0.000000063712
      18        0.000000482812     0.000001578264    -0.000002438398
      19        0.000001441141    -0.000006708388     0.000000554819
      20        0.000001510971     0.000000163761     0.000002490794
      21        0.000000950131     0.000000955554    -0.000000574680
      22        0.000001571448     0.000001788672    -0.000001688665

  **** Optimization is complete! (in 12 steps) ****
    Final optimized geometry and variables:
    Molecular point group: c1

    Geometry (in Angstrom), charge = 0, multiplicity = 1:

    O           -2.797815744476     0.507178609651    -0.319115070889
    C           -2.079130644688    -0.158015233020     0.363052673567
    C           -0.850530786258    -0.830178981285    -0.224339911970
    C           -2.337255888172    -0.345209424357     1.841675977557
    C            0.307459274590     0.170955743888    -0.371332633699
    H           -1.122182855344    -1.218809108443    -1.199968092852
    H           -0.536358776053    -1.664343522461     0.396658785983
    C            1.570026150529    -0.464767615170    -0.995978600674
    H           -0.036053312740     1.010251575323    -0.964821342209
    H            0.547184648283     0.570223483183     0.611551606776
    C            2.854998962717    -0.226061896184    -0.193806585008
    H            1.717840930111    -0.070826647064    -1.998099031772
    H            1.423721277031    -1.535757669731    -1.104831055697
    C            3.303131593889     1.235960858369    -0.167850934520
    H            3.651405983421    -0.829459467728    -0.622130539821
    H            2.715850405630    -0.583726873482     0.824740149887
    H            3.491146487322     1.601186189639    -1.173652719943
    H            4.219477061891     1.351911389540     0.402485105506
    H            2.554619453666     1.881284353441     0.281441180043
    H           -2.585009375112    -1.384616497339     2.040393987731
    H           -3.156636756974     0.285610161008     2.157006903138
    H           -1.448059633875    -0.111937573729     2.420198122292

  Mulliken Charges: (a.u.)
   Center  Symbol    Alpha    Beta     Spin     Total
       1     O     4.26231  4.26231  0.00000 -0.52462
       2     C     2.73768  2.73768  0.00000  0.52464
       3     C     3.20196  3.20196  0.00000 -0.40392
       4     C     3.28962  3.28962  0.00000 -0.57924
       5     C     3.16515  3.16515  0.00000 -0.33031
       6     H     0.40077  0.40077  0.00000  0.19846
       7     H     0.41681  0.41681  0.00000  0.16639
       8     C     3.15574  3.15574  0.00000 -0.31148
       9     H     0.40285  0.40285  0.00000  0.19430
      10     H     0.41935  0.41935  0.00000  0.16129
      11     C     3.15483  3.15483  0.00000 -0.30967
      12     H     0.41716  0.41716  0.00000  0.16567
      13     H     0.41810  0.41810  0.00000  0.16380
      14     C     3.24135  3.24135  0.00000 -0.48271
      15     H     0.41990  0.41990  0.00000  0.16020
      16     H     0.42443  0.42443  0.00000  0.15114
      17     H     0.42050  0.42050  0.00000  0.15900
      18     H     0.41825  0.41825  0.00000  0.16350
      19     H     0.41951  0.41951  0.00000  0.16098
      20     H     0.40685  0.40685  0.00000  0.18631
      21     H     0.39703  0.39703  0.00000  0.20593
      22     H     0.40985  0.40985  0.00000  0.18031

   Total alpha = 32.00000, Total beta = 32.00000, Total charge = -0.00000
