  ==> Input File <==

--------------------------------------------------------------------------
set {
	reference rhf
	basis 6-31G*
}

set_num_threads( 4 )
memory 2 gb

molecule MOL {
0 1

H	 -1.318502	 -0.525551	 -1.068634
N	 -1.172117	 -0.314371	 -0.100254
C	 -0.024542	 0.565565	 0.069209
H	 -2.007558	 0.131496	 0.228865
C	 1.271298	 -0.229563	 -0.014192
H	 -0.049409	 1.297310	 -0.731596
H	 -0.046881	 1.125219	 1.006750
H	 1.332152	 -0.753033	 -0.961461
H	 2.134169	 0.422483	 0.080702
H	 1.326077	 -0.968298	 0.781395

	symmetry c1
}
set optking {
	frozen_dihedral = ("
		1 2 3 6
	")
}

ee = optimize('scf')
oeprop('DIPOLE', 'QUADRUPOLE', 'MULLIKEN_CHARGES')
f=open( 'psi4out.xyz', 'w' )
f.write( "10  " )
f.write( str(ee) + "\n" )
f.write( MOL.save_string_xyz() )
f.close()
--------------------------------------------------------------------------

    Molecular point group: c1
  Charge       = 0
  Multiplicity = 1
  Basis Set: 6-31G*
  Basis Set:
  @DF-RHF Final Energy:  -134.24485731288249
    Total Energy =                       -134.2448573128824876
    Molecular point group: c1
  Basis Set: 6-31G*
  Basis Set:
  Basis Set: 6-31G*
  Basis Set:
  @DF-RHF Final Energy:  -134.24660264548879
    Total Energy =                       -134.2466026454887356
  Basis Set: 6-31G*
  Basis Set:
  Basis Set: 6-31G*
  Basis Set:
  @DF-RHF Final Energy:  -134.24690345673716
    Total Energy =                       -134.2469034567370727
  Basis Set: 6-31G*
  Basis Set:
  Basis Set: 6-31G*
  Basis Set:
  @DF-RHF Final Energy:  -134.24690694696838
    Total Energy =                       -134.2469069469683518
  Basis Set: 6-31G*
  Basis Set:
  Charge       = 0
  Multiplicity = 1
  Basis Set: 6-31G*
  Basis Set:

    Orbital Energies (a.u.)
    -----------------------

    Doubly Occupied:

       1A    -15.533674     2A    -11.243011     3A    -11.203310
       4A     -1.176120     5A     -0.986327     6A     -0.821654
       7A     -0.665902     8A     -0.627980     9A     -0.575709
      10A     -0.515936    11A     -0.510296    12A     -0.483526
      13A     -0.383460

  @DF-RHF Final Energy:  -134.24690770349687

   => Energetics <=

    Nuclear Repulsion Energy =             83.2335077355644160
    One-Electron Energy =                -345.5070216196214687
    Two-Electron Energy =                 128.0266061805600941
    DFT Exchange-Correlation Energy =       0.0000000000000000
    Empirical Dispersion Energy =           0.0000000000000000
    PCM Polarization Energy =               0.0000000000000000
    EFP Energy =                            0.0000000000000000
    Total Energy =                       -134.2469077034969303
    Molecular point group: c1
  Basis Set: 6-31G*
  Basis Set:

  -Total Gradient:
     Atom            X                  Y                   Z
    ------   -----------------  -----------------  -----------------
       1       -0.001554375869     0.002062887842    -0.000174906897
       2        0.002308799525    -0.002952056796    -0.000191825921
       3       -0.002018089924     0.002335307514     0.001767803383
       4       -0.000026990847    -0.000005498956     0.000005234325
       5        0.000000442652     0.000037754506     0.000006086858
       6        0.001292455531    -0.001489394512    -0.001417965897
       7        0.000010495301    -0.000003570074     0.000007067984
       8       -0.000010793720     0.000006116507    -0.000000573086
       9        0.000008485699    -0.000001887923    -0.000002386603
      10       -0.000010428348     0.000010341893     0.000001465854

  **** Optimization is complete! (in 5 steps) ****
    Final optimized geometry and variables:
    Molecular point group: c1

    Geometry (in Angstrom), charge = 0, multiplicity = 1:

    H           -1.346153461411    -0.546048832519    -1.011307935814
    N           -1.172215286811    -0.328033629961    -0.048550292086
    C           -0.022353292669     0.561801995630     0.072940018569
    H           -2.001225647363     0.124760928877     0.285584326238
    C            1.275470628823    -0.234795037143     0.017432236358
    H            0.002824990823     1.328465572976    -0.703167667611
    H           -0.091540638083     1.073254620872     1.026793043955
    H            1.363540118406    -0.763232512465    -0.927932745877
    H            2.138544319878     0.417606648063     0.115650693633
    H            1.300526660441    -0.970608104402     0.812908092177

  Mulliken Charges: (a.u.)
   Center  Symbol    Alpha    Beta     Spin     Total
       1     H     0.33477  0.33477  0.00000  0.33047
       2     N     3.91840  3.91840  0.00000 -0.83679
       3     C     3.06732  3.06732  0.00000 -0.13464
       4     H     0.33273  0.33273  0.00000  0.33455
       5     C     3.23169  3.23169  0.00000 -0.46338
       6     H     0.43231  0.43231  0.00000  0.13538
       7     H     0.42049  0.42049  0.00000  0.15902
       8     H     0.42432  0.42432  0.00000  0.15137
       9     H     0.42479  0.42479  0.00000  0.15042
      10     H     0.41320  0.41320  0.00000  0.17359

   Total alpha = 13.00000, Total beta = 13.00000, Total charge =  0.00000
