  ==> Input File <==

--------------------------------------------------------------------------
set {
	reference rhf
	basis 6-31G*
}

set_num_threads( 4 )
memory 2 gb

molecule MOL {
0 1

O	 2.862325	 1.357334	 0.000267
C	 2.843464	 0.164689	 -0.000222
C	 1.546494	 -0.624492	 -0.000609
C	 4.124123	 -0.644674	 -0.000428
C	 0.291004	 0.242674	 0.000989
H	 1.557904	 -1.283758	 -0.867573
H	 1.558622	 -1.285963	 0.864672
C	 -0.994322	 -0.586602	 0.000262
H	 0.309117	 0.896430	 -0.865270
H	 0.309661	 0.894078	 0.869017
C	 -2.259874	 0.272531	 0.000494
H	 -1.004862	 -1.240012	 -0.870939
H	 -1.005220	 -1.241071	 0.870675
C	 -1.973837	 1.771744	 -0.102244
H	 -2.827174	 0.076563	 0.908671
H	 -2.898937	 -0.028715	 -0.827665
C	 -3.242888	 2.623327	 -0.101176
H	 -1.336074	 2.074288	 0.725735
H	 -1.408095	 1.969085	 -1.010457
H	 -3.814381	 2.473942	 0.810541
H	 -3.007680	 3.680689	 -0.174407
H	 -3.886387	 2.368823	 -0.938601
H	 4.165367	 -1.288615	 -0.874074
H	 4.976217	 0.020734	 -0.001915
H	 4.166763	 -1.286207	 0.874930

	symmetry c1
}
set optking {
	frozen_dihedral = ("
		15 11 8 12
	")
}

ee = optimize('scf')
oeprop('DIPOLE', 'QUADRUPOLE', 'MULLIKEN_CHARGES')
f=open( 'psi4out.xyz', 'w' )
f.write( "25  " )
f.write( str(ee) + "\n" )
f.write( MOL.save_string_xyz() )
f.close()
--------------------------------------------------------------------------

    Molecular point group: c1
  Charge       = 0
  Multiplicity = 1
  Basis Set: 6-31G*
  Basis Set:
  @DF-RHF Final Energy:  -387.12184144522217
    Total Energy =                       -387.1218414452216621
    Molecular point group: c1
  Basis Set: 6-31G*
  Basis Set:
  Basis Set: 6-31G*
  Basis Set:
  @DF-RHF Final Energy:  -387.12180753329238
    Total Energy =                       -387.1218075332922126
  Basis Set: 6-31G*
  Basis Set:
  Basis Set: 6-31G*
  Basis Set:
  @DF-RHF Final Energy:  -387.12600992426701
    Total Energy =                       -387.1260099242668957
  Basis Set: 6-31G*
  Basis Set:
  Basis Set: 6-31G*
  Basis Set:
  @DF-RHF Final Energy:  -387.12663160056820
    Total Energy =                       -387.1266316005683166
  Basis Set: 6-31G*
  Basis Set:
  @DF-RHF Final Energy:  -387.12670410132199
    Total Energy =                       -387.1267041013222752
  @DF-RHF Final Energy:  -387.12607545152633
    Total Energy =                       -387.1260754515266171
  @DF-RHF Final Energy:  -387.12672487388068
    Total Energy =                       -387.1267248738812441
  Basis Set: 6-31G*
  Basis Set:
  @DF-RHF Final Energy:  -387.12673135166779
    Total Energy =                       -387.1267313516667627
  Basis Set: 6-31G*
  Basis Set:
  Basis Set: 6-31G*
  Basis Set:
  @DF-RHF Final Energy:  -387.12672565225955
    Total Energy =                       -387.1267256522595517
  Basis Set: 6-31G*
  Basis Set:
  Basis Set: 6-31G*
  Basis Set:
  @DF-RHF Final Energy:  -387.12673382377022
    Total Energy =                       -387.1267338237705644
  Basis Set: 6-31G*
  Basis Set:
  Charge       = 0
  Multiplicity = 1
  Basis Set: 6-31G*
  Basis Set:

    Orbital Energies (a.u.)
    -----------------------

    Doubly Occupied:

       1A    -20.550454     2A    -11.326304     3A    -11.231746
       4A    -11.228337     5A    -11.217537     6A    -11.216445
       7A    -11.214138     8A    -11.212645     9A    -11.206594
      10A     -1.395754    11A     -1.090780    12A     -1.053603
      13A     -1.012660    14A     -0.967019    15A     -0.889187
      16A     -0.835083    17A     -0.767738    18A     -0.730915
      19A     -0.659231    20A     -0.650999    21A     -0.629485
      22A     -0.624738    23A     -0.594562    24A     -0.580238
      25A     -0.569220    26A     -0.560193    27A     -0.552568
      28A     -0.513060    29A     -0.505695    30A     -0.496106
      31A     -0.489455    32A     -0.484559    33A     -0.459615
      34A     -0.448757    35A     -0.443494    36A     -0.399921

  @DF-RHF Final Energy:  -387.12673381490123

   => Energetics <=

    Nuclear Repulsion Energy =            445.7653616574486364
    One-Electron Energy =               -1408.1665260730746922
    Two-Electron Energy =                 575.2744306007249406
    DFT Exchange-Correlation Energy =       0.0000000000000000
    Empirical Dispersion Energy =           0.0000000000000000
    PCM Polarization Energy =               0.0000000000000000
    EFP Energy =                            0.0000000000000000
    Total Energy =                       -387.1267338149010584
    Molecular point group: c1
  Basis Set: 6-31G*
  Basis Set:

  -Total Gradient:
     Atom            X                  Y                   Z
    ------   -----------------  -----------------  -----------------
       1       -0.000001201956     0.000000243698     0.000001958101
       2        0.000000437858     0.000000315958     0.000003109316
       3        0.000000836431     0.000000312336     0.000005890438
       4        0.000000039461    -0.000000595401    -0.000007271924
       5       -0.000000894623    -0.000000021905    -0.000018502716
       6       -0.000001754318     0.000003228125     0.000000974099
       7        0.000001022470    -0.000002248347     0.000001328140
       8        0.001071789528     0.001766687676    -0.001903450020
       9        0.000004063040    -0.000003118363     0.000000469192
      10       -0.000004816187     0.000004503098     0.000000890498
      11        0.001223788490     0.001867981983     0.001709138008
      12       -0.001101745927    -0.001776242426     0.001334369881
      13        0.000001806932    -0.000004446202    -0.000000670699
      14        0.000001702519    -0.000000815918     0.000016438900
      15       -0.001192777009    -0.001851679329    -0.001141169739
      16       -0.000004392161    -0.000002068156    -0.000000050351
      17       -0.000000752036    -0.000000112255    -0.000006394191
      18       -0.000000486874     0.000000904475     0.000000692201
      19        0.000002675633    -0.000001428856    -0.000000689806
      20        0.000002518271     0.000000617371     0.000000038673
      21        0.000000060789    -0.000000766672    -0.000002147302
      22       -0.000001849814    -0.000000824107    -0.000000099448
      23        0.000000943919    -0.000001821450     0.000001794757
      24       -0.000000468202     0.000000037292     0.000001195431
      25       -0.000000546234     0.000001357371     0.000002158563

  **** Optimization is complete! (in 11 steps) ****
    Final optimized geometry and variables:
    Molecular point group: c1

    Geometry (in Angstrom), charge = 0, multiplicity = 1:

    O            2.655094281188     0.747804770494     0.075431612037
    C            2.565862661710    -0.441139429103     0.039462127369
    C            1.224861045143    -1.152410461331     0.009870016817
    C            3.796658431281    -1.324343893364     0.021234067008
    C            0.022781318391    -0.211982103130     0.029440406841
    H            1.203650605997    -1.786643663068    -0.875418612559
    H            1.192705357549    -1.837658866715     0.855934764962
    C           -1.297356755262    -0.988774961491     0.002177673750
    H            0.091854377702     0.461028232901    -0.817058562563
    H            0.079732162932     0.409604602355     0.915981854741
    C           -2.610511893117    -0.157706831650     0.029663499378
    H           -1.307852262135    -1.637786251258    -0.870218122187
    H           -1.304909080584    -1.666857894590     0.852666261322
    C           -2.490192307790     1.362470522136    -0.119380372138
    H           -3.148967733890    -0.376641767832     0.948227018251
    H           -3.259306064084    -0.517444081669    -0.765377580536
    C           -3.856530738076     2.047537437703    -0.086107161750
    H           -1.869230827973     1.771233783821     0.672046995176
    H           -1.994325051071     1.605871423523    -1.055063448135
    H           -4.369507645131     1.855356368774     0.852182945836
    H           -3.758025284188     3.123185387441    -0.194573114292
    H           -4.495172031703     1.691049487381    -0.889555022061
    H            3.805693944696    -1.943463387163    -0.871076106873
    H            4.686430747558    -0.710648000760     0.043770138931
    H            3.795709780287    -1.992912050486     0.877191968513

  Mulliken Charges: (a.u.)
   Center  Symbol    Alpha    Beta     Spin     Total
       1     O     4.26132  4.26132  0.00000 -0.52265
       2     C     2.73543  2.73543  0.00000  0.52914
       3     C     3.21074  3.21074  0.00000 -0.42148
       4     C     3.28671  3.28671  0.00000 -0.57343
       5     C     3.15063  3.15063  0.00000 -0.30127
       6     H     0.41010  0.41010  0.00000  0.17979
       7     H     0.41016  0.41016  0.00000  0.17968
       8     C     3.15826  3.15826  0.00000 -0.31652
       9     H     0.41044  0.41044  0.00000  0.17911
      10     H     0.41124  0.41124  0.00000  0.17752
      11     C     3.15448  3.15448  0.00000 -0.30897
      12     H     0.42276  0.42276  0.00000  0.15447
      13     H     0.42290  0.42290  0.00000  0.15421
      14     C     3.15485  3.15485  0.00000 -0.30971
      15     H     0.42160  0.42160  0.00000  0.15680
      16     H     0.42188  0.42188  0.00000  0.15625
      17     C     3.23955  3.23955  0.00000 -0.47910
      18     H     0.41893  0.41893  0.00000  0.16213
      19     H     0.42092  0.42092  0.00000  0.15817
      20     H     0.42227  0.42227  0.00000  0.15546
      21     H     0.41841  0.41841  0.00000  0.16318
      22     H     0.42250  0.42250  0.00000  0.15500
      23     H     0.40873  0.40873  0.00000  0.18254
      24     H     0.39649  0.39649  0.00000  0.20703
      25     H     0.40870  0.40870  0.00000  0.18261

   Total alpha = 36.00000, Total beta = 36.00000, Total charge = -0.00000
