  ==> Input File <==

--------------------------------------------------------------------------
set {
	reference rhf
	basis 6-31G*
}

set_num_threads( 4 )
memory 2 gb

molecule MOL {
0 1

H	 2.326191	 -0.074934	 0.271260
O	 1.568090	 -0.650976	 0.285049
C	 0.489431	 0.077273	 0.000046
C	 -0.764129	 -0.759190	 0.000191
O	 0.552039	 1.242499	 -0.221074
C	 -2.038368	 0.075731	 -0.000248
H	 -0.717284	 -1.412404	 -0.866059
H	 -0.717458	 -1.411724	 0.866967
H	 -2.086483	 0.712501	 -0.875098
H	 -2.908485	 -0.571682	 -0.000042
H	 -2.086576	 0.713280	 0.874068

	symmetry c1
}
set optking {
	frozen_dihedral = ("
		2 3 4 7
	")
}

ee = optimize('scf')
oeprop('DIPOLE', 'QUADRUPOLE', 'MULLIKEN_CHARGES')
f=open( 'psi4out.xyz', 'w' )
f.write( "11  " )
f.write( str(ee) + "\n" )
f.write( MOL.save_string_xyz() )
f.close()
--------------------------------------------------------------------------

    Molecular point group: c1
  Charge       = 0
  Multiplicity = 1
  Basis Set: 6-31G*
  Basis Set:
  @DF-RHF Final Energy:  -266.84594850307548
    Total Energy =                       -266.8459485030757037
    Molecular point group: c1
  Basis Set: 6-31G*
  Basis Set:
  Basis Set: 6-31G*
  Basis Set:
  @DF-RHF Final Energy:  -266.84595803607613
    Total Energy =                       -266.8459580360761265
  Basis Set: 6-31G*
  Basis Set:
  Basis Set: 6-31G*
  Basis Set:
  @DF-RHF Final Energy:  -266.84586956383913
    Total Energy =                       -266.8458695638389599
  Basis Set: 6-31G*
  Basis Set:
  Basis Set: 6-31G*
  Basis Set:
  @DF-RHF Final Energy:  -266.84601248185777
    Total Energy =                       -266.8460124818575423
  Basis Set: 6-31G*
  Basis Set:
  Charge       = 0
  Multiplicity = 1
  Basis Set: 6-31G*
  Basis Set:

    Orbital Energies (a.u.)
    -----------------------

    Doubly Occupied:

       1A    -20.614055     2A    -20.552556     3A    -11.382192
       4A    -11.244144     5A    -11.220752     6A     -1.475916
       7A     -1.366956     8A     -1.065285     9A     -0.916873
      10A     -0.801808    11A     -0.701980    12A     -0.690682
      13A     -0.661713    14A     -0.596228    15A     -0.593691
      16A     -0.532183    17A     -0.525795    18A     -0.505852
      19A     -0.479638    20A     -0.445772

  @DF-RHF Final Energy:  -266.84601314084000

   => Energetics <=

    Nuclear Repulsion Energy =            179.7743535900823701
    One-Electron Energy =                -720.4925874643214456
    Two-Electron Energy =                 273.8722207333991037
    DFT Exchange-Correlation Energy =       0.0000000000000000
    Empirical Dispersion Energy =           0.0000000000000000
    PCM Polarization Energy =               0.0000000000000000
    EFP Energy =                            0.0000000000000000
    Total Energy =                       -266.8460131408400002
    Molecular point group: c1
  Basis Set: 6-31G*
  Basis Set:

  -Total Gradient:
     Atom            X                  Y                   Z
    ------   -----------------  -----------------  -----------------
       1       -0.000005188474     0.000002264553    -0.000006238390
       2       -0.000063694985     0.000088105454     0.000589300201
       3        0.000013196272    -0.000002737428    -0.000851261915
       4        0.000376302615    -0.000562742293     0.000642233637
       5       -0.000002964866    -0.000020316432     0.000005852653
       6        0.000007914908    -0.000000833680    -0.000001023410
       7       -0.000326040255     0.000488383985    -0.000382758759
       8        0.000002044729     0.000006811668    -0.000004747605
       9        0.000001784056    -0.000003377811    -0.000001398111
      10        0.000000459062    -0.000000079991     0.000005621066
      11       -0.000003813065     0.000004521977     0.000004420632

  **** Optimization is complete! (in 5 steps) ****
    Final optimized geometry and variables:
    Molecular point group: c1

    Geometry (in Angstrom), charge = 0, multiplicity = 1:

    H            2.331926181332    -0.076391520756     0.221226537418
    O            1.573333789144    -0.650742318506     0.260144082584
    C            0.490106183490     0.075372258954    -0.011602583932
    C           -0.762855037308    -0.762561830785    -0.004754693700
    O            0.548664122246     1.239934413478    -0.237815819177
    C           -2.036587985234     0.074200591202    -0.023398016777
    H           -0.712629525305    -1.407499832500    -0.878423073385
    H           -0.724777038534    -1.418250857609     0.858082337714
    H           -2.066667425534     0.715654134362    -0.894914484378
    H           -2.907278778417    -0.572174794056    -0.041402081743
    H           -2.101342047721     0.706511534529     0.854424500676

  Mulliken Charges: (a.u.)
   Center  Symbol    Alpha    Beta     Spin     Total
       1     H     0.26771  0.26771  0.00000  0.46458
       2     O     4.35021  4.35021  0.00000 -0.70043
       3     C     2.62450  2.62450  0.00000  0.75099
       4     C     3.20853  3.20853  0.00000 -0.41706
       5     O     4.27878  4.27878  0.00000 -0.55756
       6     C     3.24022  3.24022  0.00000 -0.48043
       7     H     0.39763  0.39763  0.00000  0.20473
       8     H     0.39832  0.39832  0.00000  0.20336
       9     H     0.40621  0.40621  0.00000  0.18758
      10     H     0.41646  0.41646  0.00000  0.16709
      11     H     0.41143  0.41143  0.00000  0.17715

   Total alpha = 20.00000, Total beta = 20.00000, Total charge = -0.00000
