                              Psi4 1.0.54 Driver

  ==> Input File <==

--------------------------------------------------------------------------
set {
	reference rhf
	basis cc-pvtz
}

set_num_threads( 4 )
memory 2 gb

molecule MOL {
0 1

H	 1.255363	 1.794454	 2.933264
O	 1.863449	 1.706729	 2.221044
C	 1.289328	 1.127518	 1.151707
C	 2.078151	 0.937117	 0.026262
C	 -0.030014	 0.727954	 1.145001
H	 3.101526	 1.255164	 0.052815
C	 1.544651	 0.349369	 -1.097696
H	 -0.661176	 0.862514	 1.998714
C	 -0.532034	 0.141680	 0.000000
H	 2.161802	 0.206265	 -1.962793
C	 0.222109	 -0.060355	 -1.128597
N	 -1.937041	 -0.281114	 0.000000
H	 -0.205548	 -0.517885	 -1.993754
O	 -2.159542	 -1.446261	 0.000000
O	 -2.764978	 0.565773	 0.000000

	symmetry c1
}
set optking {
	frozen_dihedral = ("
		11 9 12 14
	")
}

ee,wfn = optimize('scf', return_wfn=True)
oeprop( wfn, 'DIPOLE', 'QUADRUPOLE', 'MULLIKEN_CHARGES')
f=open( 'psi4out.xyz', 'w' )
f.write( "15  " )
f.write( str(ee) + "\n" )
f.write( MOL.save_string_xyz() )
f.close()
--------------------------------------------------------------------------

    Molecular point group: c1
  Charge       = 0
  Multiplicity = 1
  Basis Set: CC-PVTZ
  Basis Set:
  @DF-RHF Final Energy:  -509.21074936793804
    Total Energy =                       -509.2107493679379786
    Molecular point group: c1
  Basis Set: CC-PVTZ
  Basis Set:
  Basis Set: CC-PVTZ
  Basis Set:
  @DF-RHF Final Energy:  -509.20408120558233
    Total Energy =                       -509.2040812055819288
  Basis Set: CC-PVTZ
  Basis Set:
  Basis Set: CC-PVTZ
  Basis Set:
  @DF-RHF Final Energy:  -509.20978356765926
    Total Energy =                       -509.2097835676593149
  Basis Set: CC-PVTZ
  Basis Set:
  Basis Set: CC-PVTZ
  Basis Set:
  @DF-RHF Final Energy:  -509.21101848524216
    Total Energy =                       -509.2110184852424482
  Basis Set: CC-PVTZ
  Basis Set:
  Basis Set: CC-PVTZ
  Basis Set:
  @DF-RHF Final Energy:  -509.21102858613108
    Total Energy =                       -509.2110285861307375
  Basis Set: CC-PVTZ
  Basis Set:
  Basis Set: CC-PVTZ
  Basis Set:
  @DF-RHF Final Energy:  -509.21116098030785
    Total Energy =                       -509.2111609803080228
  Basis Set: CC-PVTZ
  Basis Set:
  Charge       = 0
  Multiplicity = 1
  Basis Set: CC-PVTZ
  Basis Set:

    Orbital Energies (a.u.)
    -----------------------

    Doubly Occupied:

       1A    -20.610422     2A    -20.600446     3A    -20.599881
       4A    -15.850796     5A    -11.330538     6A    -11.314135
       7A    -11.265116     8A    -11.263927     9A    -11.258109
      10A    -11.250981    11A     -1.647778    12A     -1.443373
      13A     -1.430997    14A     -1.204548    15A     -1.096674
      16A     -1.049928    17A     -0.966869    18A     -0.886681
      19A     -0.833844    20A     -0.793995    21A     -0.767686
      22A     -0.741027    23A     -0.724503    24A     -0.712870
      25A     -0.673082    26A     -0.636219    27A     -0.623699
      28A     -0.596591    29A     -0.565466    30A     -0.550167
      31A     -0.536711    32A     -0.495494    33A     -0.488347
      34A     -0.461114    35A     -0.376732    36A     -0.346487

  @DF-RHF Final Energy:  -509.21116132963624

   => Energetics <=

    Nuclear Repulsion Energy =            504.0214487433864292
    One-Electron Energy =               -1694.4747559540105613
    Two-Electron Energy =                 681.2421458809880050
    DFT Exchange-Correlation Energy =       0.0000000000000000
    Empirical Dispersion Energy =           0.0000000000000000
    PCM Polarization Energy =               0.0000000000000000
    EFP Energy =                            0.0000000000000000
    Total Energy =                       -509.2111613296361838
    Molecular point group: c1
  Basis Set: CC-PVTZ
  Basis Set:

  -Total Gradient:
     Atom            X                  Y                   Z
    ------   -----------------  -----------------  -----------------
       1       -0.000000850095    -0.000003586825    -0.000000773226
       2        0.000018960323     0.000006706190     0.000024614876
       3       -0.000047375164     0.000032090920    -0.000045670366
       4        0.000010616405    -0.000012051912     0.000002602244
       5        0.000018227001    -0.000020745622     0.000034396705
       6       -0.000002343697     0.000000715483     0.000000530528
       7        0.000015857156    -0.000011525894    -0.000001726270
       8        0.000003446549    -0.000001474500    -0.000006165167
       9        0.001368980260    -0.005041433922     0.003239376201
      10       -0.000002115194     0.000007575150    -0.000004235018
      11       -0.000952888856     0.003413797759    -0.001161110536
      12       -0.000436610991     0.001751341694    -0.006325282901
      13        0.000001711801     0.000005158281     0.000004706184
      14        0.000043330980    -0.000183540126     0.004242910503
      15       -0.000038946485     0.000056973328    -0.000004173752

  **** Optimization is complete! (in 7 steps) ****
    Final optimized geometry and variables:
    Molecular point group: c1

    Geometry (in Angstrom), charge = 0, multiplicity = 1:

    H            1.365378037058     1.393204040225     2.669931611485
    O            1.971648159741     1.310947443039     1.955596129666
    C            1.398238721812     0.742797629287     0.882332986399
    C            2.183057197134     0.573189360172    -0.249407002043
    C            0.076912242610     0.341582518317     0.873889482417
    H            3.203340799628     0.900072657496    -0.224133362207
    C            1.646763873459    -0.000948662588    -1.378441539469
    H           -0.558478391698     0.486782977200     1.725915892152
    C           -0.411691124410    -0.251218798512    -0.268576662309
    H            2.258277445621    -0.119650459426    -2.251419512673
    C            0.328738392300    -0.429160621844    -1.405804936358
    N           -1.822354068631    -0.647940354426    -0.277614417715
    H           -0.096964617804    -0.888598249771    -2.274183528301
    O           -2.056947549652    -1.807789106589    -0.316949202454
    O           -2.625907243913     0.220040198027    -0.213431105424

  Mulliken Charges: (a.u.)
   Center  Symbol    Alpha    Beta     Spin     Total
       1     H     0.38452  0.38452  0.00000  0.23095
       2     O     4.16721  4.16721  0.00000 -0.33442
       3     C     2.84176  2.84176  0.00000  0.31648
       4     C     3.10746  3.10746  0.00000 -0.21492
       5     C     3.13965  3.13965  0.00000 -0.27930
       6     H     0.41419  0.41419  0.00000  0.17161
       7     C     3.04934  3.04934  0.00000 -0.09868
       8     H     0.42172  0.42172  0.00000  0.15656
       9     C     2.92117  2.92117  0.00000  0.15766
      10     H     0.41632  0.41632  0.00000  0.16736
      11     C     3.10802  3.10802  0.00000 -0.21605
      12     N     3.28829  3.28829  0.00000  0.42343
      13     H     0.41316  0.41316  0.00000  0.17367
      14     O     4.16273  4.16273  0.00000 -0.32545
      15     O     4.16446  4.16446  0.00000 -0.32891

   Total alpha = 36.00000, Total beta = 36.00000, Total charge =  0.00000

*** Psi4 exiting successfully. Buy a developer a beer!
