  ==> Input File <==

--------------------------------------------------------------------------
set {
	reference rhf
	basis 6-31G*
}

set_num_threads( 4 )
memory 2 gb

molecule MOL {
0 1

H	 -2.698709	 -0.000305	 0.034435
C	 -1.693833	 0.000034	 0.434417
O	 -0.828952	 -0.000968	 -0.659236
H	 -1.574200	 0.882896	 1.055746
H	 -1.574147	 -0.881698	 1.057355
C	 -1.322442	 -0.425131	 -1.908659
C	 -1.742120	 -1.893724	 -1.904184
C	 -2.420314	 0.490744	 -2.446068
H	 -0.461482	 -0.328121	 -2.559327
H	 -0.959755	 -2.507213	 -1.470495
H	 -1.916818	 -2.232811	 -2.920420
H	 -2.657129	 -2.057991	 -1.343881
H	 -2.107682	 1.527664	 -2.386771
H	 -2.623772	 0.255424	 -3.486114
H	 -3.351218	 0.381289	 -1.899005

	symmetry c1
}
set optking {
	frozen_dihedral = ("
		6 3 2 1
	")
}

ee = optimize('scf')
oeprop('DIPOLE', 'QUADRUPOLE', 'MULLIKEN_CHARGES')
f=open( 'psi4out.xyz', 'w' )
f.write( "15  " )
f.write( str(ee) + "\n" )
f.write( MOL.save_string_xyz() )
f.close()
--------------------------------------------------------------------------

    Molecular point group: c1
  Charge       = 0
  Multiplicity = 1
  Basis Set: 6-31G*
  Basis Set:
  @DF-RHF Final Energy:  -232.13341685193475
    Total Energy =                       -232.1334168519344985
    Molecular point group: c1
  Basis Set: 6-31G*
  Basis Set:
  Basis Set: 6-31G*
  Basis Set:
  @DF-RHF Final Energy:  -232.13507623608470
    Total Energy =                       -232.1350762360846147
  Basis Set: 6-31G*
  Basis Set:
  Basis Set: 6-31G*
  Basis Set:
  @DF-RHF Final Energy:  -232.13599469465726
    Total Energy =                       -232.1359946946573132
  Basis Set: 6-31G*
  Basis Set:
  Basis Set: 6-31G*
  Basis Set:
  @DF-RHF Final Energy:  -232.13599088947620
    Total Energy =                       -232.1359908894760906
  Basis Set: 6-31G*
  Basis Set:
  Basis Set: 6-31G*
  Basis Set:
  @DF-RHF Final Energy:  -232.13601429738696
    Total Energy =                       -232.1360142973869074
  Basis Set: 6-31G*
  Basis Set:
  Basis Set: 6-31G*
  Basis Set:
  @DF-RHF Final Energy:  -232.13603208965361
    Total Energy =                       -232.1360320896534404
  Basis Set: 6-31G*
  Basis Set:
  Charge       = 0
  Multiplicity = 1
  Basis Set: 6-31G*
  Basis Set:

    Orbital Energies (a.u.)
    -----------------------

    Doubly Occupied:

       1A    -20.546390     2A    -11.274843     3A    -11.261491
       4A    -11.211018     5A    -11.209983     6A     -1.368565
       7A     -1.049985     8A     -0.939961     9A     -0.931263
      10A     -0.781552    11A     -0.675785    12A     -0.638604
      13A     -0.632070    14A     -0.569700    15A     -0.563512
      16A     -0.552923    17A     -0.537554    18A     -0.500550
      19A     -0.497730    20A     -0.442236    21A     -0.403379

  @DF-RHF Final Energy:  -232.13603209989734

   => Energetics <=

    Nuclear Repulsion Energy =            198.6950048597335865
    One-Electron Energy =                -708.4838831850746601
    Two-Electron Energy =                 277.6528462254438523
    DFT Exchange-Correlation Energy =       0.0000000000000000
    Empirical Dispersion Energy =           0.0000000000000000
    PCM Polarization Energy =               0.0000000000000000
    EFP Energy =                            0.0000000000000000
    Total Energy =                       -232.1360320998972497
    Molecular point group: c1
  Basis Set: 6-31G*
  Basis Set:

  -Total Gradient:
     Atom            X                  Y                   Z
    ------   -----------------  -----------------  -----------------
       1        0.000128339502    -0.001840891705     0.000002708092
       2       -0.000440297630     0.003075126888    -0.000154864312
       3        0.000820228381    -0.002602447837     0.000449013565
       4        0.000003779830    -0.000007969606     0.000001057420
       5        0.000001396017     0.000008058173     0.000003698051
       6       -0.000500729486     0.001388080576    -0.000241708629
       7       -0.000007325783    -0.000018501297    -0.000022856914
       8       -0.000005180901    -0.000001339091    -0.000019289985
       9       -0.000004001265     0.000005182693     0.000009381641
      10        0.000009157889     0.000003824580    -0.000017289408
      11       -0.000011758540    -0.000006212732    -0.000003892807
      12        0.000002339407    -0.000000079434     0.000005544590
      13        0.000005372887     0.000001735494    -0.000011811390
      14       -0.000005057244    -0.000004674407     0.000001192197
      15        0.000003736936     0.000000107704    -0.000000882111

  **** Optimization is complete! (in 7 steps) ****
    Final optimized geometry and variables:
    Molecular point group: c1

    Geometry (in Angstrom), charge = 0, multiplicity = 1:

    H           -1.142541900575     0.246279224797     1.442192815220
    C           -0.097691617551     0.319360745866     1.720976559852
    O            0.759129441989     0.390441011792     0.619110514520
    H            0.039725215847     1.214293823212     2.314926331029
    H            0.142618994703    -0.543444232699     2.336046545382
    C            0.296789762636    -0.054902375394    -0.634238389301
    C           -0.124268937805    -1.522670354695    -0.611251196324
    C           -0.782373074391     0.860505237138    -1.208904941359
    H            1.172105848664     0.030061806239    -1.267069862227
    H            0.667648362984    -2.133377831237    -0.191267182507
    H           -0.326055879328    -1.872482527836    -1.618913051357
    H           -1.023634772022    -1.679192028600    -0.023552280649
    H           -0.446053846297     1.891159228705    -1.186817242217
    H           -0.991515794889     0.591135852036    -2.239702106471
    H           -1.715627748221     0.794410596071    -0.658895020874

  Mulliken Charges: (a.u.)
   Center  Symbol    Alpha    Beta     Spin     Total
       1     H     0.43005  0.43005  0.00000  0.13990
       2     C     3.07944  3.07944  0.00000 -0.15888
       3     O     4.31451  4.31451  0.00000 -0.62903
       4     H     0.41616  0.41616  0.00000  0.16768
       5     H     0.42463  0.42463  0.00000  0.15073
       6     C     2.91020  2.91020  0.00000  0.17960
       7     C     3.25258  3.25258  0.00000 -0.50517
       8     C     3.25001  3.25001  0.00000 -0.50002
       9     H     0.41549  0.41549  0.00000  0.16903
      10     H     0.41173  0.41173  0.00000  0.17654
      11     H     0.41927  0.41927  0.00000  0.16145
      12     H     0.42184  0.42184  0.00000  0.15632
      13     H     0.41145  0.41145  0.00000  0.17710
      14     H     0.42055  0.42055  0.00000  0.15890
      15     H     0.42207  0.42207  0.00000  0.15585

   Total alpha = 21.00000, Total beta = 21.00000, Total charge =  0.00000
