  ==> Input File <==

--------------------------------------------------------------------------
set {
	reference rhf
	basis 6-31G*
}

set_num_threads( 4 )
memory 2 gb

molecule MOL {
0 1

H	 -3.161837	 0.500524	 -0.000234
C	 -2.367097	 -0.232926	 -0.000000
O	 -1.158440	 0.455814	 -0.000122
H	 -2.468853	 -0.861886	 -0.882833
H	 -2.468942	 -0.861421	 0.883154
C	 -0.029820	 -0.365081	 -0.015010
C	 1.212178	 0.509047	 -0.013428
H	 -0.042013	 -1.004043	 -0.899023
H	 -0.031755	 -1.021756	 0.856014
C	 2.502642	 -0.309076	 -0.029557
H	 1.172943	 1.164429	 -0.878065
H	 1.183215	 1.146822	 0.864697
H	 2.562826	 -0.937144	 -0.914052
H	 3.372286	 0.339431	 -0.027616
H	 2.572886	 -0.955505	 0.840844

	symmetry c1
}
set optking {
	frozen_dihedral = ("
		6 3 2 4
	")
}

ee = optimize('scf')
oeprop('DIPOLE', 'QUADRUPOLE', 'MULLIKEN_CHARGES')
f=open( 'psi4out.xyz', 'w' )
f.write( "15  " )
f.write( str(ee) + "\n" )
f.write( MOL.save_string_xyz() )
f.close()
--------------------------------------------------------------------------

    Molecular point group: c1
  Charge       = 0
  Multiplicity = 1
  Basis Set: 6-31G*
  Basis Set:
  @DF-RHF Final Energy:  -232.13945355168750
    Total Energy =                       -232.1394535516877227
    Molecular point group: c1
  Basis Set: 6-31G*
  Basis Set:
  Charge       = 0
  Multiplicity = 1
  Basis Set: 6-31G*
  Basis Set:

    Orbital Energies (a.u.)
    -----------------------

    Doubly Occupied:

       1A    -20.553448     2A    -11.266288     3A    -11.264019
       4A    -11.214300     5A    -11.212959     6A     -1.378359
       7A     -1.057286     8A     -0.955317     9A     -0.877279
      10A     -0.809115    11A     -0.674905    12A     -0.654005
      13A     -0.630274    14A     -0.607608    15A     -0.565548
      16A     -0.541202    17A     -0.502818    18A     -0.489111
      19A     -0.478058    20A     -0.461452    21A     -0.413853

  @DF-RHF Final Energy:  -232.13945371137467

   => Energetics <=

    Nuclear Repulsion Energy =            189.7292193238830293
    One-Electron Energy =                -690.5229377419642560
    Two-Electron Energy =                 268.6542647067063854
    DFT Exchange-Correlation Energy =       0.0000000000000000
    Empirical Dispersion Energy =           0.0000000000000000
    PCM Polarization Energy =               0.0000000000000000
    EFP Energy =                            0.0000000000000000
    Total Energy =                       -232.1394537113748129
    Molecular point group: c1
  Basis Set: 6-31G*
  Basis Set:

  -Total Gradient:
     Atom            X                  Y                   Z
    ------   -----------------  -----------------  -----------------
       1       -0.000039079061    -0.000006625800     0.000001389217
       2       -0.000106242787     0.000154153206    -0.000113531185
       3        0.000055050101    -0.000108042143     0.000132871042
       4        0.000067139020    -0.000079730490     0.000060360136
       5        0.000038821965     0.000012503171    -0.000010884625
       6       -0.000028577650     0.000044787012    -0.000064866068
       7       -0.000002369070    -0.000008210137    -0.000011668440
       8       -0.000002912129    -0.000001995936    -0.000008423356
       9        0.000009505299    -0.000013646539     0.000006287886
      10        0.000002661833    -0.000002622662     0.000004706022
      11       -0.000001174327     0.000009903801    -0.000003380485
      12        0.000003969960    -0.000003068646     0.000000428255
      13       -0.000005892812     0.000005350562     0.000006669810
      14        0.000003746293     0.000001235755    -0.000001686625
      15        0.000005353366    -0.000003991155     0.000001728415

  **** Optimization is complete! (in 2 steps) ****
    Final optimized geometry and variables:
    Molecular point group: c1

    Geometry (in Angstrom), charge = 0, multiplicity = 1:

    H           -3.162450307095     0.500118667468     0.012061982337
    C           -2.367097525375    -0.232726752958     0.011459874123
    O           -1.158402395761     0.455881939390     0.011117437443
    H           -2.468604766271    -0.861884522165    -0.871237423851
    H           -2.467676904084    -0.861742070835     0.894386819867
    C           -0.029789234341    -0.365272197596    -0.003454019138
    C            1.212188347280     0.508906224567    -0.001754182986
    H           -0.042151771162    -1.004027092427    -0.887587774249
    H           -0.031951672250    -1.021846888497     0.867651853025
    C            2.502699173565    -0.309233101230    -0.017710362793
    H            1.172919289606     1.164459392047    -0.866291404044
    H            1.183208507164     1.146509006963     0.876489425359
    H            2.562510829108    -0.937780227574    -0.901879545202
    H            3.372468205489     0.339152939290    -0.016527287725
    H            2.573205974386    -0.955339022811     0.852928222767

  Mulliken Charges: (a.u.)
   Center  Symbol    Alpha    Beta     Spin     Total
       1     H     0.41215  0.41215  0.00000  0.17571
       2     C     3.07929  3.07929  0.00000 -0.15859
       3     O     4.30583  4.30583  0.00000 -0.61166
       4     H     0.43049  0.43049  0.00000  0.13902
       5     H     0.43039  0.43039  0.00000  0.13923
       6     C     2.98151  2.98151  0.00000  0.03697
       7     C     3.15983  3.15983  0.00000 -0.31967
       8     H     0.43340  0.43340  0.00000  0.13320
       9     H     0.43344  0.43344  0.00000  0.13312
      10     C     3.24791  3.24791  0.00000 -0.49582
      11     H     0.41432  0.41432  0.00000  0.17136
      12     H     0.41433  0.41433  0.00000  0.17135
      13     H     0.42085  0.42085  0.00000  0.15830
      14     H     0.41541  0.41541  0.00000  0.16919
      15     H     0.42085  0.42085  0.00000  0.15831

   Total alpha = 21.00000, Total beta = 21.00000, Total charge = -0.00000
