                              Psi4 1.0.54 Driver

  ==> Input File <==

--------------------------------------------------------------------------
set {
	reference rhf
	basis cc-pvtz
}

set_num_threads( 4 )
memory 2 gb

molecule MOL {
0 1

H	 -3.162190	 0.493205	 -0.000107
C	 -2.363908	 -0.234727	 0.000005
O	 -1.158738	 0.454634	 -0.000087
H	 -2.464314	 -0.863616	 -0.882153
H	 -2.464327	 -0.863359	 0.882345
C	 -0.028611	 -0.359694	 0.000037
C	 1.212847	 0.509314	 -0.000053
H	 -0.034155	 -1.007047	 -0.877198
H	 -0.034195	 -1.006836	 0.877430
C	 0.916605	 1.947998	 0.408332
H	 1.940720	 0.071896	 0.674330
H	 1.651227	 0.485244	 -0.991615
H	 0.499148	 1.997109	 1.408534
H	 1.819764	 2.545705	 0.399845
H	 0.207961	 2.413310	 -0.268704

	symmetry c1
}
set optking {
	frozen_dihedral = ("
		11 7 6 8
	")
}

ee,wfn = optimize('scf', return_wfn=True)
oeprop( wfn, 'DIPOLE', 'QUADRUPOLE', 'MULLIKEN_CHARGES')
f=open( 'psi4out.xyz', 'w' )
f.write( "15  " )
f.write( str(ee) + "\n" )
f.write( MOL.save_string_xyz() )
f.close()
--------------------------------------------------------------------------

    Molecular point group: c1
  Charge       = 0
  Multiplicity = 1
  Basis Set: CC-PVTZ
  Basis Set:
  @DF-RHF Final Energy:  -232.21963472309298
    Total Energy =                       -232.2196347230927813
    Molecular point group: c1
  Basis Set: CC-PVTZ
  Basis Set:
  Basis Set: CC-PVTZ
  Basis Set:
  @DF-RHF Final Energy:  -232.22025820667582
    Total Energy =                       -232.2202582066760215
  Basis Set: CC-PVTZ
  Basis Set:
  Basis Set: CC-PVTZ
  Basis Set:
  @DF-RHF Final Energy:  -232.22131325537623
    Total Energy =                       -232.2213132553762307
  Basis Set: CC-PVTZ
  Basis Set:
  Basis Set: CC-PVTZ
  Basis Set:
  @DF-RHF Final Energy:  -232.22135850252232
    Total Energy =                       -232.2213585025223210
  Basis Set: CC-PVTZ
  Basis Set:
  Basis Set: CC-PVTZ
  Basis Set:
  @DF-RHF Final Energy:  -232.22136238704468
    Total Energy =                       -232.2213623870446781
  Basis Set: CC-PVTZ
  Basis Set:
  Charge       = 0
  Multiplicity = 1
  Basis Set: CC-PVTZ
  Basis Set:

    Orbital Energies (a.u.)
    -----------------------

    Doubly Occupied:

       1A    -20.547013     2A    -11.265634     3A    -11.262008
       4A    -11.214277     5A    -11.199155     6A     -1.381535
       7A     -1.050038     8A     -0.949163     9A     -0.889605
      10A     -0.793707    11A     -0.676269    12A     -0.657042
      13A     -0.635002    14A     -0.603439    15A     -0.553162
      16A     -0.542858    17A     -0.504040    18A     -0.482220
      19A     -0.475028    20A     -0.460913    21A     -0.412751

  @DF-RHF Final Energy:  -232.22136265542642

   => Energetics <=

    Nuclear Repulsion Energy =            193.6134152918278062
    One-Electron Energy =                -698.5598432640263127
    Two-Electron Energy =                 272.7250653167722021
    DFT Exchange-Correlation Energy =       0.0000000000000000
    Empirical Dispersion Energy =           0.0000000000000000
    PCM Polarization Energy =               0.0000000000000000
    EFP Energy =                            0.0000000000000000
    Total Energy =                       -232.2213626554263328
    Molecular point group: c1
  Basis Set: CC-PVTZ
  Basis Set:

  -Total Gradient:
     Atom            X                  Y                   Z
    ------   -----------------  -----------------  -----------------
       1        0.000018662091     0.000008187113    -0.000001090949
       2       -0.000001374416    -0.000015590251     0.000009077333
       3        0.000007789659     0.000017850746    -0.000014099709
       4        0.000009077669     0.000006780249    -0.000000458887
       5        0.000001432195     0.000000182317     0.000000334407
       6        0.002686788087    -0.003801889385     0.004501241873
       7        0.001953799951    -0.002778568388    -0.005395657880
       8       -0.002577438720     0.003601221947    -0.002951691953
       9        0.000032196201    -0.000016680325     0.000004326760
      10       -0.000007346143    -0.000005650297     0.000014122303
      11       -0.002124490925     0.002983654914     0.003836225447
      12        0.000005513621    -0.000011610415    -0.000005054350
      13        0.000006357774     0.000013633596    -0.000005801968
      14       -0.000013874516     0.000004203855    -0.000004503000
      15        0.000002907477    -0.000005725675     0.000013030573

  **** Optimization is complete! (in 6 steps) ****
    Final optimized geometry and variables:
    Molecular point group: c1

    Geometry (in Angstrom), charge = 0, multiplicity = 1:

    H           -2.875663571009    -0.080688315967    -0.228271821666
    C           -2.047682749508    -0.771117379707    -0.155461683204
    O           -0.875196881694    -0.029994465164    -0.131110536979
    H           -2.077865852753    -1.444359973997    -1.009929713868
    H           -2.165080548828    -1.363160832102     0.750089361027
    C            0.285476858760    -0.801202771272    -0.032369260940
    C            1.534827548815     0.091949575512    -0.043656998665
    H            0.311280138077    -1.479269123986    -0.883051628951
    H            0.248360377611    -1.396187249888     0.877709005647
    C            1.280413338771     1.543892466077     0.360489981484
    H            2.245766614122    -0.318762335108     0.665321312897
    H            1.997207309656     0.068938221105    -1.023028483649
    H            0.834316478518     1.606521755078     1.345859216107
    H            2.218364077088     2.087506407819     0.381959954002
    H            0.615017299444     2.039151106502    -0.331843009479

  Mulliken Charges: (a.u.)
   Center  Symbol    Alpha    Beta     Spin     Total
       1     H     0.44777  0.44777  0.00000  0.10446
       2     C     3.03156  3.03156  0.00000 -0.06311
       3     O     4.17087  4.17087  0.00000 -0.34173
       4     H     0.47227  0.47227  0.00000  0.05545
       5     H     0.47230  0.47230  0.00000  0.05540
       6     C     2.96750  2.96750  0.00000  0.06499
       7     C     3.09347  3.09347  0.00000 -0.18694
       8     H     0.46950  0.46950  0.00000  0.06099
       9     H     0.47196  0.47196  0.00000  0.05608
      10     C     3.13955  3.13955  0.00000 -0.27910
      11     H     0.45496  0.45496  0.00000  0.09008
      12     H     0.45192  0.45192  0.00000  0.09616
      13     H     0.45500  0.45500  0.00000  0.09000
      14     H     0.45366  0.45366  0.00000  0.09268
      15     H     0.44770  0.44770  0.00000  0.10460

   Total alpha = 21.00000, Total beta = 21.00000, Total charge = -0.00000

*** Psi4 exiting successfully. Buy a developer a beer!
