  ==> Input File <==

--------------------------------------------------------------------------
set {
	reference rhf
	basis cc-pvtz
}

set_num_threads( 4 )
memory 2 gb

molecule MOL {
0 1

H	 1.215398	 -2.299770	 0.179992
C	 0.247280	 -1.829393	 0.216390
O	 0.462329	 -0.453336	 -0.000137
H	 -0.197819	 -2.006396	 1.187356
H	 -0.382649	 -2.251878	 -0.556224
C	 -0.590565	 0.341382	 0.000062
O	 -1.693898	 -0.053880	 0.000252
H	 -0.340426	 1.403822	 0.000200

	symmetry c1
}
set optking {
	frozen_dihedral = ("
		2 3 6 7
	")
}

ee = optimize('scf')
oeprop('DIPOLE', 'QUADRUPOLE', 'MULLIKEN_CHARGES')
f=open( 'psi4out.xyz', 'w' )
f.write( "8  " )
f.write( str(ee) + "\n" )
f.write( MOL.save_string_xyz() )
f.close()
--------------------------------------------------------------------------

    Molecular point group: c1
  Charge       = 0
  Multiplicity = 1
  Basis Set: CC-PVTZ
  Basis Set:
  @DF-RHF Final Energy:  -227.87699485776119
    Total Energy =                       -227.8769948577611046
    Molecular point group: c1
  Basis Set: CC-PVTZ
  Basis Set:
  Basis Set: CC-PVTZ
  Basis Set:
  @DF-RHF Final Energy:  -227.87672497809325
    Total Energy =                       -227.8767249780932787
  Basis Set: CC-PVTZ
  Basis Set:
  Basis Set: CC-PVTZ
  Basis Set:
  @DF-RHF Final Energy:  -227.87539971774547
    Total Energy =                       -227.8753997177455517
  Basis Set: CC-PVTZ
  Basis Set:
  Basis Set: CC-PVTZ
  Basis Set:
  @DF-RHF Final Energy:  -227.87816473422384
    Total Energy =                       -227.8781647342239580
  Basis Set: CC-PVTZ
  Basis Set:
  Basis Set: CC-PVTZ
  Basis Set:
  @DF-RHF Final Energy:  -227.87818522547065
    Total Energy =                       -227.8781852254706166
  Basis Set: CC-PVTZ
  Basis Set:
  Charge       = 0
  Multiplicity = 1
  Basis Set: CC-PVTZ
  Basis Set:

    Orbital Energies (a.u.)
    -----------------------

    Doubly Occupied:

       1A    -20.609461     2A    -20.548797     3A    -11.372535
       4A    -11.287311     5A     -1.482458     6A     -1.380145
       7A     -0.998963     8A     -0.819770     9A     -0.748193
      10A     -0.685430    11A     -0.683920    12A     -0.602781
      13A     -0.560381    14A     -0.535241    15A     -0.469789
      16A     -0.462319

  @DF-RHF Final Energy:  -227.87818717436204

   => Energetics <=

    Nuclear Repulsion Energy =            123.9887279454811306
    One-Electron Energy =                -557.2388448667115881
    Two-Electron Energy =                 205.3719297468684601
    DFT Exchange-Correlation Energy =       0.0000000000000000
    Empirical Dispersion Energy =           0.0000000000000000
    PCM Polarization Energy =               0.0000000000000000
    EFP Energy =                            0.0000000000000000
    Total Energy =                       -227.8781871743620115
    Molecular point group: c1
  Basis Set: CC-PVTZ
  Basis Set:

  -Total Gradient:
     Atom            X                  Y                   Z
    ------   -----------------  -----------------  -----------------
       1       -0.000001271424    -0.000041682054     0.000012016039
       2        0.000461559201     0.000565983116     0.002720698411
       3       -0.000568671069    -0.000806523161    -0.006040202189
       4       -0.000006231607    -0.000022433053     0.000006730850
       5       -0.000009589940    -0.000029376277     0.000009638833
       6        0.000097574349     0.000310981888     0.006941630608
       7        0.000011753325     0.000033326391    -0.003689758973
       8        0.000014877164    -0.000010276851     0.000039246422

  **** Optimization is complete! (in 6 steps) ****
    Final optimized geometry and variables:
    Molecular point group: c1

    Geometry (in Angstrom), charge = 0, multiplicity = 1:

    H            1.634481366698    -1.764465483310     0.137316921722
    C            0.654880230632    -1.316199533124     0.141530372158
    O            0.857647924704     0.068028511239    -0.082360659018
    H            0.174164029266    -1.475768825618     1.095339426506
    H            0.044648181735    -1.743476850919    -0.639879228657
    C           -0.201121890021     0.844311906521    -0.050536039444
    O           -1.321055950566     0.481144103848    -0.017617780109
    H            0.098505254200     1.886628361583    -0.089500668864

  Mulliken Charges: (a.u.)
   Center  Symbol    Alpha    Beta     Spin     Total
       1     H     0.44433  0.44433  0.00000  0.11134
       2     C     3.02771  3.02771  0.00000 -0.05542
       3     O     4.14046  4.14046  0.00000 -0.28092
       4     H     0.45501  0.45501  0.00000  0.08999
       5     H     0.45195  0.45195  0.00000  0.09609
       6     C     2.83788  2.83788  0.00000  0.32424
       7     O     4.19398  4.19398  0.00000 -0.38795
       8     H     0.44868  0.44868  0.00000  0.10264

   Total alpha = 16.00000, Total beta = 16.00000, Total charge = -0.00000
