  ==> Input File <==

--------------------------------------------------------------------------
set {
	reference rhf
	basis 6-31G*
}

set_num_threads( 1 )
memory 2 gb

molecule MOL {
0 1

H	 -2.927673	 -1.376007	 0.424136
O	 -2.102716	 -1.041991	 0.102182
C	 -2.026376	 0.340750	 0.341611
C	 -0.673256	 0.843270	 -0.132153
H	 -2.818946	 0.862305	 -0.192008
H	 -2.150804	 0.552278	 1.402944
C	 0.486613	 -0.083066	 0.235839
H	 -0.715586	 0.970948	 -1.210718
H	 -0.508072	 1.829858	 0.297090
C	 1.840406	 0.433480	 -0.254303
H	 0.300215	 -1.068318	 -0.178947
H	 0.519509	 -0.203625	 1.318070
C	 3.000220	 -0.489290	 0.118523
H	 1.809207	 0.553576	 -1.335192
H	 2.021860	 1.424500	 0.157276
H	 2.864959	 -1.479103	 -0.307933
H	 3.946603	 -0.099227	 -0.243630
H	 3.080049	 -0.602997	 1.196117

	symmetry c1
}
set optking {
	frozen_dihedral = ("
		14 10 7 11,
		10 7 4 8,
		1 2 3 4
	")
}

ee = energy('scf')
oeprop('DIPOLE', 'QUADRUPOLE', 'MULLIKEN_CHARGES')
f=open( 'psi4out.xyz', 'w' )
f.write( "18  " )
f.write( str(ee) + "\n" )
f.write( MOL.save_string_xyz() )
f.close()
--------------------------------------------------------------------------

    Molecular point group: c1

    Geometry (in Angstrom), charge = 0, multiplicity = 1:

       Center              X                  Y                   Z               Mass
    ------------   -----------------  -----------------  -----------------  -----------------
           H         -2.965842024312    -1.344788890591     0.348233210446     1.007825032070
           O         -2.140885024312    -1.010772890591     0.026279210446    15.994914619560
           C         -2.064545024312     0.371968109409     0.265708210446    12.000000000000
           C         -0.711425024312     0.874488109409    -0.208055789554    12.000000000000
           H         -2.857115024312     0.893523109409    -0.267910789554     1.007825032070
           H         -2.188973024312     0.583496109409     1.327041210446     1.007825032070
           C          0.448443975688    -0.051847890591     0.159936210446    12.000000000000
           H         -0.753755024312     1.002166109409    -1.286620789554     1.007825032070
           H         -0.546241024312     1.861076109409     0.221187210446     1.007825032070
           C          1.802236975688     0.464698109409    -0.330205789554    12.000000000000
           H          0.262045975688    -1.037099890591    -0.254849789554     1.007825032070
           H          0.481339975688    -0.172406890591     1.242167210446     1.007825032070
           C          2.962050975688    -0.458071890591     0.042620210446    12.000000000000
           H          1.771037975688     0.584794109409    -1.411094789554     1.007825032070
           H          1.983690975688     1.455718109409     0.081373210446     1.007825032070
           H          2.826789975688    -1.447884890591    -0.383835789554     1.007825032070
           H          3.908433975688    -0.068008890591    -0.319532789554     1.007825032070
           H          3.041879975688    -0.571778890591     1.120214210446     1.007825032070

  Charge       = 0
  Multiplicity = 1
  Basis Set: 6-31G*
  Basis Set:

    Orbital Energies (a.u.)
    -----------------------

    Doubly Occupied:

       1A    -20.553367     2A    -11.268135     3A    -11.211571
       4A    -11.208811     5A    -11.203369     6A    -11.203061
       7A     -1.360518     8A     -1.072664     9A     -1.007806
      10A     -0.912769    11A     -0.816811    12A     -0.780997
      13A     -0.703070    14A     -0.648553    15A     -0.620156
      16A     -0.580026    17A     -0.570584    18A     -0.554869
      19A     -0.519855    20A     -0.501183    21A     -0.488458
      22A     -0.464559    23A     -0.455170    24A     -0.444488
      25A     -0.429502

  @DF-RHF Final Energy:  -271.17753158053796

   => Energetics <=

    Nuclear Repulsion Energy =            250.2603181599210416
    One-Electron Energy =                -863.7150794882422815
    Two-Electron Energy =                 342.2772297477825987
    DFT Exchange-Correlation Energy =       0.0000000000000000
    Empirical Dispersion Energy =           0.0000000000000000
    PCM Polarization Energy =               0.0000000000000000
    EFP Energy =                            0.0000000000000000
    Total Energy =                       -271.1775315805385844

  Mulliken Charges: (a.u.)
   Center  Symbol    Alpha    Beta     Spin     Total
       1     H     0.28044  0.28044  0.00000  0.43911
       2     O     4.36984  4.36984  0.00000 -0.73967
       3     C     2.99511  2.99511  0.00000  0.00979
       4     C     3.16497  3.16497  0.00000 -0.32994
       5     H     0.42904  0.42904  0.00000  0.14193
       6     H     0.43230  0.43230  0.00000  0.13539
       7     C     3.14965  3.14965  0.00000 -0.29930
       8     H     0.41864  0.41864  0.00000  0.16273
       9     H     0.42330  0.42330  0.00000  0.15339
      10     C     3.15189  3.15189  0.00000 -0.30378
      11     H     0.40482  0.40482  0.00000  0.19037
      12     H     0.42708  0.42708  0.00000  0.14585
      13     C     3.23864  3.23864  0.00000 -0.47728
      14     H     0.42371  0.42371  0.00000  0.15257
      15     H     0.42612  0.42612  0.00000  0.14777
      16     H     0.42101  0.42101  0.00000  0.15798
      17     H     0.42085  0.42085  0.00000  0.15829
      18     H     0.42260  0.42260  0.00000  0.15481

   Total alpha = 25.00000, Total beta = 25.00000, Total charge =  0.00000
