  ==> Input File <==

--------------------------------------------------------------------------
set {
	reference rhf
	basis 6-31G*
}

set_num_threads( 4 )
memory 2 gb

molecule MOL {
0 1

H	 1.505787	 0.112938	 -1.964006
O	 0.679550	 -0.010077	 -1.519350
C	 0.702312	 0.627605	 -0.264544
C	 -0.714990	 0.596302	 0.266387
H	 1.029835	 1.659024	 -0.363323
H	 1.372800	 0.114492	 0.421521
O	 -1.405996	 -0.526611	 -0.195820
H	 -1.257453	 1.468809	 -0.075599
H	 -0.688972	 0.618407	 1.353696
H	 -0.890587	 -1.292708	 0.022039

	symmetry c1
}
set optking {
	frozen_dihedral = ("
		5 3 4 7
	")
}

ee = optimize('scf')
oeprop('DIPOLE', 'QUADRUPOLE', 'MULLIKEN_CHARGES')
f=open( 'psi4out.xyz', 'w' )
f.write( "10  " )
f.write( str(ee) + "\n" )
f.write( MOL.save_string_xyz() )
f.close()
--------------------------------------------------------------------------

    Molecular point group: c1
  Charge       = 0
  Multiplicity = 1
  Basis Set: 6-31G*
  Basis Set:
  @DF-RHF Final Energy:  -228.91261064092171
    Total Energy =                       -228.9126106409217982
    Molecular point group: c1
  Basis Set: 6-31G*
  Basis Set:
  Basis Set: 6-31G*
  Basis Set:
  @DF-RHF Final Energy:  -228.91381574626215
    Total Energy =                       -228.9138157462621734
  Basis Set: 6-31G*
  Basis Set:
  Basis Set: 6-31G*
  Basis Set:
  @DF-RHF Final Energy:  -228.91464492154537
    Total Energy =                       -228.9146449215453458
  Basis Set: 6-31G*
  Basis Set:
  Basis Set: 6-31G*
  Basis Set:
  @DF-RHF Final Energy:  -228.91482229082283
    Total Energy =                       -228.9148222908227979
  Basis Set: 6-31G*
  Basis Set:
  @DF-RHF Final Energy:  -228.91498592365309
    Total Energy =                       -228.9149859236529494
  @DF-RHF Final Energy:  -228.91556093733908
    Total Energy =                       -228.9155609373391087
  @DF-RHF Final Energy:  -228.91645939863849
    Total Energy =                       -228.9164593986385228
  @DF-RHF Final Energy:  -228.91944211727048
    Total Energy =                       -228.9194421172705347
  @DF-RHF Final Energy:  -228.91971013556477
    Total Energy =                       -228.9197101355647419
  @DF-RHF Final Energy:  -228.92022289392699
    Total Energy =                       -228.9202228939270185
  @DF-RHF Final Energy:  -228.92030071418091
    Total Energy =                       -228.9203007141809962
  Basis Set: 6-31G*
  Basis Set:
  @DF-RHF Final Energy:  -228.92033764847577
    Total Energy =                       -228.9203376484757371
  Basis Set: 6-31G*
  Basis Set:
  Basis Set: 6-31G*
  Basis Set:
  @DF-RHF Final Energy:  -228.92034696392903
    Total Energy =                       -228.9203469639290347
  Basis Set: 6-31G*
  Basis Set:
  Basis Set: 6-31G*
  Basis Set:
  @DF-RHF Final Energy:  -228.92034945361547
    Total Energy =                       -228.9203494536154153
  Basis Set: 6-31G*
  Basis Set:
  Charge       = 0
  Multiplicity = 1
  Basis Set: 6-31G*
  Basis Set:

    Orbital Energies (a.u.)
    -----------------------

    Doubly Occupied:

       1A    -20.573029     2A    -20.540963     3A    -11.281095
       4A    -11.268484     5A     -1.386265     6A     -1.344789
       7A     -0.999201     8A     -0.844976     9A     -0.727663
      10A     -0.679099    11A     -0.655702    12A     -0.594219
      13A     -0.576952    14A     -0.534733    15A     -0.485879
      16A     -0.459653    17A     -0.422834

  @DF-RHF Final Energy:  -228.92034921198561

   => Energetics <=

    Nuclear Repulsion Energy =            135.1698488853911897
    One-Electron Energy =                -581.4293203474528582
    Two-Electron Energy =                 217.3391222500760307
    DFT Exchange-Correlation Energy =       0.0000000000000000
    Empirical Dispersion Energy =           0.0000000000000000
    PCM Polarization Energy =               0.0000000000000000
    EFP Energy =                            0.0000000000000000
    Total Energy =                       -228.9203492119856662
    Molecular point group: c1
  Basis Set: 6-31G*
  Basis Set:

  -Total Gradient:
     Atom            X                  Y                   Z
    ------   -----------------  -----------------  -----------------
       1        0.000008809048     0.000015577882     0.000012637601
       2        0.000025128615    -0.000043030873    -0.000012595328
       3        0.003051603981     0.002625337900     0.007293793364
       4        0.002783458890    -0.003358663918     0.005717504040
       5       -0.003206226778    -0.001349718226    -0.007477670637
       6        0.000060244999    -0.000072420844    -0.000069008192
       7       -0.002731620419     0.002273931623    -0.005509608772
       8        0.000042887360     0.000034681417     0.000006108962
       9       -0.000091971240    -0.000083361276     0.000000988165
      10        0.000057685545    -0.000042333684     0.000037850796

  **** Optimization is complete! (in 15 steps) ****
    Final optimized geometry and variables:
    Molecular point group: c1

    Geometry (in Angstrom), charge = 0, multiplicity = 1:

    H            1.690955496226    -0.210572630208    -1.490386781138
    O            0.831307928527    -0.199606781903    -1.095317211555
    C            0.846541893354     0.575702501032     0.083675062854
    C           -0.557151351091     0.484143466542     0.693982962179
    H            1.052843156082     1.605690373740    -0.192315389548
    H            1.606557192651     0.211079543597     0.767355438836
    O           -1.159237116596    -0.751855299689     0.466551894477
    H           -1.172487062951     1.276204460633     0.271365762743
    H           -0.510280089081     0.642548747586     1.763863752172
    H           -0.908838115321    -1.043961168470    -0.400361795857

  Mulliken Charges: (a.u.)
   Center  Symbol    Alpha    Beta     Spin     Total
       1     H     0.27478  0.27478  0.00000  0.45045
       2     O     4.38324  4.38324  0.00000 -0.76648
       3     C     3.01356  3.01356  0.00000 -0.02712
       4     C     2.99346  2.99346  0.00000  0.01308
       5     H     0.42498  0.42498  0.00000  0.15005
       6     H     0.42257  0.42257  0.00000  0.15485
       7     O     4.37688  4.37688  0.00000 -0.75376
       8     H     0.42775  0.42775  0.00000  0.14450
       9     H     0.41809  0.41809  0.00000  0.16383
      10     H     0.26470  0.26470  0.00000  0.47061

   Total alpha = 17.00000, Total beta = 17.00000, Total charge = -0.00000
