  ==> Input File <==

--------------------------------------------------------------------------
set {
	reference rhf
	basis cc-pvtz
}

set_num_threads( 4 )
memory 2 gb

molecule MOL {
0 1

H	 -0.939693	 0.000281	 1.681345
O	 -0.046262	 -0.000157	 1.387678
C	 -0.000837	 0.000006	 -0.025491
C	 -1.230642	 -0.718928	 -0.576728
C	 0.058877	 1.438741	 -0.535022
C	 1.271451	 -0.753366	 -0.388676
H	 -1.205714	 -0.766516	 -1.659275
H	 -2.140516	 -0.200871	 -0.288950
H	 -1.280547	 -1.728432	 -0.188305
H	 0.131071	 1.470129	 -1.616036
H	 -0.833273	 1.986494	 -0.246739
H	 0.917433	 1.949385	 -0.117182
H	 1.395489	 -0.806671	 -1.463879
H	 1.235445	 -1.761186	 0.005297
H	 2.135048	 -0.256000	 0.034457

	symmetry c1
}
set optking {
	frozen_dihedral = ("
		4 3 2 1
	")
}

ee = optimize('scf')
oeprop('DIPOLE', 'QUADRUPOLE', 'MULLIKEN_CHARGES')
f=open( 'psi4out.xyz', 'w' )
f.write( "15  " )
f.write( str(ee) + "\n" )
f.write( MOL.save_string_xyz() )
f.close()
--------------------------------------------------------------------------

    Molecular point group: c1
  Charge       = 0
  Multiplicity = 1
  Basis Set: CC-PVTZ
  Basis Set:
  @DF-RHF Final Energy:  -232.24562545173714
    Total Energy =                       -232.2456254517373964
    Molecular point group: c1
  Basis Set: CC-PVTZ
  Basis Set:
  Basis Set: CC-PVTZ
  Basis Set:
  @DF-RHF Final Energy:  -232.24570881574374
    Total Energy =                       -232.2457088157436829
  Basis Set: CC-PVTZ
  Basis Set:
  Basis Set: CC-PVTZ
  Basis Set:
  @DF-RHF Final Energy:  -232.24574734014305
    Total Energy =                       -232.2457473401428842
  Basis Set: CC-PVTZ
  Basis Set:
  Charge       = 0
  Multiplicity = 1
  Basis Set: CC-PVTZ
  Basis Set:

    Orbital Energies (a.u.)
    -----------------------

    Doubly Occupied:

       1A    -20.541201     2A    -11.280975     3A    -11.214322
       4A    -11.204893     5A    -11.203641     6A     -1.363895
       7A     -1.065490     8A     -0.945093     9A     -0.937742
      10A     -0.778565    11A     -0.672310    12A     -0.624596
      13A     -0.622683    14A     -0.576275    15A     -0.557321
      16A     -0.533946    17A     -0.517074    18A     -0.511435
      19A     -0.503767    20A     -0.458918    21A     -0.427313

  @DF-RHF Final Energy:  -232.24574809761256

   => Energetics <=

    Nuclear Repulsion Energy =            200.6277944264390101
    One-Electron Energy =                -712.6641746879980701
    Two-Electron Energy =                 279.7906321639467251
    DFT Exchange-Correlation Energy =       0.0000000000000000
    Empirical Dispersion Energy =           0.0000000000000000
    PCM Polarization Energy =               0.0000000000000000
    EFP Energy =                            0.0000000000000000
    Total Energy =                       -232.2457480976123634
    Molecular point group: c1
  Basis Set: CC-PVTZ
  Basis Set:

  -Total Gradient:
     Atom            X                  Y                   Z
    ------   -----------------  -----------------  -----------------
       1        0.000043251291    -0.001852670336    -0.000025436315
       2       -0.000133196498     0.002627994241    -0.000066578930
       3        0.000655780911    -0.001756230086     0.000046002403
       4       -0.000588877200     0.000999425108    -0.000029603085
       5       -0.000005150827     0.000024512936    -0.000025594727
       6       -0.000048513241    -0.000034170297     0.000070157521
       7        0.000010988356     0.000006155850     0.000046420646
       8       -0.000009411935     0.000004302357     0.000016538184
       9        0.000025664841    -0.000050413360    -0.000025698169
      10        0.000061040076     0.000030666964    -0.000053982403
      11        0.000043199590    -0.000075125677     0.000004635630
      12       -0.000027939227     0.000060174280     0.000009021727
      13       -0.000032921217     0.000054882304     0.000026837610
      14        0.000005112570    -0.000034459189    -0.000009525755
      15        0.000000972510    -0.000005045093     0.000016805664

  **** Optimization is complete! (in 4 steps) ****
    Final optimized geometry and variables:
    Molecular point group: c1

    Geometry (in Angstrom), charge = 0, multiplicity = 1:

    H           -0.932698625361     0.035213985067     1.689872696162
    O           -0.042842509031     0.022672802254     1.389792842873
    C            0.002226943294     0.000150914864    -0.025232588732
    C           -1.229927798836    -0.715320293614    -0.572674196329
    C            0.056601628553     1.438701610869    -0.537478692341
    C            1.275751505354    -0.749638189024    -0.392950485594
    H           -1.204439658467    -0.762754621524    -1.654445672318
    H           -2.137570392748    -0.191322481985    -0.287532882534
    H           -1.284699763072    -1.727451986312    -0.188903208024
    H            0.136926861718     1.470822167041    -1.618450393842
    H           -0.837878024858     1.979589685064    -0.248559380146
    H            0.909909904660     1.952609220925    -0.113244782449
    H            1.417680425868    -0.770722879442    -1.467235536192
    H            1.232715614998    -1.768302930291    -0.028252376803
    H            2.133918615769    -0.266674827071     0.057365054460

  Mulliken Charges: (a.u.)
   Center  Symbol    Alpha    Beta     Spin     Total
       1     H     0.39382  0.39382  0.00000  0.21236
       2     O     4.21330  4.21330  0.00000 -0.42659
       3     C     2.87902  2.87902  0.00000  0.24195
       4     C     3.15743  3.15743  0.00000 -0.31485
       5     C     3.14425  3.14425  0.00000 -0.28851
       6     C     3.14104  3.14104  0.00000 -0.28208
       7     H     0.45221  0.45221  0.00000  0.09558
       8     H     0.45471  0.45471  0.00000  0.09057
       9     H     0.44567  0.44567  0.00000  0.10866
      10     H     0.45812  0.45812  0.00000  0.08376
      11     H     0.45500  0.45500  0.00000  0.08999
      12     H     0.44805  0.44805  0.00000  0.10391
      13     H     0.45917  0.45917  0.00000  0.08166
      14     H     0.45107  0.45107  0.00000  0.09786
      15     H     0.44714  0.44714  0.00000  0.10572

   Total alpha = 21.00000, Total beta = 21.00000, Total charge = -0.00000
