                              Psi4 1.0.54 Driver

  ==> Input File <==

--------------------------------------------------------------------------
set {
	reference rhf
	basis cc-pvtz
}

set_num_threads( 4 )
memory 2 gb

molecule MOL {
0 1

H	 -2.352892	 -0.381508	 -0.219023
O	 -1.432053	 -0.565244	 -0.200812
C	 -0.727158	 0.534527	 0.310686
C	 0.680222	 0.664433	 -0.252229
H	 -1.306802	 1.408001	 0.044211
H	 -0.690821	 0.490158	 1.397609
C	 1.605391	 -0.489360	 0.123098
H	 0.615089	 0.745647	 -1.332226
H	 1.101414	 1.597893	 0.110950
H	 1.247627	 -1.432485	 -0.275204
H	 2.601435	 -0.332816	 -0.273062
H	 1.691776	 -0.589902	 1.200774

	symmetry c1
}
set optking {
	frozen_dihedral = ("
		1 2 3 4
	")
}

ee,wfn = optimize('scf', return_wfn=True)
oeprop( wfn, 'DIPOLE', 'QUADRUPOLE', 'MULLIKEN_CHARGES')
f=open( 'psi4out.xyz', 'w' )
f.write( "12  " )
f.write( str(ee) + "\n" )
f.write( MOL.save_string_xyz() )
f.close()
--------------------------------------------------------------------------

    Molecular point group: c1
  Charge       = 0
  Multiplicity = 1
  Basis Set: CC-PVTZ
  Basis Set:
  @DF-RHF Final Energy:  -193.18880025034144
    Total Energy =                       -193.1888002503413873
    Molecular point group: c1
  Basis Set: CC-PVTZ
  Basis Set:
  Basis Set: CC-PVTZ
  Basis Set:
  @DF-RHF Final Energy:  -192.95864083393070
    Total Energy =                       -192.9586408339306729
  Basis Set: CC-PVTZ
  Basis Set:
  Basis Set: CC-PVTZ
  Basis Set:
  @DF-RHF Final Energy:  -193.08362464559548
    Total Energy =                       -193.0836246455953926
  Basis Set: CC-PVTZ
  Basis Set:
  Basis Set: CC-PVTZ
  Basis Set:
  @DF-RHF Final Energy:  -193.17502938060395
    Total Energy =                       -193.1750293806038599
  Basis Set: CC-PVTZ
  Basis Set:
  @DF-RHF Final Energy:  -193.18536279096372
    Total Energy =                       -193.1853627909638362
  @DF-RHF Final Energy:  -193.18939203965090
    Total Energy =                       -193.1893920396509259
  Basis Set: CC-PVTZ
  Basis Set:
  @DF-RHF Final Energy:  -193.19033367240760
    Total Energy =                       -193.1903336724076325
  Basis Set: CC-PVTZ
  Basis Set:
  Basis Set: CC-PVTZ
  Basis Set:
  @DF-RHF Final Energy:  -193.19039503546381
    Total Energy =                       -193.1903950354638937
  Basis Set: CC-PVTZ
  Basis Set:
  Basis Set: CC-PVTZ
  Basis Set:
  @DF-RHF Final Energy:  -193.19039988972500
    Total Energy =                       -193.1903998897250290
  Basis Set: CC-PVTZ
  Basis Set:
  Charge       = 0
  Multiplicity = 1
  Basis Set: CC-PVTZ
  Basis Set:

    Orbital Energies (a.u.)
    -----------------------

    Doubly Occupied:

       1A    -20.545743     2A    -11.266340     3A    -11.212789
       4A    -11.201104     5A     -1.363628     6A     -1.047781
       7A     -0.919034     8A     -0.799997     9A     -0.706913
      10A     -0.643748    11A     -0.589420    12A     -0.575117
      13A     -0.541966    14A     -0.501369    15A     -0.480802
      16A     -0.465381    17A     -0.434860

  @DF-RHF Final Energy:  -193.19040036111605

   => Energetics <=

    Nuclear Repulsion Energy =            133.3496759424989762
    One-Electron Energy =                -526.4881683700518806
    Two-Electron Energy =                 199.9480920664369421
    DFT Exchange-Correlation Energy =       0.0000000000000000
    Empirical Dispersion Energy =           0.0000000000000000
    PCM Polarization Energy =               0.0000000000000000
    EFP Energy =                            0.0000000000000000
    Total Energy =                       -193.1904003611159908
    Molecular point group: c1
  Basis Set: CC-PVTZ
  Basis Set:

  -Total Gradient:
     Atom            X                  Y                   Z
    ------   -----------------  -----------------  -----------------
       1       -0.000327595915     0.000022251088    -0.001558715587
       2        0.000202048840     0.000056594806     0.001609698705
       3        0.000647193981    -0.000420900428     0.000755889518
       4       -0.000526336170     0.000292782843    -0.000804266362
       5       -0.000006082075     0.000021333859    -0.000020254123
       6        0.000006369868     0.000006537385     0.000042717752
       7        0.000009737829     0.000040732739     0.000020430400
       8        0.000004320319    -0.000027011175    -0.000040394156
       9        0.000000129808     0.000041515320     0.000001025628
      10       -0.000042285934    -0.000043402676     0.000007373288
      11        0.000028666889     0.000004047736    -0.000026556366
      12        0.000003832564     0.000005518502     0.000013051303

  **** Optimization is complete! (in 10 steps) ****
    Final optimized geometry and variables:
    Molecular point group: c1

    Geometry (in Angstrom), charge = 0, multiplicity = 1:

    H           -2.207026036856     0.410385524894     0.643387702118
    O           -1.408765568710    -0.053093173446     0.476005787543
    C           -0.355488291652     0.851804706983     0.256524382837
    C            0.659672381233     0.233417927235    -0.686338617350
    H           -0.732801436716     1.773424295822    -0.177431590358
    H            0.118258151699     1.105069180587     1.202501097667
    C            1.306050332243    -1.033033447329    -0.134628444688
    H            0.166491188278     0.015313779738    -1.627906153441
    H            1.424523607881     0.977151178502    -0.892373943618
    H            0.560730480329    -1.790583532007     0.068591216114
    H            2.019669020313    -1.441173669454    -0.841072596374
    H            1.835501515236    -0.828367274167     0.790469273708

  Mulliken Charges: (a.u.)
   Center  Symbol    Alpha    Beta     Spin     Total
       1     H     0.39266  0.39266  0.00000  0.21467
       2     O     4.20226  4.20226  0.00000 -0.40453
       3     C     2.96851  2.96851  0.00000  0.06297
       4     C     3.07915  3.07915  0.00000 -0.15830
       5     H     0.46785  0.46785  0.00000  0.06430
       6     H     0.47379  0.47379  0.00000  0.05241
       7     C     3.14883  3.14883  0.00000 -0.29765
       8     H     0.45535  0.45535  0.00000  0.08930
       9     H     0.45690  0.45690  0.00000  0.08621
      10     H     0.44517  0.44517  0.00000  0.10966
      11     H     0.45107  0.45107  0.00000  0.09785
      12     H     0.45845  0.45845  0.00000  0.08310

   Total alpha = 17.00000, Total beta = 17.00000, Total charge =  0.00000

*** Psi4 exiting successfully. Buy a developer a beer!
