                              Psi4 1.0.54 Driver

  ==> Input File <==

--------------------------------------------------------------------------
set {
	reference rhf
	basis cc-pvtz
}

set_num_threads( 4 )
memory 2 gb

molecule MOL {
0 1

O	 0.609730	 0.521113	 0.991038
C	 1.121787	 0.124983	 0.000110
C	 0.688700	 0.461293	 -1.403740
O	 2.167739	 -0.685178	 -0.000678
C	 -0.513562	 1.392053	 -1.468371
H	 1.546734	 0.891849	 -1.909584
H	 0.487261	 -0.476746	 -1.910660
C	 -0.924481	 1.711999	 -2.902626
H	 -0.284810	 2.309880	 -0.938460
H	 -1.345447	 0.939824	 -0.940165
C	 -2.127233	 2.646043	 -2.979051
H	 -0.085909	 2.161795	 -3.427716
H	 -1.152272	 0.788559	 -3.428560
H	 -1.918500	 3.592269	 -2.491535
H	 -2.396162	 2.855616	 -4.007853
H	 -2.992625	 2.209052	 -2.492517
C	 3.449556	 -0.089977	 -0.000570
H	 3.585694	 0.522473	 -0.879546
H	 4.155805	 -0.904274	 -0.001389
H	 3.586173	 0.521118	 0.879272

	symmetry c1
}
set optking {
	frozen_dihedral = ("
		1 2 4 17
	")
}

ee,wfn = optimize('scf', return_wfn=True)
oeprop( wfn, 'DIPOLE', 'QUADRUPOLE', 'MULLIKEN_CHARGES')
f=open( 'psi4out.xyz', 'w' )
f.write( "20  " )
f.write( str(ee) + "\n" )
f.write( MOL.save_string_xyz() )
f.close()
--------------------------------------------------------------------------

    Molecular point group: c1
  Charge       = 0
  Multiplicity = 1
  Basis Set: CC-PVTZ
  Basis Set:
  @DF-RHF Final Energy:  -384.06234555288455
    Total Energy =                       -384.0623455528848353
    Molecular point group: c1
  Basis Set: CC-PVTZ
  Basis Set:
  Basis Set: CC-PVTZ
  Basis Set:
  @DF-RHF Final Energy:  -383.93666009141663
    Total Energy =                       -383.9366600914167975
  Basis Set: CC-PVTZ
  Basis Set:
  Basis Set: CC-PVTZ
  Basis Set:
  @DF-RHF Final Energy:  -384.03418291330740
    Total Energy =                       -384.0341829133075748
  Basis Set: CC-PVTZ
  Basis Set:
  Basis Set: CC-PVTZ
  Basis Set:
  @DF-RHF Final Energy:  -384.06133549625457
    Total Energy =                       -384.0613354962545145
  Basis Set: CC-PVTZ
  Basis Set:
  @DF-RHF Final Energy:  -384.03060526934587
    Total Energy =                       -384.0306052693459833
  @DF-RHF Final Energy:  -384.05483317798638
    Total Energy =                       -384.0548331779865521
  @DF-RHF Final Energy:  -384.06345520925697
    Total Energy =                       -384.0634552092565173
  Basis Set: CC-PVTZ
  Basis Set:
  @DF-RHF Final Energy:  -384.06389626081449
    Total Energy =                       -384.0638962608140901
  Basis Set: CC-PVTZ
  Basis Set:
  Basis Set: CC-PVTZ
  Basis Set:
  @DF-RHF Final Energy:  -384.06392201616637
    Total Energy =                       -384.0639220161667708
  Basis Set: CC-PVTZ
  Basis Set:
  Basis Set: CC-PVTZ
  Basis Set:
  @DF-RHF Final Energy:  -384.06392724162259
    Total Energy =                       -384.0639272416226504
  Basis Set: CC-PVTZ
  Basis Set:
  Charge       = 0
  Multiplicity = 1
  Basis Set: CC-PVTZ
  Basis Set:

    Orbital Energies (a.u.)
    -----------------------

    Doubly Occupied:

       1A    -20.577836     2A    -20.546027     3A    -11.367925
       4A    -11.288957     5A    -11.238542     6A    -11.221302
       7A    -11.220477     8A    -11.210907     9A     -1.461731
      10A     -1.370001    11A     -1.091793    12A     -1.020379
      13A     -0.971024    14A     -0.897028    15A     -0.808454
      16A     -0.767119    17A     -0.698106    18A     -0.681923
      19A     -0.676373    20A     -0.644791    21A     -0.617799
      22A     -0.591162    23A     -0.589882    24A     -0.550299
      25A     -0.538840    26A     -0.513936    27A     -0.497465
      28A     -0.492897    29A     -0.480028    30A     -0.473419
      31A     -0.454706    32A     -0.436591

  @DF-RHF Final Energy:  -384.06392789877629

   => Energetics <=

    Nuclear Repulsion Energy =            381.9439266971868960
    One-Electron Energy =               -1280.0202713235914871
    Two-Electron Energy =                 514.0124167276285334
    DFT Exchange-Correlation Energy =       0.0000000000000000
    Empirical Dispersion Energy =           0.0000000000000000
    PCM Polarization Energy =               0.0000000000000000
    EFP Energy =                            0.0000000000000000
    Total Energy =                       -384.0639278987760008
    Molecular point group: c1
  Basis Set: CC-PVTZ
  Basis Set:

  -Total Gradient:
     Atom            X                  Y                   Z
    ------   -----------------  -----------------  -----------------
       1       -0.001706005446    -0.002624977153     0.000240900718
       2        0.002544927805     0.003664427251    -0.001507964045
       3       -0.000045560172    -0.000017913730     0.000001115895
       4       -0.001061910526    -0.000570781320     0.003720082205
       5        0.000056053758    -0.000007777751     0.000000830087
       6        0.000020510174     0.000007435425    -0.000001078005
       7        0.000010918331     0.000001972656    -0.000005002332
       8       -0.000038724776    -0.000003759696     0.000008147870
       9       -0.000003059220     0.000007969382     0.000014685898
      10       -0.000010989806     0.000001884735    -0.000002278232
      11        0.000019198212    -0.000004356425    -0.000001241326
      12        0.000001609451    -0.000004283018     0.000003904699
      13       -0.000001532711    -0.000007503578    -0.000012039844
      14       -0.000003488682     0.000000575415     0.000000494977
      15       -0.000003588051     0.000006380918    -0.000005846152
      16        0.000001731717    -0.000002673657    -0.000001750624
      17        0.000195512114    -0.000451148913    -0.002457146997
      18        0.000011345483     0.000006723555    -0.000032140246
      19        0.000004402888    -0.000008916485     0.000011880059
      20        0.000008649462     0.000006722387     0.000024445392

  **** Optimization is complete! (in 11 steps) ****
    Final optimized geometry and variables:
    Molecular point group: c1

    Geometry (in Angstrom), charge = 0, multiplicity = 1:

    O           -0.066554968140     0.118237519234     1.930923175739
    C            0.544315419884    -0.373734918792     1.054882120703
    C            0.136956769560    -0.365340055208    -0.395854686790
    O            1.666269293791    -1.088918623136     1.291841701769
    C           -1.116392519359     0.446122469906    -0.688899800900
    H            0.980937119196    -0.005275902810    -0.976827473125
    H            0.010088125047    -1.404828227257    -0.683275753219
    C           -1.501337638013     0.413606269166    -2.165154731353
    H           -0.961195991779     1.472065077116    -0.372664397140
    H           -1.934194644460     0.067189685634    -0.086898635625
    C           -2.757396903614     1.223525092172    -2.467118031287
    H           -0.676765869665     0.792629941808    -2.763451628558
    H           -1.654055356064    -0.616441083637    -2.476227390447
    H           -2.624286952811     2.265921880281    -2.198221984620
    H           -3.006259248859     1.182492862731    -3.521133932910
    H           -3.608352015393     0.846135772185    -1.910490775201
    C            2.885098406245    -0.382380212163     1.297249408223
    H            3.079009021544     0.075057752564     0.333192456622
    H            3.660481734843    -1.101024995256     1.507279198404
    H            2.882520209072     0.379519066314     2.066339900167

  Mulliken Charges: (a.u.)
   Center  Symbol    Alpha    Beta     Spin     Total
       1     O     4.16888  4.16888  0.00000 -0.33777
       2     C     2.78594  2.78594  0.00000  0.42811
       3     C     3.11910  3.11910  0.00000 -0.23820
       4     O     4.16943  4.16943  0.00000 -0.33885
       5     C     3.08270  3.08270  0.00000 -0.16541
       6     H     0.44418  0.44418  0.00000  0.11164
       7     H     0.43755  0.43755  0.00000  0.12489
       8     C     3.08574  3.08574  0.00000 -0.17148
       9     H     0.44807  0.44807  0.00000  0.10386
      10     H     0.44384  0.44384  0.00000  0.11231
      11     C     3.14942  3.14942  0.00000 -0.29884
      12     H     0.45573  0.45573  0.00000  0.08854
      13     H     0.45441  0.45441  0.00000  0.09118
      14     H     0.45403  0.45403  0.00000  0.09194
      15     H     0.44807  0.44807  0.00000  0.10386
      16     H     0.45316  0.45316  0.00000  0.09369
      17     C     3.03533  3.03533  0.00000 -0.07066
      18     H     0.46749  0.46749  0.00000  0.06502
      19     H     0.44269  0.44269  0.00000  0.11463
      20     H     0.45423  0.45423  0.00000  0.09154

   Total alpha = 32.00000, Total beta = 32.00000, Total charge =  0.00000

*** Psi4 exiting successfully. Buy a developer a beer!
