  ==> Input File <==

--------------------------------------------------------------------------
set {
	reference rhf
	basis 6-31G*
}

set_num_threads( 4 )
memory 2 gb

molecule MOL {
0 1

H	 -2.100215	 1.976197	 -1.173558
C	 -1.710080	 1.103532	 -0.684042
C	 -2.557343	 0.178851	 -0.097478
C	 -0.349079	 0.891292	 -0.633256
H	 -3.621921	 0.326404	 -0.126529
C	 -2.041235	 -0.939915	 0.529198
H	 0.332431	 1.586619	 -1.076924
C	 0.154804	 -0.237046	 -0.000077
H	 -2.715263	 -1.645744	 0.978182
C	 -0.672536	 -1.190720	 0.602454
N	 1.611208	 -0.370857	 -0.000034
C	 -0.218684	 -2.447060	 1.312776
O	 2.274126	 0.622059	 -0.008063
O	 2.068510	 -1.474748	 0.007823
H	 0.419086	 -2.218823	 2.155561
H	 -1.087438	 -2.985362	 1.670369
H	 0.343902	 -3.094696	 0.654606

	symmetry c1
}
set optking {
	frozen_dihedral = ("
		4 8 11 13
	")
}

ee = optimize('scf')
oeprop('DIPOLE', 'QUADRUPOLE', 'MULLIKEN_CHARGES')
f=open( 'psi4out.xyz', 'w' )
f.write( "17  " )
f.write( str(ee) + "\n" )
f.write( MOL.save_string_xyz() )
f.close()
--------------------------------------------------------------------------

    Molecular point group: c1
  Charge       = 0
  Multiplicity = 1
  Basis Set: 6-31G*
  Basis Set:
  @DF-RHF Final Energy:  -473.20581698842489
    Total Energy =                       -473.2058169884248855
    Molecular point group: c1
  Basis Set: 6-31G*
  Basis Set:
  Basis Set: 6-31G*
  Basis Set:
  @DF-RHF Final Energy:  -473.20642855362337
    Total Energy =                       -473.2064285536231409
  Basis Set: 6-31G*
  Basis Set:
  Basis Set: 6-31G*
  Basis Set:
  @DF-RHF Final Energy:  -473.20461462914142
    Total Energy =                       -473.2046146291413606
  Basis Set: 6-31G*
  Basis Set:
  Basis Set: 6-31G*
  Basis Set:
  @DF-RHF Final Energy:  -473.20667540838667
    Total Energy =                       -473.2066754083866726
  Basis Set: 6-31G*
  Basis Set:
  Basis Set: 6-31G*
  Basis Set:
  @DF-RHF Final Energy:  -473.20669617236848
    Total Energy =                       -473.2066961723684244
  Basis Set: 6-31G*
  Basis Set:
  Basis Set: 6-31G*
  Basis Set:
  @DF-RHF Final Energy:  -473.20669875001198
    Total Energy =                       -473.2066987500111281
  Basis Set: 6-31G*
  Basis Set:
  Charge       = 0
  Multiplicity = 1
  Basis Set: 6-31G*
  Basis Set:

    Orbital Energies (a.u.)
    -----------------------

    Doubly Occupied:

       1A    -20.600234     2A    -20.598740     3A    -15.852824
       4A    -11.300670     5A    -11.281483     6A    -11.266658
       7A    -11.263296     8A    -11.254402     9A    -11.253556
      10A    -11.234556    11A     -1.632485    12A     -1.415162
      13A     -1.200371    14A     -1.091807    15A     -1.072061
      16A     -0.979719    17A     -0.931856    18A     -0.848485
      19A     -0.821837    20A     -0.769346    21A     -0.732395
      22A     -0.726131    23A     -0.693671    24A     -0.660681
      25A     -0.637333    26A     -0.598637    27A     -0.591736
      28A     -0.564591    29A     -0.540783    30A     -0.520889
      31A     -0.519841    32A     -0.486305    33A     -0.479836
      34A     -0.447793    35A     -0.368169    36A     -0.353505

  @DF-RHF Final Energy:  -473.20669896095177

   => Energetics <=

    Nuclear Repulsion Energy =            509.9771316804407775
    One-Electron Energy =               -1655.1839710360181925
    Two-Electron Energy =                 672.0001403946257597
    DFT Exchange-Correlation Energy =       0.0000000000000000
    Empirical Dispersion Energy =           0.0000000000000000
    PCM Polarization Energy =               0.0000000000000000
    EFP Energy =                            0.0000000000000000
    Total Energy =                       -473.2066989609515986
    Molecular point group: c1
  Basis Set: 6-31G*
  Basis Set:

  -Total Gradient:
     Atom            X                  Y                   Z
    ------   -----------------  -----------------  -----------------
       1       -0.000004072289     0.000002690237     0.000002535581
       2       -0.000022520615    -0.000015621362    -0.000008795605
       3        0.000001855435     0.000025149723    -0.000013066350
       4       -0.000007403244    -0.000382727131    -0.000594047576
       5       -0.000000469834     0.000004889448    -0.000003910704
       6        0.000014329043    -0.000011424220    -0.000007220845
       7        0.000010815418     0.000003666636    -0.000006286087
       8        0.000042511670     0.000543013435     0.001183688556
       9        0.000004726495     0.000001988746    -0.000004734236
      10        0.000015845408     0.000029683957     0.000050976651
      11        0.000030211003    -0.000190811194    -0.001409194697
      12        0.000008512114    -0.000005236136    -0.000006270951
      13       -0.000074426619     0.000007730536     0.000834742911
      14       -0.000017741905     0.000003584575    -0.000006729892
      15       -0.000005623094     0.000003072964    -0.000010465877
      16        0.000000139253    -0.000007753719    -0.000001194345
      17        0.000003311762    -0.000011896499    -0.000000026534

  **** Optimization is complete! (in 7 steps) ****
    Final optimized geometry and variables:
    Molecular point group: c1

    Geometry (in Angstrom), charge = 0, multiplicity = 1:

    H           -2.051663176200     2.387157289802    -1.306289312120
    C           -1.663432840269     1.516092118363    -0.812336941688
    C           -2.515524057823     0.580935032328    -0.249072489403
    C           -0.300542287320     1.319070050101    -0.727722272367
    H           -3.580000614618     0.722680928683    -0.299471029994
    C           -2.006058064290    -0.537115912514     0.386643242633
    H            0.388917841286     2.027762569116    -1.140275483945
    C            0.188733870765     0.184277262760    -0.101191692391
    H           -2.683135698548    -1.244619432046     0.829184384987
    C           -0.637984992186    -0.780461050073     0.473160312721
    N            1.641120517501     0.037774039560    -0.088327979196
    C           -0.157586568639    -2.024491732158     1.186300379066
    O            2.295653829658     1.037050545324    -0.081777180903
    O            2.095553864427    -1.066389608978    -0.095324793078
    H            0.645343805851    -1.809968513147     1.878620390772
    H           -0.979657463131    -2.461054020682     1.739534557902
    H            0.214170781473    -2.756774864612     0.481841035623

  Mulliken Charges: (a.u.)
   Center  Symbol    Alpha    Beta     Spin     Total
       1     H     0.38944  0.38944  0.00000  0.22112
       2     C     3.11230  3.11230  0.00000 -0.22459
       3     C     3.08208  3.08208  0.00000 -0.16416
       4     C     3.08315  3.08315  0.00000 -0.16629
       5     H     0.38984  0.38984  0.00000  0.22032
       6     C     3.12444  3.12444  0.00000 -0.24889
       7     H     0.36700  0.36700  0.00000  0.26599
       8     C     2.92767  2.92767  0.00000  0.14466
       9     H     0.39272  0.39272  0.00000  0.21456
      10     C     2.96373  2.96373  0.00000  0.07254
      11     N     3.25539  3.25539  0.00000  0.48923
      12     C     3.24036  3.24036  0.00000 -0.48072
      13     O     4.23076  4.23076  0.00000 -0.46152
      14     O     4.23140  4.23140  0.00000 -0.46280
      15     H     0.40189  0.40189  0.00000  0.19621
      16     H     0.41386  0.41386  0.00000  0.17228
      17     H     0.39397  0.39397  0.00000  0.21205

   Total alpha = 36.00000, Total beta = 36.00000, Total charge =  0.00000
