                              Psi4 1.0.54 Driver

  ==> Input File <==

--------------------------------------------------------------------------
set {
	reference rhf
	basis cc-pvtz
}

set_num_threads( 4 )
memory 2 gb

molecule MOL {
0 1

O	 0.395927	 1.296676	 -0.000076
C	 0.503051	 0.114301	 -0.000074
C	 -0.701422	 -0.805636	 -0.000109
C	 1.858118	 -0.556123	 0.000212
C	 -0.998370	 -1.438248	 1.350337
H	 -1.552943	 -0.230581	 -0.354592
H	 -0.531760	 -1.567651	 -0.756408
H	 -1.191099	 -0.681678	 2.099126
H	 -1.867564	 -2.081372	 1.281424
H	 -0.160874	 -2.030609	 1.693761
H	 1.961106	 -1.191101	 -0.872843
H	 2.636688	 0.191085	 -0.000109
H	 1.961070	 -1.190284	 0.873873

	symmetry c1
}
set optking {
	frozen_dihedral = ("
		6 3 2 1
	")
}

ee,wfn = optimize('scf', return_wfn=True)
oeprop( wfn, 'DIPOLE', 'QUADRUPOLE', 'MULLIKEN_CHARGES')
f=open( 'psi4out.xyz', 'w' )
f.write( "13  " )
f.write( str(ee) + "\n" )
f.write( MOL.save_string_xyz() )
f.close()
--------------------------------------------------------------------------

    Molecular point group: c1
  Charge       = 0
  Multiplicity = 1
  Basis Set: CC-PVTZ
  Basis Set:
  @DF-RHF Final Energy:  -231.08053236780069
    Total Energy =                       -231.0805323678007994
    Molecular point group: c1
  Basis Set: CC-PVTZ
  Basis Set:
  Basis Set: CC-PVTZ
  Basis Set:
  @DF-RHF Final Energy:  -231.08113296545716
    Total Energy =                       -231.0811329654572148
  Basis Set: CC-PVTZ
  Basis Set:
  Basis Set: CC-PVTZ
  Basis Set:
  @DF-RHF Final Energy:  -231.08118874535285
    Total Energy =                       -231.0811887453527333
  Basis Set: CC-PVTZ
  Basis Set:
  Basis Set: CC-PVTZ
  Basis Set:
  @DF-RHF Final Energy:  -231.08112096689652
    Total Energy =                       -231.0811209668963784
  Basis Set: CC-PVTZ
  Basis Set:
  @DF-RHF Final Energy:  -231.08123155040354
    Total Energy =                       -231.0812315504035155
  Basis Set: CC-PVTZ
  Basis Set:
  @DF-RHF Final Energy:  -231.08124523830946
    Total Energy =                       -231.0812452383094637
  Basis Set: CC-PVTZ
  Basis Set:
  Basis Set: CC-PVTZ
  Basis Set:
  @DF-RHF Final Energy:  -231.08125603010564
    Total Energy =                       -231.0812560301057204
  Basis Set: CC-PVTZ
  Basis Set:
  Basis Set: CC-PVTZ
  Basis Set:
  @DF-RHF Final Energy:  -231.08125890393967
    Total Energy =                       -231.0812589039396698
  Basis Set: CC-PVTZ
  Basis Set:
  Charge       = 0
  Multiplicity = 1
  Basis Set: CC-PVTZ
  Basis Set:

    Orbital Energies (a.u.)
    -----------------------

    Doubly Occupied:

       1A    -20.538505     2A    -11.320410     3A    -11.232006
       4A    -11.227950     5A    -11.227503     6A     -1.398327
       7A     -1.067847     8A     -0.997297     9A     -0.886218
      10A     -0.735109    11A     -0.656519    12A     -0.650096
      13A     -0.611589    14A     -0.596227    15A     -0.563448
      16A     -0.541613    17A     -0.530210    18A     -0.504122
      19A     -0.486331    20A     -0.402290

  @DF-RHF Final Energy:  -231.08125899649994

   => Energetics <=

    Nuclear Repulsion Energy =            177.2540843190970747
    One-Electron Energy =                -664.3234519804329921
    Two-Electron Energy =                 255.9881086648357496
    DFT Exchange-Correlation Energy =       0.0000000000000000
    Empirical Dispersion Energy =           0.0000000000000000
    PCM Polarization Energy =               0.0000000000000000
    EFP Energy =                            0.0000000000000000
    Total Energy =                       -231.0812589965001962
    Molecular point group: c1
  Basis Set: CC-PVTZ
  Basis Set:

  -Total Gradient:
     Atom            X                  Y                   Z
    ------   -----------------  -----------------  -----------------
       1        0.000010003028     0.000006695656    -0.000785956233
       2       -0.000043851215     0.000034343437     0.001260740234
       3        0.000215395144    -0.000244917647    -0.001210771353
       4       -0.000005879934     0.000011376548     0.000000320526
       5       -0.000006827402    -0.000008319347     0.000017141552
       6       -0.000168799140     0.000202863804     0.000728603532
       7       -0.000002447539    -0.000000959324    -0.000003920764
       8        0.000000870488     0.000001077481    -0.000002409028
       9        0.000002716718     0.000002234764    -0.000002495341
      10        0.000000091957     0.000001276764    -0.000000975441
      11        0.000000502061     0.000000446840     0.000006314595
      12       -0.000001050515    -0.000009846307    -0.000001873627
      13       -0.000000723652     0.000003727328    -0.000004718652

  **** Optimization is complete! (in 9 steps) ****
    Final optimized geometry and variables:
    Molecular point group: c1

    Geometry (in Angstrom), charge = 0, multiplicity = 1:

    O            0.154447570969     1.557380870212    -0.277373944140
    C            0.289306391774     0.377265417169    -0.284466148707
    C           -0.909576599349    -0.550247124215    -0.297074791581
    C            1.660758286964    -0.257996392033    -0.294022496668
    C           -1.213223933547    -1.110261456320     1.096667448071
    H           -1.755989010457     0.021670110952    -0.650762450380
    H           -0.730102538265    -1.367145927183    -0.988402465279
    H           -1.403180652735    -0.307494038930     1.798385441339
    H           -2.092799521589    -1.740362038357     1.062103067280
    H           -0.395385586395    -1.708311359414     1.480352083921
    H            1.831870792173    -0.711722991777    -1.265077864551
    H            2.414670679932     0.492668813332    -0.113582706057
    H            1.736457029221    -1.044791795672     0.446463090898

  Mulliken Charges: (a.u.)
   Center  Symbol    Alpha    Beta     Spin     Total
       1     O     4.17406  4.17406  0.00000 -0.34813
       2     C     2.85376  2.85376  0.00000  0.29248
       3     C     3.09666  3.09666  0.00000 -0.19333
       4     C     3.15476  3.15476  0.00000 -0.30952
       5     C     3.15199  3.15199  0.00000 -0.30399
       6     H     0.43815  0.43815  0.00000  0.12370
       7     H     0.45142  0.45142  0.00000  0.09717
       8     H     0.44487  0.44487  0.00000  0.11025
       9     H     0.44467  0.44467  0.00000  0.11067
      10     H     0.45387  0.45387  0.00000  0.09226
      11     H     0.44888  0.44888  0.00000  0.10223
      12     H     0.43565  0.43565  0.00000  0.12871
      13     H     0.45126  0.45126  0.00000  0.09748

   Total alpha = 20.00000, Total beta = 20.00000, Total charge =  0.00000

*** Psi4 exiting successfully. Buy a developer a beer!
