  ==> Input File <==

--------------------------------------------------------------------------
set {
	reference rhf
	basis 6-31G*
}

set_num_threads( 1 )
memory 2 gb

molecule MOL {
0 1

O	 1.214711	 1.306902	 -0.000018
C	 1.122059	 0.121804	 -0.000188
C	 -0.170150	 -0.657997	 -0.000612
O	 2.172624	 -0.688929	 0.000216
C	 -1.412532	 0.227344	 -0.000452
H	 -0.153702	 -1.313099	 -0.867402
H	 -0.153924	 -1.313811	 0.865644
C	 -2.705632	 -0.585444	 0.080994
H	 -1.417547	 0.838009	 -0.897987
H	 -1.359476	 0.919131	 0.834484
C	 -3.955359	 0.293864	 0.082977
H	 -2.753355	 -1.277478	 -0.757389
H	 -2.694228	 -1.197377	 0.980704
H	 -4.013588	 0.893426	 -0.820787
H	 -4.857735	 -0.306653	 0.141051
H	 -3.954336	 0.973651	 0.930048
C	 3.452279	 -0.082609	 0.000533
H	 3.583069	 0.529321	 -0.880332
H	 4.163299	 -0.894027	 0.001117
H	 3.582335	 0.529955	 0.881077

	symmetry c1
}
set optking {
	frozen_dihedral = ("
		9 5 8 12,
		1 2 3 6,
		1 2 4 17
	")
}

ee = energy('scf')
oeprop('DIPOLE', 'QUADRUPOLE', 'MULLIKEN_CHARGES')
f=open( 'psi4out.xyz', 'w' )
f.write( "20  " )
f.write( str(ee) + "\n" )
f.write( MOL.save_string_xyz() )
f.close()
--------------------------------------------------------------------------

    Molecular point group: c1

    Geometry (in Angstrom), charge = 0, multiplicity = 1:

       Center              X                  Y                   Z               Mass
    ------------   -----------------  -----------------  -----------------  -----------------
           O          1.214362567061     1.306416582956    -0.020482789063    15.994914619560
           C          1.121710567061     0.121318582956    -0.020652789063    12.000000000000
           C         -0.170498432939    -0.658482417044    -0.021076789063    12.000000000000
           O          2.172275567061    -0.689414417044    -0.020248789063    15.994914619560
           C         -1.412880432939     0.226858582956    -0.020916789063    12.000000000000
           H         -0.154050432939    -1.313584417044    -0.887866789063     1.007825032070
           H         -0.154272432939    -1.314296417044     0.845179210937     1.007825032070
           C         -2.705980432939    -0.585929417044     0.060529210937    12.000000000000
           H         -1.417895432939     0.837523582956    -0.918451789063     1.007825032070
           H         -1.359824432939     0.918645582956     0.814019210937     1.007825032070
           C         -3.955707432939     0.293378582956     0.062512210937    12.000000000000
           H         -2.753703432939    -1.277963417044    -0.777853789063     1.007825032070
           H         -2.694576432939    -1.197862417044     0.960239210937     1.007825032070
           H         -4.013936432939     0.892940582956    -0.841251789063     1.007825032070
           H         -4.858083432939    -0.307138417044     0.120586210937     1.007825032070
           H         -3.954684432939     0.973165582956     0.909583210937     1.007825032070
           C          3.451930567061    -0.083094417044    -0.019931789063    12.000000000000
           H          3.582720567061     0.528835582956    -0.900796789063     1.007825032070
           H          4.162950567061    -0.894512417044    -0.019347789063     1.007825032070
           H          3.581986567061     0.529469582956     0.860612210937     1.007825032070

  Charge       = 0
  Multiplicity = 1
  Basis Set: 6-31G*
  Basis Set:

    Orbital Energies (a.u.)
    -----------------------

    Doubly Occupied:

       1A    -20.603779     2A    -20.545542     3A    -11.372419
       4A    -11.280969     5A    -11.235731     6A    -11.220324
       7A    -11.219336     8A    -11.210665     9A     -1.469473
      10A     -1.362917    11A     -1.088771    12A     -1.024441
      13A     -0.969157    14A     -0.885885    15A     -0.804051
      16A     -0.767623    17A     -0.696866    18A     -0.683809
      19A     -0.672020    20A     -0.646094    21A     -0.597523
      22A     -0.592100    23A     -0.578909    24A     -0.539331
      25A     -0.537468    26A     -0.522804    27A     -0.500699
      28A     -0.478269    29A     -0.473407    30A     -0.470646
      31A     -0.455826    32A     -0.437073

  @DF-RHF Final Energy:  -383.94155557029080

   => Energetics <=

    Nuclear Repulsion Energy =            381.0812909115479670
    One-Electron Energy =               -1278.1579904286727469
    Two-Electron Energy =                 513.1351439468338640
    DFT Exchange-Correlation Energy =       0.0000000000000000
    Empirical Dispersion Energy =           0.0000000000000000
    PCM Polarization Energy =               0.0000000000000000
    EFP Energy =                            0.0000000000000000
    Total Energy =                       -383.9415555702909160

  Mulliken Charges: (a.u.)
   Center  Symbol    Alpha    Beta     Spin     Total
       1     O     4.28597  4.28597  0.00000 -0.57194
       2     C     2.60530  2.60530  0.00000  0.78941
       3     C     3.20817  3.20817  0.00000 -0.41635
       4     O     4.30721  4.30721  0.00000 -0.61442
       5     C     3.15116  3.15116  0.00000 -0.30232
       6     H     0.40053  0.40053  0.00000  0.19893
       7     H     0.40075  0.40075  0.00000  0.19851
       8     C     3.15426  3.15426  0.00000 -0.30852
       9     H     0.41281  0.41281  0.00000  0.17438
      10     H     0.41101  0.41101  0.00000  0.17798
      11     C     3.23932  3.23932  0.00000 -0.47864
      12     H     0.42303  0.42303  0.00000  0.15394
      13     H     0.42287  0.42287  0.00000  0.15426
      14     H     0.42004  0.42004  0.00000  0.15991
      15     H     0.41874  0.41874  0.00000  0.16253
      16     H     0.41987  0.41987  0.00000  0.16025
      17     C     3.09246  3.09246  0.00000 -0.18491
      18     H     0.40905  0.40905  0.00000  0.18190
      19     H     0.40840  0.40840  0.00000  0.18319
      20     H     0.40904  0.40904  0.00000  0.18191

   Total alpha = 32.00000, Total beta = 32.00000, Total charge = -0.00000
