  ==> Input File <==

--------------------------------------------------------------------------
set {
	reference rhf
	basis 6-31G*
}

set_num_threads( 1 )
memory 2 gb

molecule MOL {
0 1

O	 -2.821601	 1.309235	 -0.001213
C	 -2.668563	 0.129746	 -0.000350
C	 -3.801572	 -0.864014	 -0.000442
O	 -1.481751	 -0.454642	 0.000584
H	 -4.417280	 -0.689587	 -0.874708
H	 -3.443784	 -1.883046	 -0.000565
H	 -4.417179	 -0.689832	 0.873954
C	 -0.334255	 0.388708	 0.000906
C	 0.891947	 -0.504646	 0.000751
H	 -0.365390	 1.025305	 -0.873475
H	 -0.365484	 1.024911	 0.875569
C	 2.191998	 0.301789	 0.000897
H	 0.855148	 -1.151283	 -0.871571
H	 0.855132	 -1.151660	 0.872805
C	 2.189941	 1.435418	 1.028130
H	 3.031519	 -0.361493	 0.201764
H	 2.362183	 0.717737	 -0.990620
C	 3.488976	 2.240013	 1.029161
H	 2.020352	 1.021483	 2.019579
H	 1.352984	 2.100485	 0.827483
H	 4.341659	 1.607983	 1.260431
H	 3.457282	 3.035412	 1.767112
H	 3.669104	 2.695363	 0.059512

	symmetry c1
}
set optking {
	frozen_dihedral = ("
		13 9 8 10,
		2 4 8 10,
		19 15 12 16,
		1 2 4 8
	")
}

ee = energy('scf')
oeprop('DIPOLE', 'QUADRUPOLE', 'MULLIKEN_CHARGES')
f=open( 'psi4out.xyz', 'w' )
f.write( "23  " )
f.write( str(ee) + "\n" )
f.write( MOL.save_string_xyz() )
f.close()
--------------------------------------------------------------------------

    Molecular point group: c1

    Geometry (in Angstrom), charge = 0, multiplicity = 1:

       Center              X                  Y                   Z               Mass
    ------------   -----------------  -----------------  -----------------  -----------------
           O         -2.542399734833     0.859177322117    -0.230930642184    15.994914619560
           C         -2.389361734833    -0.320311677883    -0.230067642184    12.000000000000
           C         -3.522370734833    -1.314071677883    -0.230159642184    12.000000000000
           O         -1.202549734833    -0.904699677883    -0.229133642184    15.994914619560
           H         -4.138078734833    -1.139644677883    -1.104425642184     1.007825032070
           H         -3.164582734833    -2.333103677883    -0.230282642184     1.007825032070
           H         -4.137977734833    -1.139889677883     0.644236357816     1.007825032070
           C         -0.055053734833    -0.061349677883    -0.228811642184    12.000000000000
           C          1.171148265167    -0.954703677883    -0.228966642184    12.000000000000
           H         -0.086188734833     0.575247322117    -1.103192642184     1.007825032070
           H         -0.086282734833     0.574853322117     0.645851357816     1.007825032070
           C          2.471199265167    -0.148268677883    -0.228820642184    12.000000000000
           H          1.134349265167    -1.601340677883    -1.101288642184     1.007825032070
           H          1.134333265167    -1.601717677883     0.643087357816     1.007825032070
           C          2.469142265167     0.985360322117     0.798412357816    12.000000000000
           H          3.310720265167    -0.811550677883    -0.027953642184     1.007825032070
           H          2.641384265167     0.267679322117    -1.220337642184     1.007825032070
           C          3.768177265167     1.789955322117     0.799443357816    12.000000000000
           H          2.299553265167     0.571425322117     1.789861357816     1.007825032070
           H          1.632185265167     1.650427322117     0.597765357816     1.007825032070
           H          4.620860265167     1.157925322117     1.030713357816     1.007825032070
           H          3.736483265167     2.585354322117     1.537394357816     1.007825032070
           H          3.948305265167     2.245305322117    -0.170205642184     1.007825032070

  Charge       = 0
  Multiplicity = 1
  Basis Set: 6-31G*
  Basis Set:

    Orbital Energies (a.u.)
    -----------------------

    Doubly Occupied:

       1A    -20.602503     2A    -20.540374     3A    -11.373921
       4A    -11.280305     5A    -11.232266     6A    -11.224037
       7A    -11.223357     8A    -11.221257     9A    -11.212686
      10A     -1.467615    11A     -1.360498    12A     -1.097385
      13A     -1.038910    14A     -1.002128    15A     -0.930999
      16A     -0.853065    17A     -0.790377    18A     -0.778974
      19A     -0.689065    20A     -0.684779    21A     -0.670480
      22A     -0.638301    23A     -0.611416    24A     -0.588124
      25A     -0.578140    26A     -0.572480    27A     -0.564583
      28A     -0.527378    29A     -0.526252    30A     -0.515061
      31A     -0.495222    32A     -0.475650    33A     -0.466673
      34A     -0.460673    35A     -0.448328    36A     -0.435852

  @DF-RHF Final Energy:  -422.97484117412461

   => Energetics <=

    Nuclear Repulsion Energy =            459.4621597348331647
    One-Electron Energy =               -1486.5157724743000927
    Two-Electron Energy =                 604.0787715653420946
    DFT Exchange-Correlation Energy =       0.0000000000000000
    Empirical Dispersion Energy =           0.0000000000000000
    PCM Polarization Energy =               0.0000000000000000
    EFP Energy =                            0.0000000000000000
    Total Energy =                       -422.9748411741247764

  Mulliken Charges: (a.u.)
   Center  Symbol    Alpha    Beta     Spin     Total
       1     O     4.28422  4.28422  0.00000 -0.56845
       2     C     2.61541  2.61541  0.00000  0.76919
       3     C     3.28780  3.28780  0.00000 -0.57560
       4     O     4.31401  4.31401  0.00000 -0.62803
       5     H     0.39754  0.39754  0.00000  0.20492
       6     H     0.39982  0.39982  0.00000  0.20035
       7     H     0.39758  0.39758  0.00000  0.20485
       8     C     2.99947  2.99947  0.00000  0.00106
       9     C     3.16465  3.16465  0.00000 -0.32930
      10     H     0.41112  0.41112  0.00000  0.17776
      11     H     0.40710  0.40710  0.00000  0.18581
      12     C     3.15889  3.15889  0.00000 -0.31778
      13     H     0.41214  0.41214  0.00000  0.17572
      14     H     0.41437  0.41437  0.00000  0.17125
      15     C     3.16238  3.16238  0.00000 -0.32477
      16     H     0.41705  0.41705  0.00000  0.16591
      17     H     0.42052  0.42052  0.00000  0.15897
      18     C     3.23832  3.23832  0.00000 -0.47664
      19     H     0.42093  0.42093  0.00000  0.15813
      20     H     0.41721  0.41721  0.00000  0.16558
      21     H     0.42134  0.42134  0.00000  0.15732
      22     H     0.41747  0.41747  0.00000  0.16505
      23     H     0.42065  0.42065  0.00000  0.15870

   Total alpha = 36.00000, Total beta = 36.00000, Total charge = -0.00000
