  ==> Input File <==

--------------------------------------------------------------------------
set {
	reference rhf
	basis cc-pvtz
}

set_num_threads( 4 )
memory 2 gb

molecule MOL {
0 1

H	 -2.362939	 -1.309000	 -0.383250
C	 -1.359344	 -1.272457	 0.020748
C	 -0.684082	 0.000127	 -0.464918
H	 -0.825835	 -2.151141	 -0.318537
H	 -1.416276	 -1.292399	 1.099455
C	 -1.359089	 1.272668	 0.021259
N	 0.742439	 -0.000109	 0.007333
H	 -0.596914	 0.000345	 -1.538146
H	 -2.362696	 1.309620	 -0.382686
H	 -0.825392	 2.151374	 -0.317674
H	 -1.415983	 1.292181	 1.099973
O	 1.145940	 -0.989121	 0.519863
O	 1.374695	 0.988682	 -0.162478

	symmetry c1
}
set optking {
	frozen_dihedral = ("
		12 7 3 8
	")
}

ee = optimize('scf')
oeprop('DIPOLE', 'QUADRUPOLE', 'MULLIKEN_CHARGES')
f=open( 'psi4out.xyz', 'w' )
f.write( "13  " )
f.write( str(ee) + "\n" )
f.write( MOL.save_string_xyz() )
f.close()
--------------------------------------------------------------------------

    Molecular point group: c1
  Charge       = 0
  Multiplicity = 1
  Basis Set: CC-PVTZ
  Basis Set:
  @DF-RHF Final Energy:  -321.86163434662205
    Total Energy =                       -321.8616343466220542
    Molecular point group: c1
  Basis Set: CC-PVTZ
  Basis Set:
  Basis Set: CC-PVTZ
  Basis Set:
  @DF-RHF Final Energy:  -321.85850023079070
    Total Energy =                       -321.8585002307905825
  Basis Set: CC-PVTZ
  Basis Set:
  Basis Set: CC-PVTZ
  Basis Set:
  @DF-RHF Final Energy:  -321.85970640884887
    Total Energy =                       -321.8597064088484672
  Basis Set: CC-PVTZ
  Basis Set:
  Basis Set: CC-PVTZ
  Basis Set:
  @DF-RHF Final Energy:  -321.86224409265805
    Total Energy =                       -321.8622440926583295
  Basis Set: CC-PVTZ
  Basis Set:
  Basis Set: CC-PVTZ
  Basis Set:
  @DF-RHF Final Energy:  -321.86257888491713
    Total Energy =                       -321.8625788849170704
  Basis Set: CC-PVTZ
  Basis Set:
  Basis Set: CC-PVTZ
  Basis Set:
  @DF-RHF Final Energy:  -321.86260661431720
    Total Energy =                       -321.8626066143173148
  Basis Set: CC-PVTZ
  Basis Set:
  Basis Set: CC-PVTZ
  Basis Set:
  @DF-RHF Final Energy:  -321.86261009564470
    Total Energy =                       -321.8626100956445271
  Basis Set: CC-PVTZ
  Basis Set:
  Charge       = 0
  Multiplicity = 1
  Basis Set: CC-PVTZ
  Basis Set:

    Orbital Energies (a.u.)
    -----------------------

    Doubly Occupied:

       1A    -20.591140     2A    -20.585927     3A    -15.833797
       4A    -11.306616     5A    -11.240814     6A    -11.237283
       7A     -1.634469     8A     -1.418223     9A     -1.140114
      10A     -0.968465    11A     -0.958156    12A     -0.815213
      13A     -0.763852    14A     -0.730156    15A     -0.723392
      16A     -0.641401    17A     -0.594706    18A     -0.587172
      19A     -0.570324    20A     -0.523551    21A     -0.521410
      22A     -0.483855    23A     -0.472439    24A     -0.451806

  @DF-RHF Final Energy:  -321.86261050908774

   => Energetics <=

    Nuclear Repulsion Energy =            257.2538042140743073
    One-Electron Energy =                -948.6442721211190019
    Two-Electron Energy =                 369.5278573979570638
    DFT Exchange-Correlation Energy =       0.0000000000000000
    Empirical Dispersion Energy =           0.0000000000000000
    PCM Polarization Energy =               0.0000000000000000
    EFP Energy =                            0.0000000000000000
    Total Energy =                       -321.8626105090876308
    Molecular point group: c1
  Basis Set: CC-PVTZ
  Basis Set:

  -Total Gradient:
     Atom            X                  Y                   Z
    ------   -----------------  -----------------  -----------------
       1        0.000008125017     0.000003715723    -0.000001718467
       2       -0.000008641692    -0.000006338231     0.000002723117
       3        0.000099697512     0.001203907616    -0.000420108542
       4        0.000001596241    -0.000006780752    -0.000000009848
       5       -0.000002435622    -0.000000534660     0.000005461228
       6        0.000017220617     0.000006446873     0.000011912718
       7       -0.000502245586     0.000402736174     0.001459644177
       8        0.000031934011    -0.001192648951     0.000008245103
       9        0.000007777497    -0.000003373895    -0.000000586345
      10        0.000000761688     0.000009760926     0.000005401194
      11       -0.000002015635     0.000004099100    -0.000002130537
      12        0.000366009744    -0.000395934516    -0.001081016532
      13       -0.000017783796    -0.000025055409     0.000012182733

  **** Optimization is complete! (in 8 steps) ****
    Final optimized geometry and variables:
    Molecular point group: c1

    Geometry (in Angstrom), charge = 0, multiplicity = 1:

    H           -2.395026432229    -1.267930469779    -0.396988495917
    C           -1.391056587547    -1.279029850335     0.008829263544
    C           -0.685681578234    -0.015025813486    -0.443274758009
    H           -0.886750174528    -2.165760845858    -0.342146653021
    H           -1.457161747360    -1.327459068600     1.087245267882
    C           -1.373490467997     1.261729305456     0.015875633226
    N            0.751984795025     0.002896107274     0.022707782639
    H           -0.581161319982    -0.013816328102    -1.519960242649
    H           -2.386503705976     1.264970047903    -0.364691981787
    H           -0.861482051998     2.138134495312    -0.346897720698
    H           -1.418540588489     1.304728166158     1.097533263347
    O            1.192823940833    -0.968391544759     0.535448422342
    O            1.366578064946     0.994338618217    -0.191781950108

  Mulliken Charges: (a.u.)
   Center  Symbol    Alpha    Beta     Spin     Total
       1     H     0.45043  0.45043  0.00000  0.09914
       2     C     3.14236  3.14236  0.00000 -0.28472
       3     C     3.00661  3.00661  0.00000 -0.01323
       4     H     0.43517  0.43517  0.00000  0.12966
       5     H     0.44394  0.44394  0.00000  0.11211
       6     C     3.14435  3.14435  0.00000 -0.28869
       7     N     3.27535  3.27535  0.00000  0.44930
       8     H     0.43005  0.43005  0.00000  0.13990
       9     H     0.45009  0.45009  0.00000  0.09983
      10     H     0.43056  0.43056  0.00000  0.13887
      11     H     0.44669  0.44669  0.00000  0.10663
      12     O     4.16931  4.16931  0.00000 -0.33862
      13     O     4.17509  4.17509  0.00000 -0.35019

   Total alpha = 24.00000, Total beta = 24.00000, Total charge = -0.00000
