  ==> Input File <==

--------------------------------------------------------------------------
set {
	reference rhf
	basis 6-31G*
}

set_num_threads( 1 )
memory 2 gb

molecule MOL {
0 1

H	 -3.420663	 1.227371	 -1.044276
O	 -3.452007	 0.283848	 -0.965577
C	 -3.181085	 -0.079926	 0.364119
C	 -1.765924	 0.277073	 0.805136
H	 -3.327791	 -1.152017	 0.410903
H	 -3.905698	 0.375695	 1.036898
C	 -0.677594	 -0.417312	 -0.014550
H	 -1.637766	 1.358238	 0.744969
H	 -1.659588	 0.017670	 1.857098
C	 0.738335	 -0.034840	 0.421385
H	 -0.814977	 -0.178223	 -1.064632
H	 -0.802730	 -1.495410	 0.071702
C	 0.789255	 1.302604	 1.164847
H	 1.140208	 -0.825292	 1.050751
H	 1.385031	 0.017204	 -0.453646
C	 2.198265	 1.772310	 1.544613
H	 0.178658	 1.237613	 2.064093
H	 0.328107	 2.065252	 0.540725
C	 2.908098	 0.888095	 2.571601
H	 2.128867	 2.781582	 1.943164
H	 2.808097	 1.843061	 0.646113
H	 2.315077	 0.788821	 3.476924
H	 3.866564	 1.314935	 2.850865
H	 3.096307	 -0.109326	 2.188336

	symmetry c1
}
set optking {
	frozen_dihedral = ("
		20 16 13 17,
		17 13 10 7,
		11 7 4 3,
		1 2 3 5,
		7 4 3 2
	")
}

ee = energy('scf')
oeprop('DIPOLE', 'QUADRUPOLE', 'MULLIKEN_CHARGES')
f=open( 'psi4out.xyz', 'w' )
f.write( "24  " )
f.write( str(ee) + "\n" )
f.write( MOL.save_string_xyz() )
f.close()
--------------------------------------------------------------------------

    Molecular point group: c1

    Geometry (in Angstrom), charge = 0, multiplicity = 1:

       Center              X                  Y                   Z               Mass
    ------------   -----------------  -----------------  -----------------  -----------------
           H         -3.064036362970     0.724651360151    -1.761543474743     1.007825032070
           O         -3.095380362970    -0.218871639849    -1.682844474743    15.994914619560
           C         -2.824458362970    -0.582645639849    -0.353148474743    12.000000000000
           C         -1.409297362970    -0.225646639849     0.087868525257    12.000000000000
           H         -2.971164362970    -1.654736639849    -0.306364474743     1.007825032070
           H         -3.549071362970    -0.127024639849     0.319630525257     1.007825032070
           C         -0.320967362970    -0.920031639849    -0.731817474743    12.000000000000
           H         -1.281139362970     0.855518360151     0.027701525257     1.007825032070
           H         -1.302961362970    -0.485049639849     1.139830525257     1.007825032070
           C          1.094961637030    -0.537559639849    -0.295882474743    12.000000000000
           H         -0.458350362970    -0.680942639849    -1.781899474743     1.007825032070
           H         -0.446103362970    -1.998129639849    -0.645565474743     1.007825032070
           C          1.145881637030     0.799884360151     0.447579525257    12.000000000000
           H          1.496834637030    -1.328011639849     0.333483525257     1.007825032070
           H          1.741657637030    -0.485515639849    -1.170913474743     1.007825032070
           C          2.554891637030     1.269590360151     0.827345525257    12.000000000000
           H          0.535284637030     0.734893360151     1.346825525257     1.007825032070
           H          0.684733637030     1.562532360151    -0.176542474743     1.007825032070
           C          3.264724637030     0.385375360151     1.854333525257    12.000000000000
           H          2.485493637030     2.278862360151     1.225896525257     1.007825032070
           H          3.164723637030     1.340341360151    -0.071154474743     1.007825032070
           H          2.671703637030     0.286101360151     2.759656525257     1.007825032070
           H          4.223190637030     0.812215360151     2.133597525257     1.007825032070
           H          3.452933637030    -0.612045639849     1.471068525257     1.007825032070

  Charge       = 0
  Multiplicity = 1
  Basis Set: 6-31G*
  Basis Set:

    Orbital Energies (a.u.)
    -----------------------

    Doubly Occupied:

       1A    -20.552820     2A    -11.266302     3A    -11.215421
       4A    -11.214647     5A    -11.212906     6A    -11.211479
       7A    -11.210124     8A    -11.208019     9A     -1.359342
      10A     -1.093054    11A     -1.045268    12A     -0.983003
      13A     -0.916690    14A     -0.855400    15A     -0.813825
      16A     -0.758920    17A     -0.675308    18A     -0.656263
      19A     -0.629317    20A     -0.618720    21A     -0.600173
      22A     -0.576602    23A     -0.565134    24A     -0.541007
      25A     -0.524710    26A     -0.509582    27A     -0.495500
      28A     -0.484023    29A     -0.475381    30A     -0.452339
      31A     -0.442701    32A     -0.437673    33A     -0.424610

  @DF-RHF Final Energy:  -349.23608605714202

   => Energetics <=

    Nuclear Repulsion Energy =            393.0389459145629303
    One-Electron Energy =               -1252.4978549482943890
    Two-Electron Energy =                 510.2228229765887590
    DFT Exchange-Correlation Energy =       0.0000000000000000
    Empirical Dispersion Energy =           0.0000000000000000
    PCM Polarization Energy =               0.0000000000000000
    EFP Energy =                            0.0000000000000000
    Total Energy =                       -349.2360860571427565

  Mulliken Charges: (a.u.)
   Center  Symbol    Alpha    Beta     Spin     Total
       1     H     0.28359  0.28359  0.00000  0.43283
       2     O     4.36846  4.36846  0.00000 -0.73692
       3     C     2.99407  2.99407  0.00000  0.01186
       4     C     3.17635  3.17635  0.00000 -0.35270
       5     H     0.41708  0.41708  0.00000  0.16583
       6     H     0.42870  0.42870  0.00000  0.14260
       7     C     3.15449  3.15449  0.00000 -0.30898
       8     H     0.42399  0.42399  0.00000  0.15201
       9     H     0.42185  0.42185  0.00000  0.15629
      10     C     3.15494  3.15494  0.00000 -0.30989
      11     H     0.41072  0.41072  0.00000  0.17855
      12     H     0.42090  0.42090  0.00000  0.15819
      13     C     3.16074  3.16074  0.00000 -0.32148
      14     H     0.42046  0.42046  0.00000  0.15908
      15     H     0.42081  0.42081  0.00000  0.15839
      16     C     3.14962  3.14962  0.00000 -0.29924
      17     H     0.42131  0.42131  0.00000  0.15739
      18     H     0.42289  0.42289  0.00000  0.15423
      19     C     3.24108  3.24108  0.00000 -0.48217
      20     H     0.42220  0.42220  0.00000  0.15559
      21     H     0.42360  0.42360  0.00000  0.15280
      22     H     0.42308  0.42308  0.00000  0.15383
      23     H     0.41940  0.41940  0.00000  0.16121
      24     H     0.41965  0.41965  0.00000  0.16069

   Total alpha = 33.00000, Total beta = 33.00000, Total charge = -0.00000
