                              Psi4 1.0.54 Driver

  ==> Input File <==

--------------------------------------------------------------------------
set {
	reference rhf
	basis cc-pvtz
}

set_num_threads( 4 )
memory 2 gb

molecule MOL {
0 1

O	 2.868453	 1.353349	 -0.000734
C	 2.841259	 0.166180	 -0.000295
C	 1.542794	 -0.614730	 -0.000853
C	 4.113372	 -0.651103	 0.000743
C	 0.288398	 0.247429	 0.000314
H	 1.557171	 -1.273139	 -0.866508
H	 1.557484	 -1.274998	 0.863344
C	 -0.993089	 -0.581367	 -0.000217
H	 0.305153	 0.900562	 -0.864701
H	 0.305567	 0.898805	 0.866656
C	 -2.258482	 0.271340	 0.000669
H	 -1.002280	 -1.233920	 -0.870484
H	 -1.002061	 -1.235367	 0.868958
C	 -3.101342	 0.105963	 1.262007
H	 -2.861094	 0.019213	 -0.868471
H	 -1.985648	 1.317623	 -0.113264
C	 -4.364085	 0.961082	 1.255483
H	 -3.375519	 -0.939387	 1.376064
H	 -2.500175	 0.359000	 2.131196
H	 -5.003746	 0.707784	 0.416606
H	 -4.938949	 0.820281	 2.163629
H	 -4.121936	 2.015757	 1.177583
H	 4.145311	 -1.294584	 -0.871587
H	 4.970080	 0.004978	 -0.000091
H	 4.145223	 -1.291980	 0.874988

	symmetry c1
}
set optking {
	frozen_dihedral = ("
		15 11 8 12
	")
}

ee,wfn = optimize('scf', return_wfn=True)
oeprop( wfn, 'DIPOLE', 'QUADRUPOLE', 'MULLIKEN_CHARGES')
f=open( 'psi4out.xyz', 'w' )
f.write( "25  " )
f.write( str(ee) + "\n" )
f.write( MOL.save_string_xyz() )
f.close()
--------------------------------------------------------------------------

    Molecular point group: c1
  Charge       = 0
  Multiplicity = 1
  Basis Set: CC-PVTZ
  Basis Set:
  @DF-RHF Final Energy:  -387.26911512807186
    Total Energy =                       -387.2691151280716895
    Molecular point group: c1
  Basis Set: CC-PVTZ
  Basis Set:
  Basis Set: CC-PVTZ
  Basis Set:
  @DF-RHF Final Energy:  -387.26934633973093
    Total Energy =                       -387.2693463397311007
  Basis Set: CC-PVTZ
  Basis Set:
  Basis Set: CC-PVTZ
  Basis Set:
  @DF-RHF Final Energy:  -387.26940889859088
    Total Energy =                       -387.2694088985908820
  Basis Set: CC-PVTZ
  Basis Set:
  Basis Set: CC-PVTZ
  Basis Set:
  @DF-RHF Final Energy:  -387.26929715374092
    Total Energy =                       -387.2692971537408084
  Basis Set: CC-PVTZ
  Basis Set:
  Basis Set: CC-PVTZ
  Basis Set:
  @DF-RHF Final Energy:  -387.26941102698737
    Total Energy =                       -387.2694110269869725
  Basis Set: CC-PVTZ
  Basis Set:
  Charge       = 0
  Multiplicity = 1
  Basis Set: CC-PVTZ
  Basis Set:

    Orbital Energies (a.u.)
    -----------------------

    Doubly Occupied:

       1A    -20.538953     2A    -11.320625     3A    -11.230000
       4A    -11.226634     5A    -11.215541     6A    -11.214556
       7A    -11.213756     8A    -11.211211     9A    -11.205946
      10A     -1.399000    11A     -1.093784    12A     -1.056963
      13A     -1.015111    14A     -0.968882    15A     -0.891518
      16A     -0.819026    17A     -0.789399    18A     -0.731577
      19A     -0.655140    20A     -0.654321    21A     -0.636442
      22A     -0.622354    23A     -0.602969    24A     -0.582329
      25A     -0.565967    26A     -0.564383    27A     -0.541930
      28A     -0.528919    29A     -0.508676    30A     -0.493301
      31A     -0.486668    32A     -0.481636    33A     -0.464611
      34A     -0.455287    35A     -0.449583    36A     -0.401556

  @DF-RHF Final Energy:  -387.26941109768779

   => Energetics <=

    Nuclear Repulsion Energy =            441.2794303979600272
    One-Electron Energy =               -1399.4205810069156541
    Two-Electron Energy =                 570.8717395112676058
    DFT Exchange-Correlation Energy =       0.0000000000000000
    Empirical Dispersion Energy =           0.0000000000000000
    PCM Polarization Energy =               0.0000000000000000
    EFP Energy =                            0.0000000000000000
    Total Energy =                       -387.2694110976880211
    Molecular point group: c1
  Basis Set: CC-PVTZ
  Basis Set:

  -Total Gradient:
     Atom            X                  Y                   Z
    ------   -----------------  -----------------  -----------------
       1       -0.000023356127     0.000016441753    -0.000036271001
       2        0.000006479170    -0.000009296586     0.000109939545
       3       -0.000002031849    -0.000002922030    -0.000003680916
       4        0.000000476223    -0.000014940161    -0.000039734709
       5        0.000005688688     0.000032012341    -0.000035819276
       6        0.000001216051     0.000003795413    -0.000002593112
       7        0.000013532401    -0.000001211721    -0.000004065993
       8        0.000603424390     0.000956425343    -0.000690983409
       9        0.000002585754    -0.000003440958    -0.000001064019
      10       -0.000007287125     0.000007931961    -0.000004810913
      11       -0.000595333543    -0.000949706154     0.000704838620
      12       -0.000433893839    -0.000617747371     0.000463991419
      13       -0.000009647739     0.000000694402     0.000002910485
      14       -0.000014359725    -0.000040934705     0.000004811543
      15        0.000432127890     0.000617686293    -0.000462979252
      16        0.000011818261     0.000000374518    -0.000004635701
      17        0.000011804969     0.000020115068    -0.000001847493
      18       -0.000004715690    -0.000002470200    -0.000002027773
      19        0.000000827277    -0.000008676689    -0.000002631730
      20        0.000002913426    -0.000002278067     0.000004426492
      21        0.000003103542     0.000004140871     0.000003535413
      22       -0.000007298574     0.000005035603    -0.000003916642
      23        0.000011010036    -0.000012523411     0.000001324687
      24       -0.000009148175     0.000001985314    -0.000001407885
      25        0.000000064313    -0.000000490823     0.000002691619

  **** Optimization is complete! (in 6 steps) ****
    Final optimized geometry and variables:
    Molecular point group: c1

    Geometry (in Angstrom), charge = 0, multiplicity = 1:

    O            2.770126020114     1.205886755828    -0.247973229448
    C            2.745325666339     0.018701718309    -0.246144529301
    C            1.448585371058    -0.764854620925    -0.271534263879
    C            4.018714362918    -0.796229390184    -0.218479711839
    C            0.193247803992     0.094691860753    -0.301618716488
    H            1.482698078828    -1.427019436540    -1.133806772181
    H            1.445781913685    -1.421410932935     0.595650534366
    C           -1.088028376425    -0.735503780911    -0.327104311066
    H            0.226809439659     0.744671175264    -1.168439983914
    H            0.188545490017     0.749872406072     0.562477546402
    C           -2.371717150635     0.118373965779    -0.322988860412
    H           -1.078224151784    -1.385164167734    -1.197005303559
    H           -1.095579362113    -1.400037646291     0.532865365923
    C           -3.216184775159    -0.047227019449     0.938327162851
    H           -2.978834526571    -0.120546687610    -1.190420422714
    H           -2.107917435903     1.166497334725    -0.430749655932
    C           -4.464265343669     0.828179774640     0.944205726356
    H           -3.505691761644    -1.089621450173     1.040690550962
    H           -2.607597696788     0.185906658229     1.808299749076
    H           -5.108739063409     0.595859010244     0.102764822757
    H           -5.040596372808     0.685116866340     1.851098731065
    H           -4.204969314391     1.879633735490     0.879372199120
    H            4.069284211095    -1.440643497094    -1.089224842148
    H            4.874168268987    -0.138645910735    -0.202919814509
    H            4.034060990910    -1.435975083026     0.657049402698

  Mulliken Charges: (a.u.)
   Center  Symbol    Alpha    Beta     Spin     Total
       1     O     4.17062  4.17062  0.00000 -0.34124
       2     C     2.86213  2.86213  0.00000  0.27573
       3     C     3.11520  3.11520  0.00000 -0.23039
       4     C     3.15131  3.15131  0.00000 -0.30262
       5     C     3.08181  3.08181  0.00000 -0.16363
       6     H     0.44558  0.44558  0.00000  0.10883
       7     H     0.44508  0.44508  0.00000  0.10984
       8     C     3.10009  3.10009  0.00000 -0.20017
       9     H     0.44510  0.44510  0.00000  0.10981
      10     H     0.44558  0.44558  0.00000  0.10883
      11     C     3.09580  3.09580  0.00000 -0.19160
      12     H     0.44912  0.44912  0.00000  0.10176
      13     H     0.45570  0.45570  0.00000  0.08860
      14     C     3.08180  3.08180  0.00000 -0.16360
      15     H     0.44888  0.44888  0.00000  0.10224
      16     H     0.45226  0.45226  0.00000  0.09549
      17     C     3.15080  3.15080  0.00000 -0.30160
      18     H     0.45452  0.45452  0.00000  0.09096
      19     H     0.45449  0.45449  0.00000  0.09103
      20     H     0.45530  0.45530  0.00000  0.08941
      21     H     0.44880  0.44880  0.00000  0.10240
      22     H     0.45397  0.45397  0.00000  0.09206
      23     H     0.45035  0.45035  0.00000  0.09930
      24     H     0.43534  0.43534  0.00000  0.12931
      25     H     0.45039  0.45039  0.00000  0.09922

   Total alpha = 36.00000, Total beta = 36.00000, Total charge =  0.00000

*** Psi4 exiting successfully. Buy a developer a beer!
