  ==> Input File <==

--------------------------------------------------------------------------
set {
	reference rhf
	basis cc-pvtz
}

set_num_threads( 4 )
memory 2 gb

molecule MOL {
0 1

O	 0.103000	 1.279000	 0.000000
C	 0.058000	 0.091000	 0.000000
C	 -1.205000	 -0.737000	 0.000000
O	 1.138000	 -0.678000	 0.000000
C	 -2.473000	 0.108000	 -0.000000
H	 -1.165000	 -1.390000	 -0.866000
H	 -1.165000	 -1.390000	 0.867000
H	 -2.516000	 0.746000	 -0.875000
H	 -3.348000	 -0.532000	 -0.000000
H	 -2.516000	 0.746000	 0.874000
C	 2.394000	 -0.023000	 -0.000000
H	 2.500000	 0.594000	 -0.881000
H	 3.135000	 -0.807000	 -0.001000
H	 2.501000	 0.593000	 0.881000

	symmetry c1
}
ee = optimize('scf')
oeprop('DIPOLE', 'QUADRUPOLE', 'MULLIKEN_CHARGES')
f=open( 'psi4out.xyz', 'w' )
f.write( "14  " )
f.write( str(ee) + "\n" )
f.write( MOL.save_string_xyz() )
f.close()
--------------------------------------------------------------------------

    Molecular point group: c1
  Charge       = 0
  Multiplicity = 1
  Basis Set: CC-PVTZ
  Basis Set:
  @DF-RHF Final Energy:  -305.98761143035415
    Total Energy =                       -305.9876114303541499
    Molecular point group: c1
  Basis Set: CC-PVTZ
  Basis Set:
  Basis Set: CC-PVTZ
  Basis Set:
  @DF-RHF Final Energy:  -305.98771211891699
    Total Energy =                       -305.9877121189168747
  Basis Set: CC-PVTZ
  Basis Set:
  Basis Set: CC-PVTZ
  Basis Set:
  @DF-RHF Final Energy:  -305.98771471320714
    Total Energy =                       -305.9877147132072537
  Basis Set: CC-PVTZ
  Basis Set:
  Basis Set: CC-PVTZ
  Basis Set:
  @DF-RHF Final Energy:  -305.98771131340720
    Total Energy =                       -305.9877113134073170
  Basis Set: CC-PVTZ
  Basis Set:
  Charge       = 0
  Multiplicity = 1
  Basis Set: CC-PVTZ
  Basis Set:

    Orbital Energies (a.u.)
    -----------------------

    Doubly Occupied:

       1A    -20.597167     2A    -20.534996     3A    -11.365214
       4A    -11.279142     5A    -11.237252     6A    -11.214852
       7A     -1.473122     8A     -1.366743     9A     -1.065431
      10A     -0.981254    11A     -0.878885    12A     -0.771029
      13A     -0.702953    14A     -0.686122    15A     -0.675546
      16A     -0.621671    17A     -0.604235    18A     -0.545627
      19A     -0.538574    20A     -0.523145    21A     -0.515971
      22A     -0.497277    23A     -0.461309    24A     -0.442673

  @DF-RHF Final Energy:  -305.98771497463042

   => Energetics <=

    Nuclear Repulsion Energy =            247.5664694126617462
    One-Electron Energy =                -907.9479874763380849
    Two-Electron Energy =                 354.3938030890460595
    DFT Exchange-Correlation Energy =       0.0000000000000000
    Empirical Dispersion Energy =           0.0000000000000000
    PCM Polarization Energy =               0.0000000000000000
    EFP Energy =                            0.0000000000000000
    Total Energy =                       -305.9877149746303076
    Molecular point group: c1
  Basis Set: CC-PVTZ
  Basis Set:

  -Total Gradient:
     Atom            X                  Y                   Z
    ------   -----------------  -----------------  -----------------
       1        0.000057924684    -0.000032701766     0.000011929438
       2        0.000048781658     0.000011577134    -0.000022429790
       3       -0.000042720106     0.000010055424     0.000004328170
       4       -0.000036883418     0.000087518349     0.000019844924
       5        0.000001237700    -0.000028182900    -0.000001818423
       6       -0.000010803286    -0.000027360411    -0.000006815444
       7       -0.000013054807    -0.000027064128     0.000006848979
       8       -0.000008050027     0.000010526277    -0.000007057223
       9       -0.000010767286     0.000000581322     0.000001571424
      10       -0.000009611969     0.000009808799     0.000007397565
      11        0.000005268365    -0.000046126139    -0.000028110776
      12        0.000003898147     0.000009871495    -0.000004985130
      13        0.000021720091     0.000013495405     0.000005055255
      14       -0.000006939744     0.000008001136     0.000014241030

  **** Optimization is complete! (in 5 steps) ****
    Final optimized geometry and variables:
    Molecular point group: c1

    Geometry (in Angstrom), charge = 0, multiplicity = 1:

    O            0.074769272096     1.259871927884     0.000487446773
    C            0.029489543854     0.077182612367     0.000077541505
    C           -1.232113085358    -0.748027071698     0.000014705469
    O            1.106772735132    -0.690081357706    -0.000204246127
    C           -2.501422624491     0.088591691196    -0.000052326051
    H           -1.188777412707    -1.400384310447    -0.865132779078
    H           -1.188857387366    -1.400311950641     0.865225283509
    H           -2.548170018411     0.725503834102    -0.873205419472
    H           -3.371613206678    -0.556398274759    -0.000040109663
    H           -2.548215315686     0.725570336610     0.873047248217
    C            2.363729467371    -0.043783576394    -0.000327135855
    H            2.475250517908     0.572804075514    -0.879883108462
    H            3.102281639205    -0.828873052957    -0.000058093927
    H            2.475093417545     0.573207011108     0.878972198109

  Mulliken Charges: (a.u.)
   Center  Symbol    Alpha    Beta     Spin     Total
       1     O     4.19629  4.19629  0.00000 -0.39259
       2     C     2.80245  2.80245  0.00000  0.39510
       3     C     3.09449  3.09449  0.00000 -0.18897
       4     O     4.14709  4.14709  0.00000 -0.29418
       5     C     3.13977  3.13977  0.00000 -0.27953
       6     H     0.44122  0.44122  0.00000  0.11755
       7     H     0.44123  0.44123  0.00000  0.11755
       8     H     0.44836  0.44836  0.00000  0.10327
       9     H     0.45034  0.45034  0.00000  0.09931
      10     H     0.44836  0.44836  0.00000  0.10329
      11     C     3.03628  3.03628  0.00000 -0.07257
      12     H     0.45432  0.45432  0.00000  0.09136
      13     H     0.44549  0.44549  0.00000  0.10902
      14     H     0.45431  0.45431  0.00000  0.09138

   Total alpha = 24.00000, Total beta = 24.00000, Total charge = -0.00000
