  ==> Input File <==

--------------------------------------------------------------------------
set {
	reference rhf
	basis 6-31G*
}

set_num_threads( 4 )
memory 2 gb

molecule MOL {
0 1

H	 -2.492025	 -2.288019	 -0.385325
C	 -1.938446	 -1.381868	 -0.224650
C	 -2.589893	 -0.175397	 -0.032316
C	 -0.560430	 -1.408926	 -0.207671
H	 -3.664181	 -0.133531	 -0.041957
C	 -1.864536	 0.983163	 0.173415
H	 -0.026976	 -2.324953	 -0.352923
C	 0.154804	 -0.237046	 -0.000077
H	 -2.388617	 1.909279	 0.320876
C	 -0.471409	 0.998221	 0.197414
N	 1.611208	 -0.370857	 -0.000034
C	 0.219668	 2.323695	 0.430787
O	 2.274126	 0.622059	 -0.008063
O	 2.068510	 -1.474748	 0.007823
H	 0.860898	 2.589054	 -0.398392
H	 -0.528591	 3.096791	 0.552466
H	 0.839389	 2.298421	 1.316468

	symmetry c1
}
set optking {
	frozen_dihedral = ("
		4 8 11 13
	")
}

ee = optimize('scf')
oeprop('DIPOLE', 'QUADRUPOLE', 'MULLIKEN_CHARGES')
f=open( 'psi4out.xyz', 'w' )
f.write( "17  " )
f.write( str(ee) + "\n" )
f.write( MOL.save_string_xyz() )
f.close()
--------------------------------------------------------------------------

    Molecular point group: c1
  Charge       = 0
  Multiplicity = 1
  Basis Set: 6-31G*
  Basis Set:
  @DF-RHF Final Energy:  -473.20648254193628
    Total Energy =                       -473.2064825419367935
    Molecular point group: c1
  Basis Set: 6-31G*
  Basis Set:
  Basis Set: 6-31G*
  Basis Set:
  @DF-RHF Final Energy:  -473.20622458121244
    Total Energy =                       -473.2062245812126093
  Basis Set: 6-31G*
  Basis Set:
  Basis Set: 6-31G*
  Basis Set:
  @DF-RHF Final Energy:  -473.20538859878474
    Total Energy =                       -473.2053885987850208
  Basis Set: 6-31G*
  Basis Set:
  Basis Set: 6-31G*
  Basis Set:
  @DF-RHF Final Energy:  -473.20646744798336
    Total Energy =                       -473.2064674479828454
  Basis Set: 6-31G*
  Basis Set:
  Basis Set: 6-31G*
  Basis Set:
  @DF-RHF Final Energy:  -473.20652770427859
    Total Energy =                       -473.2065277042784146
  Basis Set: 6-31G*
  Basis Set:
  Basis Set: 6-31G*
  Basis Set:
  @DF-RHF Final Energy:  -473.20659412691987
    Total Energy =                       -473.2065941269197538
  Basis Set: 6-31G*
  Basis Set:
  Basis Set: 6-31G*
  Basis Set:
  @DF-RHF Final Energy:  -473.20659597051173
    Total Energy =                       -473.2065959705114437
  Basis Set: 6-31G*
  Basis Set:
  Charge       = 0
  Multiplicity = 1
  Basis Set: 6-31G*
  Basis Set:

    Orbital Energies (a.u.)
    -----------------------

    Doubly Occupied:

       1A    -20.598188     2A    -20.596029     3A    -15.853059
       4A    -11.300834     5A    -11.283173     6A    -11.265727
       7A    -11.264553     8A    -11.253783     9A    -11.252936
      10A    -11.232808    11A     -1.631571    12A     -1.413453
      13A     -1.199372    14A     -1.091305    15A     -1.071515
      16A     -0.979757    17A     -0.930404    18A     -0.846392
      19A     -0.822895    20A     -0.768541    21A     -0.731359
      22A     -0.724988    23A     -0.693003    24A     -0.663999
      25A     -0.637876    26A     -0.597750    27A     -0.588819
      28A     -0.561771    29A     -0.540956    30A     -0.519878
      31A     -0.518755    32A     -0.484492    33A     -0.476598
      34A     -0.447964    35A     -0.369906    36A     -0.353416

  @DF-RHF Final Energy:  -473.20659644402656

   => Energetics <=

    Nuclear Repulsion Energy =            509.7793727737818017
    One-Electron Energy =               -1654.8362859343342279
    Two-Electron Energy =                 671.8503167165262084
    DFT Exchange-Correlation Energy =       0.0000000000000000
    Empirical Dispersion Energy =           0.0000000000000000
    PCM Polarization Energy =               0.0000000000000000
    EFP Energy =                            0.0000000000000000
    Total Energy =                       -473.2065964440263315
    Molecular point group: c1
  Basis Set: 6-31G*
  Basis Set:

  -Total Gradient:
     Atom            X                  Y                   Z
    ------   -----------------  -----------------  -----------------
       1        0.000000267666    -0.000000496550     0.000001217802
       2        0.000005302074    -0.000001123955    -0.000012663619
       3       -0.000002644481     0.000008163686     0.000004954747
       4       -0.000026396352    -0.000081837469     0.000440883750
       5        0.000000232962     0.000001277877     0.000000720798
       6       -0.000011818474    -0.000010096201     0.000015287706
       7       -0.000007074482     0.000005519040     0.000000289879
       8       -0.000009466460     0.000120693669    -0.000393257006
       9        0.000000115443    -0.000000362322     0.000000373246
      10        0.000019457510    -0.000008799783    -0.000057186606
      11       -0.000000561124    -0.000031454295    -0.000540210121
      12       -0.000022287958     0.000009573664     0.000017463434
      13        0.000004515966    -0.000009741723     0.000524339917
      14        0.000030696368     0.000012299129    -0.000003783059
      15        0.000005346958    -0.000011391941    -0.000007162320
      16        0.000004424860    -0.000002191874     0.000002389215
      17        0.000009889525    -0.000000030950     0.000006342236

  **** Optimization is complete! (in 8 steps) ****
    Final optimized geometry and variables:
    Molecular point group: c1

    Geometry (in Angstrom), charge = 0, multiplicity = 1:

    H           -2.490688714968    -2.285996425753    -0.423915286618
    C           -1.937200192843    -1.379582364921    -0.264283085369
    C           -2.588862326959    -0.171379732046    -0.083338814279
    C           -0.559290578152    -1.408284680001    -0.235312703864
    H           -3.663000577264    -0.129010905953    -0.099972764082
    C           -1.864249701389     0.987559082964     0.123475450880
    H           -0.025127839519    -2.326157330788    -0.367149767017
    C            0.154437489703    -0.234419369864    -0.036212930715
    H           -2.388583054068     1.913917884455     0.268980304769
    C           -0.471310191238     1.001730587955     0.152222226853
    N            1.610473249819    -0.366945931702    -0.030102127015
    C            0.222850978923     2.324023234860     0.393816720471
    O            2.271774887012     0.627016019629    -0.045080318222
    O            2.067927711200    -1.470659045082    -0.013090533959
    H            0.803314780637     2.627652908399    -0.466617085534
    H           -0.521475545364     3.083693404478     0.596897997786
    H            0.902082536778     2.272160655325     1.233530114218

  Mulliken Charges: (a.u.)
   Center  Symbol    Alpha    Beta     Spin     Total
       1     H     0.38933  0.38933  0.00000  0.22134
       2     C     3.11200  3.11200  0.00000 -0.22399
       3     C     3.08043  3.08043  0.00000 -0.16085
       4     C     3.08418  3.08418  0.00000 -0.16837
       5     H     0.38941  0.38941  0.00000  0.22119
       6     C     3.12607  3.12607  0.00000 -0.25215
       7     H     0.36286  0.36286  0.00000  0.27428
       8     C     2.93635  2.93635  0.00000  0.12729
       9     H     0.39271  0.39271  0.00000  0.21458
      10     C     2.96297  2.96297  0.00000  0.07407
      11     N     3.24398  3.24398  0.00000  0.51204
      12     C     3.23578  3.23578  0.00000 -0.47157
      13     O     4.23691  4.23691  0.00000 -0.47382
      14     O     4.23644  4.23644  0.00000 -0.47288
      15     H     0.39624  0.39624  0.00000  0.20752
      16     H     0.41516  0.41516  0.00000  0.16968
      17     H     0.39918  0.39918  0.00000  0.20164

   Total alpha = 36.00000, Total beta = 36.00000, Total charge =  0.00000
