                              Psi4 1.0.54 Driver

  ==> Input File <==

--------------------------------------------------------------------------
set {
	reference rhf
	basis cc-pvtz
}

set_num_threads( 4 )
memory 2 gb

molecule MOL {
0 1

H	 2.565151	 1.190250	 1.428709
N	 1.697314	 0.699008	 1.395097
C	 1.263552	 0.494993	 0.021953
H	 1.030948	 1.243197	 1.902198
C	 -0.016533	 -0.325589	 -0.026925
H	 2.051134	 -0.039820	 -0.498319
H	 1.110858	 1.430302	 -0.518294
C	 -1.280353	 0.525521	 0.047747
H	 -0.016686	 -0.912532	 -0.939714
H	 -0.014099	 -1.037598	 0.796369
C	 -2.560681	 -0.301323	 -0.007747
H	 -1.279957	 1.241025	 -0.770189
H	 -1.270445	 1.110526	 0.963468
H	 -2.617064	 -0.872870	 -0.928010
H	 -3.439525	 0.331102	 0.043462
H	 -2.609427	 -1.002736	 0.818585

	symmetry c1
}
set optking {
	frozen_dihedral = ("
		6 3 5 9
	")
}

ee,wfn = optimize('scf', return_wfn=True)
oeprop( wfn, 'DIPOLE', 'QUADRUPOLE', 'MULLIKEN_CHARGES')
f=open( 'psi4out.xyz', 'w' )
f.write( "16  " )
f.write( str(ee) + "\n" )
f.write( MOL.save_string_xyz() )
f.close()
--------------------------------------------------------------------------

    Molecular point group: c1
  Charge       = 0
  Multiplicity = 1
  Basis Set: CC-PVTZ
  Basis Set:
  @DF-RHF Final Energy:  -212.39704514309884
    Total Energy =                       -212.3970451430988078
    Molecular point group: c1
  Basis Set: CC-PVTZ
  Basis Set:
  Basis Set: CC-PVTZ
  Basis Set:
  @DF-RHF Final Energy:  -212.39732342755684
    Total Energy =                       -212.3973234275567279
  Basis Set: CC-PVTZ
  Basis Set:
  Basis Set: CC-PVTZ
  Basis Set:
  @DF-RHF Final Energy:  -212.39740966312016
    Total Energy =                       -212.3974096631200155
  Basis Set: CC-PVTZ
  Basis Set:
  Charge       = 0
  Multiplicity = 1
  Basis Set: CC-PVTZ
  Basis Set:

    Orbital Energies (a.u.)
    -----------------------

    Doubly Occupied:

       1A    -15.526912     2A    -11.238190     3A    -11.214294
       4A    -11.207601     5A    -11.206397     6A     -1.178189
       7A     -1.059452     8A     -0.960803     9A     -0.850196
      10A     -0.786427    11A     -0.667368    12A     -0.639621
      13A     -0.601352    14A     -0.585271    15A     -0.554265
      16A     -0.524784    17A     -0.514337    18A     -0.472761
      19A     -0.465914    20A     -0.454560    21A     -0.383320

  @DF-RHF Final Energy:  -212.39741064320054

   => Energetics <=

    Nuclear Repulsion Energy =            188.2881821433332448
    One-Electron Energy =                -659.1871622700848548
    Two-Electron Energy =                 258.5015694835508384
    DFT Exchange-Correlation Energy =       0.0000000000000000
    Empirical Dispersion Energy =           0.0000000000000000
    PCM Polarization Energy =               0.0000000000000000
    EFP Energy =                            0.0000000000000000
    Total Energy =                       -212.3974106432007716
    Molecular point group: c1
  Basis Set: CC-PVTZ
  Basis Set:

  -Total Gradient:
     Atom            X                  Y                   Z
    ------   -----------------  -----------------  -----------------
       1        0.000039997013     0.000029537430     0.000012962271
       2        0.000017170582    -0.000008863297     0.000072259172
       3        0.001457772293    -0.002786615242     0.004497314168
       4       -0.000009712541     0.000009804349     0.000004284107
       5       -0.002269015184     0.003908933555    -0.003159601279
       6       -0.000905528481     0.001712666090    -0.003339923360
       7        0.000004448644    -0.000005609679     0.000016098721
       8       -0.000032091552     0.000024906356    -0.000056575566
       9        0.001654117041    -0.002862938012     0.001935820672
      10        0.000001720394     0.000010817743    -0.000008535574
      11        0.000014186138    -0.000009842103     0.000038146571
      12        0.000025887350    -0.000006449430     0.000001957562
      13        0.000009523486    -0.000019778545    -0.000012491099
      14        0.000003393771     0.000013588494     0.000006528702
      15       -0.000001583874     0.000001224065     0.000007021246
      16       -0.000010285082    -0.000011381774    -0.000015266317

  **** Optimization is complete! (in 4 steps) ****
    Final optimized geometry and variables:
    Molecular point group: c1

    Geometry (in Angstrom), charge = 0, multiplicity = 1:

    H            2.720140364555     0.990381201451     1.121714181650
    N            1.852695395681     0.497245570224     1.096821308812
    C            1.443755000606     0.238058983245    -0.275800180215
    H            1.182359163603     1.067096941495     1.568871978423
    C            0.143250060649    -0.562378749299    -0.341101823205
    H            2.232440977443    -0.316280636528    -0.770074957839
    H            1.322367520427     1.154441572025    -0.856746584338
    C           -1.123536667777     0.286772952775    -0.278805698784
    H            0.139900647721    -1.167430649720    -1.243074762204
    H            0.147748277361    -1.268535066528     0.483792541480
    C           -2.400312292479    -0.546844739968    -0.293001645074
    H           -1.134005006241     0.977265798976    -1.117549766422
    H           -1.110427301142     0.899432495956     0.619094964585
    H           -2.463144592627    -1.147729350852    -1.194215703598
    H           -3.282010825847     0.082500022574    -0.253054660618
    H           -2.435699500908    -1.221796342206     0.555381875227

  Mulliken Charges: (a.u.)
   Center  Symbol    Alpha    Beta     Spin     Total
       1     H     0.42959  0.42959  0.00000  0.14082
       2     N     3.68704  3.68704  0.00000 -0.37409
       3     C     3.03419  3.03419  0.00000 -0.06838
       4     H     0.43108  0.43108  0.00000  0.13784
       5     C     3.09310  3.09310  0.00000 -0.18621
       6     H     0.45203  0.45203  0.00000  0.09593
       7     H     0.46864  0.46864  0.00000  0.06272
       8     C     3.08109  3.08109  0.00000 -0.16219
       9     H     0.45190  0.45190  0.00000  0.09619
      10     H     0.44993  0.44993  0.00000  0.10014
      11     C     3.14989  3.14989  0.00000 -0.29977
      12     H     0.45492  0.45492  0.00000  0.09017
      13     H     0.45915  0.45915  0.00000  0.08170
      14     H     0.45483  0.45483  0.00000  0.09034
      15     H     0.44902  0.44902  0.00000  0.10197
      16     H     0.45359  0.45359  0.00000  0.09282

   Total alpha = 21.00000, Total beta = 21.00000, Total charge = -0.00000

*** Psi4 exiting successfully. Buy a developer a beer!
