                              Psi4 1.0.54 Driver

  ==> Input File <==

--------------------------------------------------------------------------
set {
	reference rhf
	basis cc-pvtz
}

set_num_threads( 4 )
memory 2 gb

molecule MOL {
0 1

H	 -1.752232	 -2.214755	 -0.011938
C	 -1.343852	 -1.221619	 -0.018179
N	 -0.058800	 -1.097635	 -0.261688
C	 -2.148159	 -0.124236	 0.219734
C	 0.449026	 0.119242	 -0.273393
H	 -3.196988	 -0.237571	 0.417076
N	 -1.655094	 1.094230	 0.209506
C	 -0.370318	 1.215445	 -0.035100
C	 1.924033	 0.265863	 -0.538106
H	 0.033214	 2.210441	 -0.046812
C	 2.661268	 0.965155	 0.605102
H	 2.341054	 -0.723490	 -0.683145
H	 2.070737	 0.815019	 -1.460667
H	 3.722447	 1.021343	 0.393734
H	 2.527099	 0.423797	 1.532415
H	 2.293019	 1.975007	 0.747016

	symmetry c1
}
set optking {
	frozen_dihedral = ("
		12 9 5 3
	")
}

ee,wfn = optimize('scf', return_wfn=True)
oeprop( wfn, 'DIPOLE', 'QUADRUPOLE', 'MULLIKEN_CHARGES')
f=open( 'psi4out.xyz', 'w' )
f.write( "16  " )
f.write( str(ee) + "\n" )
f.write( MOL.save_string_xyz() )
f.close()
--------------------------------------------------------------------------

    Molecular point group: c1
  Charge       = 0
  Multiplicity = 1
  Basis Set: CC-PVTZ
  Basis Set:
  @DF-RHF Final Energy:  -340.87055150640543
    Total Energy =                       -340.8705515064053770
    Molecular point group: c1
  Basis Set: CC-PVTZ
  Basis Set:
  Basis Set: CC-PVTZ
  Basis Set:
  @DF-RHF Final Energy:  -340.87069049852482
    Total Energy =                       -340.8706904985247093
  Basis Set: CC-PVTZ
  Basis Set:
  Basis Set: CC-PVTZ
  Basis Set:
  @DF-RHF Final Energy:  -340.87078024304321
    Total Energy =                       -340.8707802430432139
  Basis Set: CC-PVTZ
  Basis Set:
  Basis Set: CC-PVTZ
  Basis Set:
  @DF-RHF Final Energy:  -340.87079776710169
    Total Energy =                       -340.8707977671018625
  Basis Set: CC-PVTZ
  Basis Set:
  Basis Set: CC-PVTZ
  Basis Set:
  @DF-RHF Final Energy:  -340.87080341015962
    Total Energy =                       -340.8708034101597377
  Basis Set: CC-PVTZ
  Basis Set:
  Basis Set: CC-PVTZ
  Basis Set:
  @DF-RHF Final Energy:  -340.87080540741817
    Total Energy =                       -340.8708054074182314
  Basis Set: CC-PVTZ
  Basis Set:
  Charge       = 0
  Multiplicity = 1
  Basis Set: CC-PVTZ
  Basis Set:

    Orbital Energies (a.u.)
    -----------------------

    Doubly Occupied:

       1A    -15.580400     2A    -15.575604     3A    -11.279227
       4A    -11.270674     5A    -11.269335     6A    -11.266688
       7A    -11.231561     8A    -11.221458     9A     -1.315543
      10A     -1.223511    11A     -1.086649    12A     -1.016483
      13A     -0.906128    14A     -0.896506    15A     -0.831583
      16A     -0.717030    17A     -0.713992    18A     -0.657341
      19A     -0.617371    20A     -0.607800    21A     -0.582302
      22A     -0.565180    23A     -0.523544    24A     -0.511659
      25A     -0.505918    26A     -0.483633    27A     -0.433972
      28A     -0.397620    29A     -0.346362

  @DF-RHF Final Energy:  -340.87080560244385

   => Energetics <=

    Nuclear Repulsion Energy =            350.1483388920680682
    One-Electron Energy =               -1154.7681317765550375
    Two-Electron Energy =                 463.7489872820433447
    DFT Exchange-Correlation Energy =       0.0000000000000000
    Empirical Dispersion Energy =           0.0000000000000000
    PCM Polarization Energy =               0.0000000000000000
    EFP Energy =                            0.0000000000000000
    Total Energy =                       -340.8708056024436246
    Molecular point group: c1
  Basis Set: CC-PVTZ
  Basis Set:

  -Total Gradient:
     Atom            X                  Y                   Z
    ------   -----------------  -----------------  -----------------
       1        0.000006379855    -0.000002684912     0.000037997416
       2       -0.000049766939     0.000009725804    -0.000088691233
       3       -0.000202639314     0.000088245889    -0.001162526841
       4        0.000002837350    -0.000018187470    -0.000030115021
       5        0.000371832668    -0.000205900570     0.001939813954
       6        0.000007258661     0.000003794706     0.000041209367
       7        0.000021680708     0.000020479527    -0.000034632322
       8       -0.000031137825    -0.000000708399     0.000086497077
       9       -0.000384499775     0.000211134180    -0.002128232043
      10       -0.000004867458     0.000001112786    -0.000008479209
      11        0.000022982669    -0.000000001356     0.000004910733
      12        0.000211705148    -0.000119524973     0.001348084996
      13        0.000021925417    -0.000009884316    -0.000023530290
      14       -0.000013457001     0.000014730368     0.000025778168
      15        0.000013897676     0.000015896714    -0.000017936215
      16        0.000005868160    -0.000008227981     0.000009851463

  **** Optimization is complete! (in 7 steps) ****
    Final optimized geometry and variables:
    Molecular point group: c1

    Geometry (in Angstrom), charge = 0, multiplicity = 1:

    H           -1.753153910958    -2.370821736187    -0.049845369527
    C           -1.342933581867    -1.378809670794    -0.045679011968
    N           -0.044028067198    -1.261681015936    -0.246595851857
    C           -2.146321075572    -0.281595165386     0.159358135549
    C            0.470398094764    -0.052714013724    -0.239990260615
    H           -3.201708070343    -0.386330964302     0.321737220067
    N           -1.645190798095     0.939341782647     0.159148025858
    C           -0.356840993771     1.052351096731    -0.037661197955
    C            1.952138904939     0.094777807203    -0.482396284513
    H            0.049147564652     2.046366083525    -0.043807428682
    C            2.702004420334     0.782496431091     0.660636950289
    H            2.352032534753    -0.898320919904    -0.628799064860
    H            2.108943556346     0.648422532816    -1.402870835228
    H            3.760794323174     0.832812752004     0.437284628993
    H            2.580293479302     0.234119137337     1.587240911651
    H            2.352014366515     1.794541700034     0.824200091943

  Mulliken Charges: (a.u.)
   Center  Symbol    Alpha    Beta     Spin     Total
       1     H     0.41377  0.41377  0.00000  0.17247
       2     C     3.04065  3.04065  0.00000 -0.08130
       3     N     3.59014  3.59014  0.00000 -0.18028
       4     C     3.04838  3.04838  0.00000 -0.09675
       5     C     2.94753  2.94753  0.00000  0.10494
       6     H     0.41349  0.41349  0.00000  0.17303
       7     N     3.58740  3.58740  0.00000 -0.17479
       8     C     3.07659  3.07659  0.00000 -0.15318
       9     C     3.08431  3.08431  0.00000 -0.16861
      10     H     0.41471  0.41471  0.00000  0.17058
      11     C     3.14603  3.14603  0.00000 -0.29206
      12     H     0.44020  0.44020  0.00000  0.11959
      13     H     0.44607  0.44607  0.00000  0.10786
      14     H     0.44712  0.44712  0.00000  0.10577
      15     H     0.44877  0.44877  0.00000  0.10245
      16     H     0.45485  0.45485  0.00000  0.09030

   Total alpha = 29.00000, Total beta = 29.00000, Total charge = -0.00000

*** Psi4 exiting successfully. Buy a developer a beer!
