  ==> Input File <==

--------------------------------------------------------------------------
set {
	reference rhf
	basis cc-pvtz
}

set_num_threads( 4 )
memory 2 gb

molecule MOL {
0 1

H	 2.330960	 -0.121139	 -0.162315
O	 1.583947	 -0.677544	 -0.001533
C	 0.489979	 0.078084	 0.002623
C	 -0.763662	 -0.754014	 0.000816
O	 0.539051	 1.259395	 -0.000088
C	 -2.038001	 0.074705	 -0.000833
H	 -0.712945	 -1.405886	 -0.864342
H	 -0.715137	 -1.405770	 0.866182
H	 -2.087267	 0.710831	 -0.874232
H	 -2.903419	 -0.576199	 -0.001922
H	 -2.089467	 0.710909	 0.872389

	symmetry c1
}
set optking {
	frozen_dihedral = ("
		1 2 3 5
	")
}

ee = optimize('scf')
oeprop('DIPOLE', 'QUADRUPOLE', 'MULLIKEN_CHARGES')
f=open( 'psi4out.xyz', 'w' )
f.write( "11  " )
f.write( str(ee) + "\n" )
f.write( MOL.save_string_xyz() )
f.close()
--------------------------------------------------------------------------

    Molecular point group: c1
  Charge       = 0
  Multiplicity = 1
  Basis Set: CC-PVTZ
  Basis Set:
  @DF-RHF Final Energy:  -266.95268510879725
    Total Energy =                       -266.9526851087973682
    Molecular point group: c1
  Basis Set: CC-PVTZ
  Basis Set:
  Basis Set: CC-PVTZ
  Basis Set:
  @DF-RHF Final Energy:  -266.95077240871524
    Total Energy =                       -266.9507724087151246
  Basis Set: CC-PVTZ
  Basis Set:
  Basis Set: CC-PVTZ
  Basis Set:
  @DF-RHF Final Energy:  -266.95276309238841
    Total Energy =                       -266.9527630923882953
  Basis Set: CC-PVTZ
  Basis Set:
  Basis Set: CC-PVTZ
  Basis Set:
  @DF-RHF Final Energy:  -266.95277383921001
    Total Energy =                       -266.9527738392101242
  Basis Set: CC-PVTZ
  Basis Set:
  Basis Set: CC-PVTZ
  Basis Set:
  @DF-RHF Final Energy:  -266.95277554587341
    Total Energy =                       -266.9527755458732372
  Basis Set: CC-PVTZ
  Basis Set:
  Charge       = 0
  Multiplicity = 1
  Basis Set: CC-PVTZ
  Basis Set:

    Orbital Energies (a.u.)
    -----------------------

    Doubly Occupied:

       1A    -20.604659     2A    -20.541914     3A    -11.374421
       4A    -11.242841     5A    -11.218749     6A     -1.478196
       7A     -1.370422     8A     -1.066432     9A     -0.918696
      10A     -0.803742    11A     -0.705999    12A     -0.693329
      13A     -0.665299    14A     -0.600783    15A     -0.593298
      16A     -0.533711    17A     -0.527132    18A     -0.505867
      19A     -0.485583    20A     -0.448949

  @DF-RHF Final Energy:  -266.95277645778424

   => Energetics <=

    Nuclear Repulsion Energy =            180.1477277752769908
    One-Electron Energy =                -721.4409681728409396
    Two-Electron Energy =                 274.3404639397798519
    DFT Exchange-Correlation Energy =       0.0000000000000000
    Empirical Dispersion Energy =           0.0000000000000000
    PCM Polarization Energy =               0.0000000000000000
    EFP Energy =                            0.0000000000000000
    Total Energy =                       -266.9527764577841253
    Molecular point group: c1
  Basis Set: CC-PVTZ
  Basis Set:

  -Total Gradient:
     Atom            X                  Y                   Z
    ------   -----------------  -----------------  -----------------
       1       -0.000258522946    -0.000600280739    -0.003585089468
       2        0.000296758797     0.000746639352     0.006001991170
       3        0.000059378798    -0.000218166480    -0.005849906071
       4       -0.000014325882    -0.000016684721     0.000053303072
       5       -0.000091918514     0.000084308384     0.003371317373
       6        0.000007876813    -0.000005762296     0.000002433169
       7        0.000007279014    -0.000014891381     0.000001973481
       8       -0.000007683743     0.000018201831     0.000006408455
       9       -0.000003959063     0.000003783404    -0.000004068381
      10        0.000005450775     0.000000560244    -0.000000764155
      11       -0.000000334050     0.000002292402     0.000002401355

  **** Optimization is complete! (in 6 steps) ****
    Final optimized geometry and variables:
    Molecular point group: c1

    Geometry (in Angstrom), charge = 0, multiplicity = 1:

    H            2.338089537225    -0.124389130698    -0.106549840329
    O            1.584406156679    -0.676503346896     0.037167420648
    C            0.489983582659     0.078589641497    -0.013047922718
    C           -0.763615444747    -0.753815339659    -0.001189153682
    O            0.538888642858     1.259360179603    -0.036404396781
    C           -2.038287208032     0.074060355050     0.017504820520
    H           -0.723925426833    -1.400657587555    -0.870973285333
    H           -0.703162028953    -1.410772036668     0.859334520978
    H           -2.098418345464     0.715581422993    -0.851243738883
    H           -2.903548918923    -0.577140353940     0.023158425478
    H           -2.079639824299     0.704989533031     0.895255706198

  Mulliken Charges: (a.u.)
   Center  Symbol    Alpha    Beta     Spin     Total
       1     H     0.38162  0.38162  0.00000  0.23676
       2     O     4.16116  4.16116  0.00000 -0.32233
       3     C     2.80317  2.80317  0.00000  0.39365
       4     C     3.10114  3.10114  0.00000 -0.20228
       5     O     4.18971  4.18971  0.00000 -0.37941
       6     C     3.13891  3.13891  0.00000 -0.27782
       7     H     0.44010  0.44010  0.00000  0.11981
       8     H     0.43884  0.43884  0.00000  0.12231
       9     H     0.44769  0.44769  0.00000  0.10462
      10     H     0.44967  0.44967  0.00000  0.10065
      11     H     0.44798  0.44798  0.00000  0.10405

   Total alpha = 20.00000, Total beta = 20.00000, Total charge = -0.00000
