  ==> Input File <==

--------------------------------------------------------------------------
set {
	reference rhf
	basis cc-pvtz
}

set_num_threads( 4 )
memory 2 gb

molecule MOL {
0 1

H	 -2.053000	 0.203000	 -0.110000
N	 -1.200000	 -0.321000	 -0.115000
C	 -0.052000	 0.559000	 0.055000
H	 -1.257000	 -0.974000	 0.644000
C	 1.244000	 -0.237000	 -0.028000
H	 -0.077000	 1.291000	 -0.746000
H	 -0.075000	 1.118000	 0.993000
H	 1.304000	 -0.761000	 -0.975000
H	 2.107000	 0.416000	 0.066000
H	 1.299000	 -0.975000	 0.768000

	symmetry c1
}
ee = optimize('scf')
oeprop('DIPOLE', 'QUADRUPOLE', 'MULLIKEN_CHARGES')
f=open( 'psi4out.xyz', 'w' )
f.write( "10  " )
f.write( str(ee) + "\n" )
f.write( MOL.save_string_xyz() )
f.close()
--------------------------------------------------------------------------

    Molecular point group: c1
  Charge       = 0
  Multiplicity = 1
  Basis Set: CC-PVTZ
  Basis Set:
  @DF-RHF Final Energy:  -134.30473520804600
    Total Energy =                       -134.3047352080459973
    Molecular point group: c1
  Basis Set: CC-PVTZ
  Basis Set:
  Basis Set: CC-PVTZ
  Basis Set:
  @DF-RHF Final Energy:  -134.30478995640482
    Total Energy =                       -134.3047899564047611
  Basis Set: CC-PVTZ
  Basis Set:
  Basis Set: CC-PVTZ
  Basis Set:
  @DF-RHF Final Energy:  -134.30479255627984
    Total Energy =                       -134.3047925562797502
  Basis Set: CC-PVTZ
  Basis Set:
  Charge       = 0
  Multiplicity = 1
  Basis Set: CC-PVTZ
  Basis Set:

    Orbital Energies (a.u.)
    -----------------------

    Doubly Occupied:

       1A    -15.527031     2A    -11.240958     3A    -11.205135
       4A     -1.178053     5A     -0.988625     6A     -0.824414
       7A     -0.663506     8A     -0.631893     9A     -0.583017
      10A     -0.516571    11A     -0.508993    12A     -0.488423
      13A     -0.385061

  @DF-RHF Final Energy:  -134.30479292445847

   => Energetics <=

    Nuclear Repulsion Energy =             83.4683986065082877
    One-Electron Energy =                -346.0630230812921582
    Two-Electron Energy =                 128.2898315503253457
    DFT Exchange-Correlation Energy =       0.0000000000000000
    Empirical Dispersion Energy =           0.0000000000000000
    PCM Polarization Energy =               0.0000000000000000
    EFP Energy =                            0.0000000000000000
    Total Energy =                       -134.3047929244585248
    Molecular point group: c1
  Basis Set: CC-PVTZ
  Basis Set:

  -Total Gradient:
     Atom            X                  Y                   Z
    ------   -----------------  -----------------  -----------------
       1        0.000005945690     0.000015355997    -0.000014733901
       2       -0.000051503259    -0.000028386032     0.000012472559
       3        0.000064102978     0.000059220901    -0.000008670927
       4        0.000009410135    -0.000021193559     0.000001816278
       5       -0.000019000648    -0.000008129203     0.000024693020
       6       -0.000024133768     0.000002647753    -0.000004699413
       7        0.000001266085    -0.000005800209    -0.000009633186
       8        0.000002922721     0.000004762595    -0.000000251738
       9       -0.000005588870    -0.000000501064     0.000000267547
      10        0.000016578938    -0.000017977178    -0.000001260239

  **** Optimization is complete! (in 4 steps) ****
    Final optimized geometry and variables:
    Molecular point group: c1

    Geometry (in Angstrom), charge = 0, multiplicity = 1:

    H           -2.025199411283     0.209893937430    -0.086630595578
    N           -1.173823601028    -0.310545132803    -0.096856636057
    C           -0.022587474708     0.563365498844     0.065814919169
    H           -1.224855201043    -0.974387145413     0.647671712016
    C            1.270420486989    -0.230572972902    -0.014244916706
    H           -0.045353786725     1.293677548766    -0.735128352267
    H           -0.043154503020     1.123060050507     1.001179974851
    H            1.336273105033    -0.754933567524    -0.959363404312
    H            2.130728224521     0.422014960664     0.082222061829
    H            1.323343935351    -0.967006528736     0.781773446095

  Mulliken Charges: (a.u.)
   Center  Symbol    Alpha    Beta     Spin     Total
       1     H     0.42956  0.42956  0.00000  0.14087
       2     N     3.68984  3.68984  0.00000 -0.37967
       3     C     3.01874  3.01874  0.00000 -0.03748
       4     H     0.43040  0.43040  0.00000  0.13920
       5     C     3.13906  3.13906  0.00000 -0.27811
       6     H     0.45774  0.45774  0.00000  0.08453
       7     H     0.46961  0.46961  0.00000  0.06078
       8     H     0.44955  0.44955  0.00000  0.10090
       9     H     0.45552  0.45552  0.00000  0.08896
      10     H     0.45998  0.45998  0.00000  0.08003

   Total alpha = 13.00000, Total beta = 13.00000, Total charge = -0.00000
