  ==> Input File <==

--------------------------------------------------------------------------
set {
	reference rhf
	basis 6-31G*
}

set_num_threads( 1 )
memory 2 gb

molecule MOL {
0 1

H	 -3.420663	 1.227371	 -1.044276
O	 -3.452007	 0.283848	 -0.965577
C	 -3.181085	 -0.079926	 0.364119
C	 -1.765924	 0.277073	 0.805136
H	 -3.327791	 -1.152017	 0.410903
H	 -3.905698	 0.375695	 1.036898
C	 -0.677594	 -0.417312	 -0.014550
H	 -1.637766	 1.358238	 0.744969
H	 -1.659588	 0.017670	 1.857098
C	 0.738335	 -0.034840	 0.421385
H	 -0.814977	 -0.178223	 -1.064632
H	 -0.802730	 -1.495410	 0.071702
C	 1.822265	 -0.738362	 -0.399735
H	 0.853533	 1.043532	 0.342250
H	 0.871597	 -0.279636	 1.474438
C	 2.656829	 0.189906	 -1.289666
H	 1.362602	 -1.508682	 -1.016997
H	 2.493005	 -1.257367	 0.281850
C	 1.875389	 0.854710	 -2.424475
H	 3.471997	 -0.386952	 -1.719813
H	 3.121339	 0.957063	 -0.673304
H	 1.389133	 0.111448	 -3.050778
H	 2.536853	 1.437548	 -3.058197
H	 1.108739	 1.525745	 -2.051482

	symmetry c1
}
set optking {
	frozen_dihedral = ("
		20 16 13 17,
		13 10 7 11,
		11 7 4 3,
		1 2 3 5,
		7 4 3 2
	")
}

ee = energy('scf')
oeprop('DIPOLE', 'QUADRUPOLE', 'MULLIKEN_CHARGES')
f=open( 'psi4out.xyz', 'w' )
f.write( "24  " )
f.write( str(ee) + "\n" )
f.write( MOL.save_string_xyz() )
f.close()
--------------------------------------------------------------------------

    Molecular point group: c1

    Geometry (in Angstrom), charge = 0, multiplicity = 1:

       Center              X                  Y                   Z               Mass
    ------------   -----------------  -----------------  -----------------  -----------------
           H         -3.111125221943     1.167388373781    -0.584273920000     1.007825032070
           O         -3.142469221943     0.223865373781    -0.505574920000    15.994914619560
           C         -2.871547221943    -0.139908626219     0.824121080000    12.000000000000
           C         -1.456386221943     0.217090373781     1.265138080000    12.000000000000
           H         -3.018253221943    -1.211999626219     0.870905080000     1.007825032070
           H         -3.596160221943     0.315712373781     1.496900080000     1.007825032070
           C         -0.368056221943    -0.477294626219     0.445452080000    12.000000000000
           H         -1.328228221943     1.298255373781     1.204971080000     1.007825032070
           H         -1.350050221943    -0.042312626219     2.317100080000     1.007825032070
           C          1.047872778057    -0.094822626219     0.881387080000    12.000000000000
           H         -0.505439221943    -0.238205626219    -0.604629920000     1.007825032070
           H         -0.493192221943    -1.555392626219     0.531704080000     1.007825032070
           C          2.131802778057    -0.798344626219     0.060267080000    12.000000000000
           H          1.163070778057     0.983549373781     0.802252080000     1.007825032070
           H          1.181134778057    -0.339618626219     1.934440080000     1.007825032070
           C          2.966366778057     0.129923373781    -0.829663920000    12.000000000000
           H          1.672139778057    -1.568664626219    -0.556994920000     1.007825032070
           H          2.802542778057    -1.317349626219     0.741852080000     1.007825032070
           C          2.184926778057     0.794727373781    -1.964472920000    12.000000000000
           H          3.781534778057    -0.446934626219    -1.259810920000     1.007825032070
           H          3.430876778057     0.897080373781    -0.213301920000     1.007825032070
           H          1.698670778057     0.051465373781    -2.590775920000     1.007825032070
           H          2.846390778057     1.377565373781    -2.598194920000     1.007825032070
           H          1.418276778057     1.465762373781    -1.591479920000     1.007825032070

  Charge       = 0
  Multiplicity = 1
  Basis Set: 6-31G*
  Basis Set:

    Orbital Energies (a.u.)
    -----------------------

    Doubly Occupied:

       1A    -20.553393     2A    -11.267434     3A    -11.216729
       4A    -11.213844     5A    -11.211259     6A    -11.210674
       7A    -11.209930     8A    -11.207120     9A     -1.359977
      10A     -1.088972    11A     -1.047000    12A     -0.984793
      13A     -0.916330    14A     -0.849505    15A     -0.800882
      16A     -0.775917    17A     -0.679151    18A     -0.653266
      19A     -0.624321    20A     -0.617227    21A     -0.599167
      22A     -0.579163    23A     -0.565797    24A     -0.532376
      25A     -0.523536    26A     -0.509025    27A     -0.493410
      28A     -0.477889    29A     -0.467153    30A     -0.459360
      31A     -0.454048    32A     -0.445374    33A     -0.417785

  @DF-RHF Final Energy:  -349.24231817809198

   => Energetics <=

    Nuclear Repulsion Energy =            391.7102474570951927
    One-Electron Energy =               -1249.8813683905580092
    Two-Electron Energy =                 508.9288027553705547
    DFT Exchange-Correlation Energy =       0.0000000000000000
    Empirical Dispersion Energy =           0.0000000000000000
    PCM Polarization Energy =               0.0000000000000000
    EFP Energy =                            0.0000000000000000
    Total Energy =                       -349.2423181780922619

  Mulliken Charges: (a.u.)
   Center  Symbol    Alpha    Beta     Spin     Total
       1     H     0.28340  0.28340  0.00000  0.43319
       2     O     4.36831  4.36831  0.00000 -0.73663
       3     C     2.99612  2.99612  0.00000  0.00775
       4     C     3.16942  3.16942  0.00000 -0.33885
       5     H     0.41645  0.41645  0.00000  0.16710
       6     H     0.42831  0.42831  0.00000  0.14337
       7     C     3.15553  3.15553  0.00000 -0.31106
       8     H     0.42859  0.42859  0.00000  0.14282
       9     H     0.42244  0.42244  0.00000  0.15512
      10     C     3.15552  3.15552  0.00000 -0.31104
      11     H     0.41024  0.41024  0.00000  0.17952
      12     H     0.42301  0.42301  0.00000  0.15397
      13     C     3.15596  3.15596  0.00000 -0.31191
      14     H     0.42239  0.42239  0.00000  0.15522
      15     H     0.42200  0.42200  0.00000  0.15599
      16     C     3.15301  3.15301  0.00000 -0.30601
      17     H     0.42019  0.42019  0.00000  0.15961
      18     H     0.42049  0.42049  0.00000  0.15901
      19     C     3.24061  3.24061  0.00000 -0.48122
      20     H     0.42207  0.42207  0.00000  0.15587
      21     H     0.42377  0.42377  0.00000  0.15246
      22     H     0.42062  0.42062  0.00000  0.15876
      23     H     0.41961  0.41961  0.00000  0.16078
      24     H     0.42192  0.42192  0.00000  0.15615

   Total alpha = 33.00000, Total beta = 33.00000, Total charge =  0.00000
