  ==> Input File <==

--------------------------------------------------------------------------
set {
	reference rhf
	basis 6-31G*
}

set_num_threads( 4 )
memory 2 gb

molecule MOL {
0 1

H	 -3.420663	 1.227371	 -1.044276
O	 -3.452007	 0.283848	 -0.965577
C	 -3.181085	 -0.079926	 0.364119
C	 -1.765924	 0.277073	 0.805136
H	 -3.327791	 -1.152017	 0.410903
H	 -3.905698	 0.375695	 1.036898
C	 -0.677594	 -0.417312	 -0.014550
H	 -1.637766	 1.358238	 0.744969
H	 -1.659588	 0.017670	 1.857098
C	 0.738335	 -0.034840	 0.421385
H	 -0.814977	 -0.178223	 -1.064632
H	 -0.802730	 -1.495410	 0.071702
C	 1.822265	 -0.738362	 -0.399735
H	 0.853533	 1.043532	 0.342250
H	 0.871597	 -0.279636	 1.474438
C	 3.215594	 -0.107225	 -0.297484
H	 1.518535	 -0.768925	 -1.444967
H	 1.888219	 -1.774277	 -0.073626
C	 3.322628	 1.297650	 -0.893532
H	 3.925316	 -0.755746	 -0.805428
H	 3.522815	 -0.081079	 0.746132
H	 3.009424	 1.304644	 -1.934202
H	 4.346987	 1.655531	 -0.855470
H	 2.708398	 2.014204	 -0.358336

	symmetry c1
}
set optking {
	frozen_dihedral = ("
		17 13 10 7
	")
}

ee = optimize('scf')
oeprop('DIPOLE', 'QUADRUPOLE', 'MULLIKEN_CHARGES')
f=open( 'psi4out.xyz', 'w' )
f.write( "24  " )
f.write( str(ee) + "\n" )
f.write( MOL.save_string_xyz() )
f.close()
--------------------------------------------------------------------------

    Molecular point group: c1
  Charge       = 0
  Multiplicity = 1
  Basis Set: 6-31G*
  Basis Set:
  @DF-RHF Final Energy:  -349.24619716826504
    Total Energy =                       -349.2461971682650983
    Molecular point group: c1
  Basis Set: 6-31G*
  Basis Set:
  Basis Set: 6-31G*
  Basis Set:
  @DF-RHF Final Energy:  -349.24622810447244
    Total Energy =                       -349.2462281044726069
  Basis Set: 6-31G*
  Basis Set:
  Basis Set: 6-31G*
  Basis Set:
  @DF-RHF Final Energy:  -349.24645148319752
    Total Energy =                       -349.2464514831975748
  Basis Set: 6-31G*
  Basis Set:
  Basis Set: 6-31G*
  Basis Set:
  @DF-RHF Final Energy:  -349.24645191154178
    Total Energy =                       -349.2464519115417261
  Basis Set: 6-31G*
  Basis Set:
  Basis Set: 6-31G*
  Basis Set:
  @DF-RHF Final Energy:  -349.24647799067736
    Total Energy =                       -349.2464779906771923
  Basis Set: 6-31G*
  Basis Set:
  Basis Set: 6-31G*
  Basis Set:
  @DF-RHF Final Energy:  -349.24647901258771
    Total Energy =                       -349.2464790125877698
  Basis Set: 6-31G*
  Basis Set:
  Charge       = 0
  Multiplicity = 1
  Basis Set: 6-31G*
  Basis Set:

    Orbital Energies (a.u.)
    -----------------------

    Doubly Occupied:

       1A    -20.553597     2A    -11.267701     3A    -11.217417
       4A    -11.214377     5A    -11.212370     6A    -11.211478
       7A    -11.211132     8A    -11.207394     9A     -1.360185
      10A     -1.088122    11A     -1.048213    12A     -0.985752
      13A     -0.915162    14A     -0.849682    15A     -0.800288
      16A     -0.778062    17A     -0.678966    18A     -0.653878
      19A     -0.623962    20A     -0.619531    21A     -0.598903
      22A     -0.580384    23A     -0.562644    24A     -0.537022
      25A     -0.514601    26A     -0.512327    27A     -0.496824
      28A     -0.473437    29A     -0.467249    30A     -0.459190
      31A     -0.456836    32A     -0.449417    33A     -0.418899

  @DF-RHF Final Energy:  -349.24647931513186

   => Energetics <=

    Nuclear Repulsion Energy =            384.9514592396064927
    One-Electron Energy =               -1236.3458674237926971
    Two-Electron Energy =                 502.1479288690545673
    DFT Exchange-Correlation Energy =       0.0000000000000000
    Empirical Dispersion Energy =           0.0000000000000000
    PCM Polarization Energy =               0.0000000000000000
    EFP Energy =                            0.0000000000000000
    Total Energy =                       -349.2464793151316371
    Molecular point group: c1
  Basis Set: 6-31G*
  Basis Set:

  -Total Gradient:
     Atom            X                  Y                   Z
    ------   -----------------  -----------------  -----------------
       1        0.000000207616    -0.000000921703    -0.000000694459
       2        0.000003397524    -0.000000275441    -0.000002512086
       3       -0.000002850232     0.000008754384     0.000002335433
       4       -0.000009909356    -0.000003238050    -0.000006114151
       5        0.000001745670     0.000001109981     0.000002049014
       6       -0.000001957206     0.000000485055    -0.000000113502
       7       -0.000023954366     0.001729968284    -0.001452197851
       8        0.000002217880     0.000000553631     0.000002433567
       9       -0.000001436540    -0.000003463926    -0.000000831849
      10       -0.000322751016    -0.003070429882     0.002166675654
      11        0.000006008225    -0.000011835292    -0.000002907521
      12        0.000003539731     0.000000516756     0.000006873006
      13        0.001714866748     0.004093409653    -0.001161132296
      14       -0.000015388794    -0.000005046390     0.000002848740
      15        0.000002623117     0.000013812456     0.000000645526
      16        0.000029935107    -0.000022969302    -0.000017701347
      17       -0.001381596256    -0.002749413879     0.000457146202
      18       -0.000006647604     0.000010948807    -0.000021138893
      19       -0.000008398978    -0.000002321448     0.000009091818
      20        0.000009333896    -0.000009931972     0.000013964855
      21        0.000002324572     0.000015591879     0.000000914751
      22        0.000000052785    -0.000000254124    -0.000001532383
      23       -0.000003440089    -0.000007754715     0.000002053820
      24        0.000002077566     0.000012705236    -0.000000156047

  **** Optimization is complete! (in 7 steps) ****
    Final optimized geometry and variables:
    Molecular point group: c1

    Geometry (in Angstrom), charge = 0, multiplicity = 1:

    H           -3.386743491433     1.190559683061    -0.825895110444
    O           -3.409479510936     0.243872404642    -0.801186916704
    C           -3.138105478135    -0.192563704178     0.506416933046
    C           -1.726719427295     0.150418796609     0.970164696839
    H           -3.275783626210    -1.266673285952     0.491812622479
    H           -3.867786854113     0.218002517334     1.202241477795
    C           -0.631421379885    -0.486348711956     0.114042532188
    H           -1.607690793601     1.234379252558     0.972079572166
    H           -1.619702260285    -0.167744585457     2.005741936267
    C            0.780463531988    -0.100241729490     0.559298556443
    H           -0.775052257347    -0.198322063605    -0.922415798885
    H           -0.740665183397    -1.569569824751     0.147653489061
    C            1.876031838125    -0.790985092346    -0.262094262797
    H            0.880712290036     0.979902526749     0.480898971569
    H            0.918174866885    -0.339775223279     1.612105065755
    C            3.272784487521    -0.175710630404    -0.121715584788
    H            1.585267764007    -0.818446113392    -1.310822596006
    H            1.923979485382    -1.833504460566     0.046935376954
    C            3.438515862227     1.180751613468    -0.809573901314
    H            4.000393201114    -0.866477681318    -0.540405541392
    H            3.519290714217    -0.080376142558     0.934044167794
    H            3.221850711334     1.106118398685    -1.871681248777
    H            4.456375479122     1.544161675091    -0.705524489458
    H            2.780418133570     1.934850560489    -0.390695760270

  Mulliken Charges: (a.u.)
   Center  Symbol    Alpha    Beta     Spin     Total
       1     H     0.28337  0.28337  0.00000  0.43325
       2     O     4.36831  4.36831  0.00000 -0.73662
       3     C     2.99615  2.99615  0.00000  0.00770
       4     C     3.16909  3.16909  0.00000 -0.33819
       5     H     0.41630  0.41630  0.00000  0.16740
       6     H     0.42816  0.42816  0.00000  0.14367
       7     C     3.15264  3.15264  0.00000 -0.30528
       8     H     0.42839  0.42839  0.00000  0.14322
       9     H     0.42227  0.42227  0.00000  0.15545
      10     C     3.15339  3.15339  0.00000 -0.30677
      11     H     0.41154  0.41154  0.00000  0.17692
      12     H     0.42375  0.42375  0.00000  0.15249
      13     C     3.15363  3.15363  0.00000 -0.30727
      14     H     0.42386  0.42386  0.00000  0.15229
      15     H     0.42409  0.42409  0.00000  0.15181
      16     C     3.15295  3.15295  0.00000 -0.30590
      17     H     0.42274  0.42274  0.00000  0.15452
      18     H     0.42197  0.42197  0.00000  0.15607
      19     C     3.24022  3.24022  0.00000 -0.48045
      20     H     0.42093  0.42093  0.00000  0.15815
      21     H     0.42363  0.42363  0.00000  0.15274
      22     H     0.42172  0.42172  0.00000  0.15656
      23     H     0.41961  0.41961  0.00000  0.16078
      24     H     0.42129  0.42129  0.00000  0.15742

   Total alpha = 33.00000, Total beta = 33.00000, Total charge =  0.00000
