  ==> Input File <==

--------------------------------------------------------------------------
set {
	reference rhf
	basis 6-31G*
}

set_num_threads( 4 )
memory 2 gb

molecule MOL {
0 1

H	 1.256382	 1.796778	 2.940040
O	 1.869911	 1.708877	 2.223412
C	 1.291011	 1.128167	 1.153445
C	 2.081835	 0.936955	 0.024739
C	 -0.031307	 0.728692	 1.148428
H	 3.106642	 1.256016	 0.053530
C	 1.546918	 0.347837	 -1.102146
H	 -0.663394	 0.863765	 2.003851
C	 -0.536158	 0.140425	 0.000000
H	 2.164607	 0.204045	 -1.969119
C	 0.220734	 -0.062266	 -1.132068
N	 -1.935604	 -0.280333	 0.000000
H	 -0.208425	 -0.520681	 -1.998718
O	 -2.161694	 -1.452901	 0.000000
O	 -2.770341	 0.571417	 0.000000

	symmetry c1
}
set optking {
	frozen_dihedral = ("
		11 9 12 14
	")
}

ee = optimize('scf')
oeprop('DIPOLE', 'QUADRUPOLE', 'MULLIKEN_CHARGES')
f=open( 'psi4out.xyz', 'w' )
f.write( "15  " )
f.write( str(ee) + "\n" )
f.write( MOL.save_string_xyz() )
f.close()
--------------------------------------------------------------------------

    Molecular point group: c1
  Charge       = 0
  Multiplicity = 1
  Basis Set: 6-31G*
  Basis Set:
  @DF-RHF Final Energy:  -509.01796018939797
    Total Energy =                       -509.0179601893980816
    Molecular point group: c1
  Basis Set: 6-31G*
  Basis Set:
  Basis Set: 6-31G*
  Basis Set:
  @DF-RHF Final Energy:  -509.01235431782152
    Total Energy =                       -509.0123543178214049
  Basis Set: 6-31G*
  Basis Set:
  Basis Set: 6-31G*
  Basis Set:
  @DF-RHF Final Energy:  -509.01824070086099
    Total Energy =                       -509.0182407008613836
  Basis Set: 6-31G*
  Basis Set:
  Basis Set: 6-31G*
  Basis Set:
  @DF-RHF Final Energy:  -509.01849914103883
    Total Energy =                       -509.0184991410386601
  Basis Set: 6-31G*
  Basis Set:
  Basis Set: 6-31G*
  Basis Set:
  @DF-RHF Final Energy:  -509.01850097184501
    Total Energy =                       -509.0185009718446736
  Basis Set: 6-31G*
  Basis Set:
  Charge       = 0
  Multiplicity = 1
  Basis Set: 6-31G*
  Basis Set:

    Orbital Energies (a.u.)
    -----------------------

    Doubly Occupied:

       1A    -20.617883     2A    -20.610131     3A    -20.609516
       4A    -15.859208     5A    -11.333502     6A    -11.316498
       7A    -11.268852     8A    -11.268569     9A    -11.263467
      10A    -11.255208    11A     -1.641518    12A     -1.438943
      13A     -1.425549    14A     -1.202572    15A     -1.095747
      16A     -1.048534    17A     -0.965753    18A     -0.884069
      19A     -0.830445    20A     -0.789417    21A     -0.762924
      22A     -0.734608    23A     -0.720306    24A     -0.710845
      25A     -0.668927    26A     -0.635592    27A     -0.618035
      28A     -0.592922    29A     -0.563492    30A     -0.548798
      31A     -0.531740    32A     -0.490766    33A     -0.486256
      34A     -0.455111    35A     -0.373952    36A     -0.343272

  @DF-RHF Final Energy:  -509.01850130819736

   => Energetics <=

    Nuclear Repulsion Energy =            502.7273384668450831
    One-Electron Energy =               -1691.5658186278046742
    Two-Electron Energy =                 679.8199788527625742
    DFT Exchange-Correlation Energy =       0.0000000000000000
    Empirical Dispersion Energy =           0.0000000000000000
    PCM Polarization Energy =               0.0000000000000000
    EFP Energy =                            0.0000000000000000
    Total Energy =                       -509.0185013081969601
    Molecular point group: c1
  Basis Set: 6-31G*
  Basis Set:

  -Total Gradient:
     Atom            X                  Y                   Z
    ------   -----------------  -----------------  -----------------
       1        0.000000412832    -0.000003210250     0.000003764656
       2       -0.000003123648     0.000006651798     0.000002197390
       3        0.000003253544    -0.000014155967    -0.000036806712
       4        0.000008617936    -0.000019246622     0.000020950906
       5       -0.000000418803    -0.000080541884    -0.000020571352
       6        0.000001747606    -0.000000039140    -0.000001328634
       7       -0.000021807961     0.000034307613    -0.000008148726
       8       -0.000011261552     0.000001310475     0.000017049866
       9        0.001689365476    -0.006241236869     0.004191907252
      10        0.000000029289    -0.000003264046     0.000003304744
      11       -0.001173063183     0.004329254786    -0.001458312220
      12       -0.000538499681     0.002203949978    -0.008166194621
      13       -0.000007796395    -0.000010953277    -0.000012075666
      14        0.000019642049    -0.000206274101     0.005460540395
      15        0.000032902500     0.000003447502     0.000003722717

  **** Optimization is complete! (in 6 steps) ****
    Final optimized geometry and variables:
    Molecular point group: c1

    Geometry (in Angstrom), charge = 0, multiplicity = 1:

    H            1.355036920858     1.429396930057     2.663674115394
    O            1.970372208573     1.335547758929     1.949442134761
    C            1.397059290836     0.752013051233     0.880372688419
    C            2.188792712416     0.567729464379    -0.248925965713
    C            0.072475263209     0.351854100415     0.872237086009
    H            3.210539162042     0.895957532350    -0.220941846699
    C            1.655755508967    -0.020414497032    -1.376506757956
    H           -0.568442781604     0.510030573810     1.720327514049
    C           -0.412905647190    -0.260720111238    -0.266669828994
    H            2.271159092608    -0.149631726696    -2.247529000899
    C            0.333938173234    -0.449316554032    -1.403094595039
    N           -1.821994461860    -0.648248687006    -0.279007988954
    H           -0.090056963472    -0.919918713690    -2.269033079110
    O           -2.065541324196    -1.814419927614    -0.313220147453
    O           -2.626598501661     0.229047551907    -0.212376533780

  Mulliken Charges: (a.u.)
   Center  Symbol    Alpha    Beta     Spin     Total
       1     H     0.26736  0.26736  0.00000  0.46527
       2     O     4.37417  4.37417  0.00000 -0.74835
       3     C     2.79131  2.79131  0.00000  0.41738
       4     C     3.11538  3.11538  0.00000 -0.23075
       5     C     3.13418  3.13418  0.00000 -0.26837
       6     H     0.38214  0.38214  0.00000  0.23571
       7     C     3.09581  3.09581  0.00000 -0.19161
       8     H     0.38003  0.38003  0.00000  0.23994
       9     C     2.88922  2.88922  0.00000  0.22156
      10     H     0.38669  0.38669  0.00000  0.22662
      11     C     3.10158  3.10158  0.00000 -0.20315
      12     N     3.25807  3.25807  0.00000  0.48386
      13     H     0.37662  0.37662  0.00000  0.24676
      14     O     4.22237  4.22237  0.00000 -0.44474
      15     O     4.22507  4.22507  0.00000 -0.45014

   Total alpha = 36.00000, Total beta = 36.00000, Total charge = -0.00000
