  ==> Input File <==

--------------------------------------------------------------------------
set {
	reference rhf
	basis 6-31G*
}

set_num_threads( 4 )
memory 2 gb

molecule MOL {
0 1

H	 1.519624	 -1.900955	 0.897379
C	 0.612158	 -1.349099	 1.081808
O	 0.464886	 -0.454746	 -0.000158
H	 0.702763	 -0.814172	 2.019714
H	 -0.222028	 -2.038682	 1.133479
C	 -0.590998	 0.343045	 0.000118
O	 -1.699443	 -0.054298	 0.000227
H	 -0.340329	 1.404368	 0.000207

	symmetry c1
}
set optking {
	frozen_dihedral = ("
		2 3 6 7
	")
}

ee = optimize('scf')
oeprop('DIPOLE', 'QUADRUPOLE', 'MULLIKEN_CHARGES')
f=open( 'psi4out.xyz', 'w' )
f.write( "8  " )
f.write( str(ee) + "\n" )
f.write( MOL.save_string_xyz() )
f.close()
--------------------------------------------------------------------------

    Molecular point group: c1
  Charge       = 0
  Multiplicity = 1
  Basis Set: 6-31G*
  Basis Set:
  @DF-RHF Final Energy:  -227.77290174473129
    Total Energy =                       -227.7729017447312572
    Molecular point group: c1
  Basis Set: 6-31G*
  Basis Set:
  Basis Set: 6-31G*
  Basis Set:
  @DF-RHF Final Energy:  -227.76741622602572
    Total Energy =                       -227.7674162260255457
  Basis Set: 6-31G*
  Basis Set:
  Basis Set: 6-31G*
  Basis Set:
  @DF-RHF Final Energy:  -227.77352159235807
    Total Energy =                       -227.7735215923580654
  Basis Set: 6-31G*
  Basis Set:
  Basis Set: 6-31G*
  Basis Set:
  @DF-RHF Final Energy:  -227.77396455093051
    Total Energy =                       -227.7739645509304864
  Basis Set: 6-31G*
  Basis Set:
  Basis Set: 6-31G*
  Basis Set:
  @DF-RHF Final Energy:  -227.77397373226574
    Total Energy =                       -227.7739737322655742
  Basis Set: 6-31G*
  Basis Set:
  Charge       = 0
  Multiplicity = 1
  Basis Set: 6-31G*
  Basis Set:

    Orbital Energies (a.u.)
    -----------------------

    Doubly Occupied:

       1A    -20.601393     2A    -20.569270     3A    -11.382685
       4A    -11.294896     5A     -1.470540     6A     -1.378882
       7A     -0.990926     8A     -0.826042     9A     -0.739360
      10A     -0.683827    11A     -0.668661    12A     -0.619289
      13A     -0.560766    14A     -0.517894    15A     -0.469194
      16A     -0.454889

  @DF-RHF Final Energy:  -227.77397455721939

   => Energetics <=

    Nuclear Repulsion Energy =            122.3475601804370285
    One-Electron Energy =                -553.7860392668550276
    Two-Electron Energy =                 203.6645045291986094
    DFT Exchange-Correlation Energy =       0.0000000000000000
    Empirical Dispersion Energy =           0.0000000000000000
    PCM Polarization Energy =               0.0000000000000000
    EFP Energy =                            0.0000000000000000
    Total Energy =                       -227.7739745572193897
    Molecular point group: c1
  Basis Set: 6-31G*
  Basis Set:

  -Total Gradient:
     Atom            X                  Y                   Z
    ------   -----------------  -----------------  -----------------
       1       -0.000011794077     0.000026500045    -0.000003872453
       2        0.003262377223     0.004913272719     0.004030007277
       3       -0.004611937735    -0.007104660977    -0.010773341146
       4        0.000005208691    -0.000023659367     0.000022589192
       5        0.000006849225    -0.000010118352     0.000018831254
       6        0.000827344586     0.001713749964     0.016000268036
       7        0.000531110988     0.000480531380    -0.009293263654
       8       -0.000009158902     0.000004384586    -0.000001218506

  **** Optimization is complete! (in 6 steps) ****
    Final optimized geometry and variables:
    Molecular point group: c1

    Geometry (in Angstrom), charge = 0, multiplicity = 1:

    H            1.794800382261    -1.551882068227     0.583658502735
    C            0.917618524387    -0.966160168241     0.807578119215
    O            0.786717602501    -0.024307197163    -0.244596907342
    H            1.056300623555    -0.452897882809     1.751552646231
    H            0.048937965842    -1.607066867008     0.859210828525
    C           -0.314904151513     0.729034689907    -0.265754299195
    O           -1.417050685509     0.317169734495    -0.344278467871
    H           -0.072612305880     1.787318272538    -0.299945838239

  Mulliken Charges: (a.u.)
   Center  Symbol    Alpha    Beta     Spin     Total
       1     H     0.40282  0.40282  0.00000  0.19436
       2     C     3.09520  3.09520  0.00000 -0.19041
       3     O     4.29553  4.29553  0.00000 -0.59107
       4     H     0.41642  0.41642  0.00000  0.16715
       5     H     0.40318  0.40318  0.00000  0.19363
       6     C     2.73048  2.73048  0.00000  0.53904
       7     O     4.23848  4.23848  0.00000 -0.47696
       8     H     0.41787  0.41787  0.00000  0.16425

   Total alpha = 16.00000, Total beta = 16.00000, Total charge =  0.00000
