  ==> Input File <==

--------------------------------------------------------------------------
set {
	reference rhf
	basis 6-31G*
}

set_num_threads( 4 )
memory 2 gb

molecule MOL {
0 1

H	 -3.992503	 -0.790190	 0.737408
C	 -2.927088	 -0.645003	 0.761791
C	 -2.368426	 0.220330	 1.690361
C	 -2.117142	 -1.323558	 -0.135139
H	 -2.997708	 0.745959	 2.385404
C	 -0.998432	 0.406492	 1.721099
H	 -2.551995	 -1.993939	 -0.854234
C	 -0.745504	 -1.138767	 -0.106216
H	 -0.548760	 1.072142	 2.432701
C	 -0.182514	 -0.272187	 0.823216
H	 -0.114947	 -1.661803	 -0.798424
C	 1.287046	 -0.036632	 0.897809
O	 1.970282	 -0.730723	 0.000018
O	 1.804527	 0.697739	 1.679967
C	 3.377318	 -0.566646	 -0.000065
H	 3.695437	 -0.028981	 -0.881264
H	 3.789299	 -1.563704	 0.000236
H	 3.695516	 -0.028316	 0.880770

	symmetry c1
}
set optking {
	frozen_dihedral = ("
		12 13 15 16
	")
}

ee = optimize('scf')
oeprop('DIPOLE', 'QUADRUPOLE', 'MULLIKEN_CHARGES')
f=open( 'psi4out.xyz', 'w' )
f.write( "18  " )
f.write( str(ee) + "\n" )
f.write( MOL.save_string_xyz() )
f.close()
--------------------------------------------------------------------------

    Molecular point group: c1
  Charge       = 0
  Multiplicity = 1
  Basis Set: 6-31G*
  Basis Set:
  @DF-RHF Final Energy:  -457.34782826983400
    Total Energy =                       -457.3478282698340536
    Molecular point group: c1
  Basis Set: 6-31G*
  Basis Set:
  Basis Set: 6-31G*
  Basis Set:
  @DF-RHF Final Energy:  -457.34806996084905
    Total Energy =                       -457.3480699608491022
  Basis Set: 6-31G*
  Basis Set:
  Basis Set: 6-31G*
  Basis Set:
  @DF-RHF Final Energy:  -457.34860994161897
    Total Energy =                       -457.3486099416189745
  Basis Set: 6-31G*
  Basis Set:
  Basis Set: 6-31G*
  Basis Set:
  @DF-RHF Final Energy:  -457.34854827466313
    Total Energy =                       -457.3485482746632442
  Basis Set: 6-31G*
  Basis Set:
  Basis Set: 6-31G*
  Basis Set:
  @DF-RHF Final Energy:  -457.34861342293874
    Total Energy =                       -457.3486134229387972
  Basis Set: 6-31G*
  Basis Set:
  Charge       = 0
  Multiplicity = 1
  Basis Set: 6-31G*
  Basis Set:

    Orbital Energies (a.u.)
    -----------------------

    Doubly Occupied:

       1A    -20.606729     2A    -20.543644     3A    -11.379385
       4A    -11.281564     5A    -11.245071     6A    -11.244900
       7A    -11.243620     8A    -11.241210     9A    -11.237017
      10A    -11.236254    11A     -1.470199    12A     -1.364412
      13A     -1.164756    14A     -1.047783    15A     -1.024334
      16A     -0.979269    17A     -0.859680    18A     -0.833817
      19A     -0.776927    20A     -0.739891    21A     -0.683811
      22A     -0.674989    23A     -0.671544    24A     -0.631269
      25A     -0.623531    26A     -0.597299    27A     -0.584767
      28A     -0.567260    29A     -0.524118    30A     -0.516260
      31A     -0.503789    32A     -0.498151    33A     -0.455375
      34A     -0.444773    35A     -0.344570    36A     -0.340509

  @DF-RHF Final Energy:  -457.34862141656419

   => Energetics <=

    Nuclear Repulsion Energy =            492.5764305770664464
    One-Electron Energy =               -1599.4851492069888081
    Two-Electron Energy =                 649.5600972133581763
    DFT Exchange-Correlation Energy =       0.0000000000000000
    Empirical Dispersion Energy =           0.0000000000000000
    PCM Polarization Energy =               0.0000000000000000
    EFP Energy =                            0.0000000000000000
    Total Energy =                       -457.3486214165641286
    Molecular point group: c1
  Basis Set: 6-31G*
  Basis Set:

  -Total Gradient:
     Atom            X                  Y                   Z
    ------   -----------------  -----------------  -----------------
       1       -0.000000213359     0.000000205866     0.000000270292
       2       -0.000002016427     0.000003941559     0.000004271878
       3       -0.000012286930    -0.000000259430     0.000000270149
       4        0.000003711406     0.000002354137     0.000003484100
       5       -0.000002792086    -0.000000755710    -0.000000288818
       6       -0.000001209444    -0.000004166099    -0.000005028068
       7       -0.000000979231     0.000000141116     0.000000017924
       8       -0.000009073277    -0.000005708922    -0.000006303030
       9        0.000000203665    -0.000000105483     0.000000733085
      10       -0.000012214888    -0.000000930491     0.000006409221
      11       -0.000005038291     0.000003181042     0.000004079327
      12        0.000034667543    -0.000525383715     0.000496941544
      13       -0.000038512900     0.000634456664    -0.000791886375
      14        0.000024465405    -0.000035054941    -0.000038396972
      15       -0.000086409696     0.000625970872     0.000717659107
      16        0.000069002735    -0.000714200560    -0.000399781775
      17        0.000022884847     0.000009195919     0.000002628758
      18        0.000015810918     0.000007118171     0.000004919652

  **** Optimization is complete! (in 6 steps) ****
    Final optimized geometry and variables:
    Molecular point group: c1

    Geometry (in Angstrom), charge = 0, multiplicity = 1:

    H           -4.026371412649    -0.481544616292    -0.009574504504
    C           -2.962251921745    -0.328641299094     0.021961645846
    C           -2.416078183987     0.541513343847     0.953436647988
    C           -2.141301952016    -1.002012649149    -0.868767534061
    H           -3.053741080120     1.063349582494     1.643751294087
    C           -1.047752764496     0.737608470466     0.993205912821
    H           -2.566390303492    -1.676099709285    -1.590230556501
    C           -0.771238266492    -0.807293786349    -0.830679347407
    H           -0.608100856592     1.407181146662     1.707244789754
    C           -0.220476448575     0.064047264714     0.101726012977
    H           -0.132678472241    -1.326271447453    -1.518347508798
    C            1.247502463227     0.311488240489     0.187782418710
    O            1.934271321477    -0.379979038822    -0.710481590937
    O            1.746190448683     1.050462341548     0.977461709843
    C            3.347213030766    -0.263120942995    -0.741679572565
    H            3.627492482348     0.272328666291    -1.638365911253
    H            3.748064606915    -1.265530339482    -0.783041429707
    H            3.710196221959     0.252922313197     0.130509747347

  Mulliken Charges: (a.u.)
   Center  Symbol    Alpha    Beta     Spin     Total
       1     H     0.39548  0.39548  0.00000  0.20903
       2     C     3.09000  3.09000  0.00000 -0.18001
       3     C     3.10702  3.10702  0.00000 -0.21404
       4     C     3.10708  3.10708  0.00000 -0.21417
       5     H     0.39548  0.39548  0.00000  0.20903
       6     C     3.08656  3.08656  0.00000 -0.17313
       7     H     0.39640  0.39640  0.00000  0.20720
       8     C     3.08692  3.08692  0.00000 -0.17384
       9     H     0.37594  0.37594  0.00000  0.24813
      10     C     3.07793  3.07793  0.00000 -0.15586
      11     H     0.38064  0.38064  0.00000  0.23873
      12     C     2.57938  2.57938  0.00000  0.84124
      13     O     4.31661  4.31661  0.00000 -0.63323
      14     O     4.29132  4.29132  0.00000 -0.58264
      15     C     3.09814  3.09814  0.00000 -0.19628
      16     H     0.41188  0.41188  0.00000  0.17625
      17     H     0.41074  0.41074  0.00000  0.17851
      18     H     0.39247  0.39247  0.00000  0.21507

   Total alpha = 36.00000, Total beta = 36.00000, Total charge = -0.00000
