  ==> Input File <==

--------------------------------------------------------------------------
set {
	reference rhf
	basis 6-31G*
}

set_num_threads( 1 )
memory 2 gb

molecule MOL {
0 1

H	 3.475119	 0.806209	 1.892226
N	 2.647712	 0.241674	 1.907823
C	 1.633019	 0.788629	 1.018574
H	 2.318765	 0.236442	 2.854711
C	 0.412828	 -0.124906	 0.970162
H	 2.067806	 0.858992	 0.026169
H	 1.319167	 1.798293	 1.295114
C	 -0.679275	 0.379305	 0.025956
H	 0.738825	 -1.117030	 0.671414
H	 0.002822	 -0.224518	 1.974806
C	 -1.903357	 -0.536963	 -0.023547
H	 -0.269345	 0.481904	 -0.977677
H	 -0.992043	 1.377034	 0.330192
C	 -3.225172	 0.228290	 0.028445
H	 -1.867824	 -1.134999	 -0.931459
H	 -1.860449	 -1.239604	 0.805977
H	 -3.313397	 0.915643	 -0.808262
H	 -4.073500	 -0.448134	 -0.008893
H	 -3.306061	 0.809945	 0.942516

	symmetry c1
}
set optking {
	frozen_dihedral = ("
		6 3 5 9,
		12 8 5 9,
		1 2 3 6
	")
}

ee = energy('scf')
oeprop('DIPOLE', 'QUADRUPOLE', 'MULLIKEN_CHARGES')
f=open( 'psi4out.xyz', 'w' )
f.write( "19  " )
f.write( str(ee) + "\n" )
f.write( MOL.save_string_xyz() )
f.close()
--------------------------------------------------------------------------

    Molecular point group: c1

    Geometry (in Angstrom), charge = 0, multiplicity = 1:

       Center              X                  Y                   Z               Mass
    ------------   -----------------  -----------------  -----------------  -----------------
           H          3.634381923483     0.630087460269     1.213957703832     1.007825032070
           N          2.806974923483     0.065552460269     1.229554703832    14.003074004780
           C          1.792281923483     0.612507460269     0.340305703832    12.000000000000
           H          2.478027923483     0.060320460269     2.176442703832     1.007825032070
           C          0.572090923483    -0.301027539731     0.291893703832    12.000000000000
           H          2.227068923483     0.682870460269    -0.652099296168     1.007825032070
           H          1.478429923483     1.622171460269     0.616845703832     1.007825032070
           C         -0.520012076517     0.203183460269    -0.652312296168    12.000000000000
           H          0.898087923483    -1.293151539731    -0.006854296168     1.007825032070
           H          0.162084923483    -0.400639539731     1.296537703832     1.007825032070
           C         -1.744094076517    -0.713084539731    -0.701815296168    12.000000000000
           H         -0.110082076517     0.305782460269    -1.655945296168     1.007825032070
           H         -0.832780076517     1.200912460269    -0.348076296168     1.007825032070
           C         -3.065909076517     0.052168460269    -0.649823296168    12.000000000000
           H         -1.708561076517    -1.311120539731    -1.609727296168     1.007825032070
           H         -1.701186076517    -1.415725539731     0.127708703832     1.007825032070
           H         -3.154134076517     0.739521460269    -1.486530296168     1.007825032070
           H         -3.914237076517    -0.624255539731    -0.687161296168     1.007825032070
           H         -3.146798076517     0.633823460269     0.264247703832     1.007825032070

  Charge       = 0
  Multiplicity = 1
  Basis Set: 6-31G*
  Basis Set:

    Orbital Energies (a.u.)
    -----------------------

    Doubly Occupied:

       1A    -15.532365     2A    -11.239291     3A    -11.212521
       4A    -11.211337     5A    -11.209748     6A    -11.207819
       7A     -1.176467     8A     -1.073027     9A     -0.997771
      10A     -0.900346    11A     -0.814298    12A     -0.788489
      13A     -0.662724    14A     -0.642091    15A     -0.614229
      16A     -0.591614    17A     -0.562025    18A     -0.557289
      19A     -0.522383    20A     -0.500643    21A     -0.485167
      22A     -0.464616    23A     -0.455089    24A     -0.447930
      25A     -0.380826

  @DF-RHF Final Energy:  -251.34681001590437

   => Energetics <=

    Nuclear Repulsion Energy =            246.3039078407481099
    One-Electron Energy =                -826.8011858475726967
    Two-Electron Energy =                 329.1504679909203332
    DFT Exchange-Correlation Energy =       0.0000000000000000
    Empirical Dispersion Energy =           0.0000000000000000
    PCM Polarization Energy =               0.0000000000000000
    EFP Energy =                            0.0000000000000000
    Total Energy =                       -251.3468100159042251

  Mulliken Charges: (a.u.)
   Center  Symbol    Alpha    Beta     Spin     Total
       1     H     0.33253  0.33253  0.00000  0.33495
       2     N     3.92190  3.92190  0.00000 -0.84381
       3     C     3.06069  3.06069  0.00000 -0.12138
       4     H     0.33544  0.33544  0.00000  0.32912
       5     C     3.15372  3.15372  0.00000 -0.30743
       6     H     0.42089  0.42089  0.00000  0.15822
       7     H     0.43473  0.43473  0.00000  0.13055
       8     C     3.15783  3.15783  0.00000 -0.31566
       9     H     0.41267  0.41267  0.00000  0.17466
      10     H     0.42747  0.42747  0.00000  0.14506
      11     C     3.15297  3.15297  0.00000 -0.30594
      12     H     0.42126  0.42126  0.00000  0.15749
      13     H     0.42256  0.42256  0.00000  0.15487
      14     C     3.24037  3.24037  0.00000 -0.48074
      15     H     0.42033  0.42033  0.00000  0.15934
      16     H     0.42015  0.42015  0.00000  0.15970
      17     H     0.42172  0.42172  0.00000  0.15656
      18     H     0.42044  0.42044  0.00000  0.15912
      19     H     0.42234  0.42234  0.00000  0.15532

   Total alpha = 25.00000, Total beta = 25.00000, Total charge =  0.00000
