  ==> Input File <==

--------------------------------------------------------------------------
set {
	reference rhf
	basis 6-31G*
}

set_num_threads( 4 )
memory 2 gb

molecule MOL {
0 1

O	 0.749854	 1.307668	 -0.000040
C	 0.576249	 0.131685	 -0.000108
C	 -0.766779	 -0.556801	 -0.000461
O	 1.568443	 -0.749345	 -0.000005
C	 -1.945214	 0.412366	 0.000161
H	 -0.796911	 -1.211249	 -0.867467
H	 -0.796854	 -1.212390	 0.865687
C	 -1.490218	 1.868712	 -0.081106
H	 -2.534946	 0.258325	 0.897429
H	 -2.598747	 0.181760	 -0.834279
H	 -0.858493	 2.133648	 0.762212
H	 -2.341974	 2.540953	 -0.078868
H	 -0.924001	 2.056506	 -0.989183
C	 2.886820	 -0.232538	 0.000322
H	 3.059106	 0.369571	 -0.880203
H	 3.540187	 -1.091012	 0.000050
H	 3.059019	 0.368956	 0.881266

	symmetry c1
}
set optking {
	frozen_dihedral = ("
		9 5 3 6
	")
}

ee = optimize('scf')
oeprop('DIPOLE', 'QUADRUPOLE', 'MULLIKEN_CHARGES')
f=open( 'psi4out.xyz', 'w' )
f.write( "17  " )
f.write( str(ee) + "\n" )
f.write( MOL.save_string_xyz() )
f.close()
--------------------------------------------------------------------------

    Molecular point group: c1
  Charge       = 0
  Multiplicity = 1
  Basis Set: 6-31G*
  Basis Set:
  @DF-RHF Final Energy:  -344.86863093958067
    Total Energy =                       -344.8686309395804415
    Molecular point group: c1
  Basis Set: 6-31G*
  Basis Set:
  Basis Set: 6-31G*
  Basis Set:
  @DF-RHF Final Energy:  -344.88866281688934
    Total Energy =                       -344.8886628168894504
  Basis Set: 6-31G*
  Basis Set:
  Basis Set: 6-31G*
  Basis Set:
  @DF-RHF Final Energy:  -344.89258072539417
    Total Energy =                       -344.8925807253942253
  Basis Set: 6-31G*
  Basis Set:
  Basis Set: 6-31G*
  Basis Set:
  @DF-RHF Final Energy:  -344.89088889265867
    Total Energy =                       -344.8908888926587792
  Basis Set: 6-31G*
  Basis Set:
  @DF-RHF Final Energy:  -344.89404862105806
    Total Energy =                       -344.8940486210583458
  @DF-RHF Final Energy:  -344.89446688724024
    Total Energy =                       -344.8944668872405828
  @DF-RHF Final Energy:  -344.89454191433379
    Total Energy =                       -344.8945419143333879
  @DF-RHF Final Energy:  -344.89476130352824
    Total Energy =                       -344.8947613035281847
  @DF-RHF Final Energy:  -344.89503012770172
    Total Energy =                       -344.8950301277019435
  @DF-RHF Final Energy:  -344.89546445504971
    Total Energy =                       -344.8954644550495914
  @DF-RHF Final Energy:  -344.89589868224647
    Total Energy =                       -344.8958986822466386
  @DF-RHF Final Energy:  -344.89612933949246
    Total Energy =                       -344.8961293394927452
  @DF-RHF Final Energy:  -344.89637188267920
    Total Energy =                       -344.8963718826789204
  @DF-RHF Final Energy:  -344.89655706670328
    Total Energy =                       -344.8965570667035081
  @DF-RHF Final Energy:  -344.89676471576928
    Total Energy =                       -344.8967647157693364
  @DF-RHF Final Energy:  -344.89696173007832
    Total Energy =                       -344.8969617300782602
  @DF-RHF Final Energy:  -344.89714157996525
    Total Energy =                       -344.8971415799652505
  @DF-RHF Final Energy:  -344.89729754914691
    Total Energy =                       -344.8972975491468560
  @DF-RHF Final Energy:  -344.89742316976191
    Total Energy =                       -344.8974231697618507
  Basis Set: 6-31G*
  Basis Set:
  @DF-RHF Final Energy:  -344.89744484871517
    Total Energy =                       -344.8974448487150539
  Basis Set: 6-31G*
  Basis Set:
  Basis Set: 6-31G*
  Basis Set:
  @DF-RHF Final Energy:  -344.89746702705446
    Total Energy =                       -344.8974670270545175
  Basis Set: 6-31G*
  Basis Set:
  Basis Set: 6-31G*
  Basis Set:
  @DF-RHF Final Energy:  -344.89748237430865
    Total Energy =                       -344.8974823743087654
  Basis Set: 6-31G*
  Basis Set:
  Charge       = 0
  Multiplicity = 1
  Basis Set: 6-31G*
  Basis Set:

    Orbital Energies (a.u.)
    -----------------------

    Doubly Occupied:

       1A    -20.605081     2A    -20.543257     3A    -11.371424
       4A    -11.280762     5A    -11.234179     6A    -11.233345
       7A    -11.214654     8A     -1.469185     9A     -1.361465
      10A     -1.078178    11A     -0.996845    12A     -0.943874
      13A     -0.835887    14A     -0.769093    15A     -0.688183
      16A     -0.678983    17A     -0.673741    18A     -0.632083
      19A     -0.606568    20A     -0.580393    21A     -0.552481
      22A     -0.539293    23A     -0.527482    24A     -0.503441
      25A     -0.484726    26A     -0.477044    27A     -0.454340
      28A     -0.432278

  @DF-RHF Final Energy:  -344.89748285066116

   => Energetics <=

    Nuclear Repulsion Energy =            322.5377281018775193
    One-Electron Energy =               -1109.3338934376697580
    Two-Electron Energy =                 441.8986824851310757
    DFT Exchange-Correlation Energy =       0.0000000000000000
    Empirical Dispersion Energy =           0.0000000000000000
    PCM Polarization Energy =               0.0000000000000000
    EFP Energy =                            0.0000000000000000
    Total Energy =                       -344.8974828506611630
    Molecular point group: c1
  Basis Set: 6-31G*
  Basis Set:

  -Total Gradient:
     Atom            X                  Y                   Z
    ------   -----------------  -----------------  -----------------
       1        0.000001558889    -0.000011884037    -0.000075926221
       2       -0.000026922591     0.000040400320     0.000143107441
       3        0.000587701816     0.000239909254    -0.000593457164
       4        0.000046390458     0.000003515533    -0.000055559131
       5        0.000358203974     0.000554212308     0.000445286944
       6       -0.000546635713    -0.000298938540     0.000389673721
       7        0.000007923608     0.000015009458     0.000003814876
       8       -0.000027080335    -0.000008233829    -0.000018346927
       9       -0.000407683266    -0.000525342982    -0.000287969290
      10       -0.000007325774    -0.000006119987    -0.000002855739
      11        0.000019624095     0.000009721150     0.000011226076
      12        0.000023785091     0.000000346264     0.000014118428
      13        0.000001098385     0.000000394851     0.000010143240
      14       -0.000033967837    -0.000028923663     0.000019527596
      15       -0.000000945210     0.000010217893     0.000000624589
      16       -0.000001640975     0.000003374177    -0.000001975058
      17        0.000005915387     0.000002341829    -0.000001433384

  **** Optimization is complete! (in 23 steps) ****
    Final optimized geometry and variables:
    Molecular point group: c1

    Geometry (in Angstrom), charge = 0, multiplicity = 1:

    O            0.733937938158     0.105194054276     1.462959189547
    C            0.298545501180    -0.385351392718     0.470721569804
    C           -1.122619121528    -0.863740457137     0.298954121033
    O            1.023704949952    -0.564957854115    -0.626056471787
    C           -2.095753558360     0.209042170367    -0.277928000337
    H           -1.112265688630    -1.737005175484    -0.340254840594
    H           -1.458487679885    -1.173000219838     1.279549248334
    C           -1.467525119357     1.540614506832    -0.695725676487
    H           -2.864999976555     0.402681181560     0.461004338125
    H           -2.604060781197    -0.219102412556    -1.134834172317
    H           -0.976735193240     2.028555404216     0.139589499966
    H           -2.235937216778     2.211252911289    -1.066133389776
    H           -0.737054248304     1.405735582687    -1.486126237537
    C            2.369812876669    -0.127134499042    -0.583517157024
    H            2.417623901016     0.936148065746    -0.397259189861
    H            2.785642458466    -0.356624400810    -1.552212221269
    H            2.913702553936    -0.648226735393     0.190993265815

  Mulliken Charges: (a.u.)
   Center  Symbol    Alpha    Beta     Spin     Total
       1     O     4.28428  4.28428  0.00000 -0.56857
       2     C     2.62013  2.62013  0.00000  0.75974
       3     C     3.19846  3.19846  0.00000 -0.39692
       4     O     4.30179  4.30179  0.00000 -0.60357
       5     C     3.15463  3.15463  0.00000 -0.30926
       6     H     0.40183  0.40183  0.00000  0.19634
       7     H     0.39803  0.39803  0.00000  0.20394
       8     C     3.25798  3.25798  0.00000 -0.51595
       9     H     0.41227  0.41227  0.00000  0.17545
      10     H     0.41423  0.41423  0.00000  0.17154
      11     H     0.40896  0.40896  0.00000  0.18209
      12     H     0.41504  0.41504  0.00000  0.16991
      13     H     0.41325  0.41325  0.00000  0.17350
      14     C     3.09294  3.09294  0.00000 -0.18588
      15     H     0.40916  0.40916  0.00000  0.18167
      16     H     0.40879  0.40879  0.00000  0.18241
      17     H     0.40823  0.40823  0.00000  0.18355

   Total alpha = 28.00000, Total beta = 28.00000, Total charge =  0.00000
