                              Psi4 1.0.54 Driver

  ==> Input File <==

--------------------------------------------------------------------------
set {
	reference rhf
	basis cc-pvtz
}

set_num_threads( 4 )
memory 2 gb

molecule MOL {
0 1

H	 -1.998089	 -1.595250	 0.175449
O	 -2.321472	 -0.864941	 -0.318626
C	 -2.021813	 0.336996	 0.342658
C	 -0.669613	 0.837286	 -0.127252
H	 -2.780861	 1.084746	 0.127159
H	 -2.006390	 0.184138	 1.420053
C	 0.490865	 -0.082543	 0.241244
H	 -0.708709	 0.967192	 -1.204587
H	 -0.507562	 1.822272	 0.303070
C	 1.839800	 0.429565	 -0.255472
H	 0.305636	 -1.070211	 -0.165276
H	 0.527397	 -0.195943	 1.322876
C	 3.001144	 -0.485193	 0.119072
H	 1.804373	 0.541073	 -1.335756
H	 2.020437	 1.423114	 0.146921
H	 2.866892	 -1.477297	 -0.298806
H	 3.943543	 -0.095749	 -0.249061
H	 3.085064	 -0.590459	 1.195790

	symmetry c1
}
set optking {
	frozen_dihedral = ("
		1 2 3 4
	")
}

ee,wfn = optimize('scf', return_wfn=True)
oeprop( wfn, 'DIPOLE', 'QUADRUPOLE', 'MULLIKEN_CHARGES')
f=open( 'psi4out.xyz', 'w' )
f.write( "18  " )
f.write( str(ee) + "\n" )
f.write( MOL.save_string_xyz() )
f.close()
--------------------------------------------------------------------------

    Molecular point group: c1
  Charge       = 0
  Multiplicity = 1
  Basis Set: CC-PVTZ
  Basis Set:
  @DF-RHF Final Energy:  -271.28459245879992
    Total Energy =                       -271.2845924587999775
    Molecular point group: c1
  Basis Set: CC-PVTZ
  Basis Set:
  Basis Set: CC-PVTZ
  Basis Set:
  @DF-RHF Final Energy:  -271.28563117849245
    Total Energy =                       -271.2856311784922241
  Basis Set: CC-PVTZ
  Basis Set:
  Basis Set: CC-PVTZ
  Basis Set:
  @DF-RHF Final Energy:  -271.28594253451558
    Total Energy =                       -271.2859425345155273
  Basis Set: CC-PVTZ
  Basis Set:
  Basis Set: CC-PVTZ
  Basis Set:
  @DF-RHF Final Energy:  -271.28594798587312
    Total Energy =                       -271.2859479858730651
  Basis Set: CC-PVTZ
  Basis Set:
  Basis Set: CC-PVTZ
  Basis Set:
  @DF-RHF Final Energy:  -271.28594908314511
    Total Energy =                       -271.2859490831453968
  Basis Set: CC-PVTZ
  Basis Set:
  Charge       = 0
  Multiplicity = 1
  Basis Set: CC-PVTZ
  Basis Set:

    Orbital Energies (a.u.)
    -----------------------

    Doubly Occupied:

       1A    -20.545711     2A    -11.265839     3A    -11.215197
       4A    -11.214328     5A    -11.211868     6A    -11.208111
       7A     -1.363310     8A     -1.081620     9A     -1.012595
      10A     -0.920679    11A     -0.827240    12A     -0.790296
      13A     -0.702384    14A     -0.645394    15A     -0.622372
      16A     -0.595898    17A     -0.576447    18A     -0.565746
      19A     -0.524347    20A     -0.510026    21A     -0.489318
      22A     -0.475402    23A     -0.467031    24A     -0.458933
      25A     -0.426402

  @DF-RHF Final Energy:  -271.28594921302846

   => Energetics <=

    Nuclear Repulsion Energy =            248.9941117413968072
    One-Electron Energy =                -861.1271359503792837
    Two-Electron Energy =                 340.8470749959542445
    DFT Exchange-Correlation Energy =       0.0000000000000000
    Empirical Dispersion Energy =           0.0000000000000000
    PCM Polarization Energy =               0.0000000000000000
    EFP Energy =                            0.0000000000000000
    Total Energy =                       -271.2859492130282888
    Molecular point group: c1
  Basis Set: CC-PVTZ
  Basis Set:

  -Total Gradient:
     Atom            X                  Y                   Z
    ------   -----------------  -----------------  -----------------
       1       -0.000776464516     0.000019528785     0.000479207545
       2        0.000866093131     0.000146383379    -0.000772210623
       3        0.000177346972    -0.000439483275     0.000731955777
       4       -0.000276384451     0.000267415252    -0.000445418705
       5        0.000005585812    -0.000007033014    -0.000004657348
       6        0.000004740367     0.000004153630     0.000005707061
       7       -0.000002845598    -0.000014432305    -0.000001016077
       8        0.000014668080     0.000010906128    -0.000010834077
       9       -0.000010387959     0.000000267336    -0.000000081905
      10       -0.000000760266     0.000010327847     0.000008799505
      11        0.000000469297     0.000004717891     0.000007477700
      12        0.000005610665    -0.000000034472     0.000006731772
      13       -0.000008231267    -0.000006035736    -0.000005442580
      14        0.000000169174     0.000002515639     0.000000307199
      15        0.000002142492    -0.000001476814     0.000002395349
      16        0.000000783989    -0.000001082526     0.000002296954
      17       -0.000001664859     0.000000142692    -0.000003009936
      18       -0.000000871064     0.000003219563    -0.000002207613

  **** Optimization is complete! (in 6 steps) ****
    Final optimized geometry and variables:
    Molecular point group: c1

    Geometry (in Angstrom), charge = 0, multiplicity = 1:

    H           -2.096237524747    -1.614457537130     0.225498458611
    O           -2.405678665062    -0.883227057703    -0.274428219924
    C           -2.023974311929     0.324140513352     0.334299259079
    C           -0.673735558573     0.827905881217    -0.151023276779
    H           -2.789409080900     1.047793884726     0.085375607874
    H           -2.020316560427     0.220565962074     1.416792951204
    C            0.498446397142    -0.074548893913     0.222766585943
    H           -0.718292820494     0.941717480209    -1.229888021485
    H           -0.515190352335     1.820277344338     0.264915750505
    C            1.845573210729     0.455681014949    -0.260290322797
    H            0.339392865813    -1.064284362916    -0.195442453096
    H            0.530063492999    -0.195173573678     1.304298183346
    C            3.014480318485    -0.450731053781     0.110360787467
    H            1.813912078813     0.579779711942    -1.339035281268
    H            2.011667299957     1.445828250340     0.155310267030
    H            2.894504046426    -1.439415219766    -0.320028795405
    H            3.954103864269    -0.046449106531    -0.248134166820
    H            3.094097504816    -0.567244972815     1.186218490803

  Mulliken Charges: (a.u.)
   Center  Symbol    Alpha    Beta     Spin     Total
       1     H     0.39130  0.39130  0.00000  0.21740
       2     O     4.20728  4.20728  0.00000 -0.41457
       3     C     2.98398  2.98398  0.00000  0.03205
       4     C     3.08181  3.08181  0.00000 -0.16362
       5     H     0.44946  0.44946  0.00000  0.10108
       6     H     0.46865  0.46865  0.00000  0.06270
       7     C     3.09825  3.09825  0.00000 -0.19650
       8     H     0.45213  0.45213  0.00000  0.09574
       9     H     0.45622  0.45622  0.00000  0.08756
      10     C     3.08325  3.08325  0.00000 -0.16651
      11     H     0.45433  0.45433  0.00000  0.09134
      12     H     0.45686  0.45686  0.00000  0.08629
      13     C     3.14990  3.14990  0.00000 -0.29981
      14     H     0.45288  0.45288  0.00000  0.09423
      15     H     0.45492  0.45492  0.00000  0.09017
      16     H     0.45501  0.45501  0.00000  0.08998
      17     H     0.44803  0.44803  0.00000  0.10395
      18     H     0.45573  0.45573  0.00000  0.08854

   Total alpha = 25.00000, Total beta = 25.00000, Total charge =  0.00000

*** Psi4 exiting successfully. Buy a developer a beer!
