  ==> Input File <==

--------------------------------------------------------------------------
set {
	reference rhf
	basis 6-31G*
}

set_num_threads( 1 )
memory 2 gb

molecule MOL {
0 1

H	 1.639206	 0.093695	 -3.696229
O	 1.790785	 -0.636258	 -4.278693
C	 2.148405	 -1.771500	 -3.532109
C	 0.978405	 -2.381679	 -2.768232
H	 2.529802	 -2.487124	 -4.249111
H	 2.961721	 -1.536100	 -2.846629
C	 0.392472	 -1.465203	 -1.691375
H	 0.202938	 -2.649119	 -3.481320
H	 1.319688	 -3.307700	 -2.308472
C	 -0.744027	 -2.126411	 -0.906523
H	 0.029086	 -0.553550	 -2.157427
H	 1.180797	 -1.170621	 -0.998478
C	 -1.309753	 -1.282496	 0.241564
H	 -1.548439	 -2.386631	 -1.592127
H	 -0.380245	 -3.066087	 -0.496192
C	 -2.037799	 -0.007733	 -0.193645
H	 -2.001796	 -1.899812	 0.810610
H	 -0.504491	 -1.021972	 0.926778
C	 -3.489788	 0.042957	 0.286558
H	 -2.017067	 0.064384	 -1.280144
H	 -1.513726	 0.868678	 0.179924
C	 -4.216917	 1.317354	 -0.141063
H	 -4.025645	 -0.823308	 -0.095450
H	 -3.513059	 -0.038752	 1.371301
H	 -4.239342	 1.411634	 -1.223113
H	 -5.243387	 1.322503	 0.212445
H	 -3.726170	 2.201406	 0.256408

	symmetry c1
}
set optking {
	frozen_dihedral = ("
		14 10 7 4,
		14 10 13 16,
		10 7 4 8,
		8 4 3 2,
		20 16 19 22,
		4 3 2 1
	")
}

ee = energy('scf')
oeprop('DIPOLE', 'QUADRUPOLE', 'MULLIKEN_CHARGES')
f=open( 'psi4out.xyz', 'w' )
f.write( "27  " )
f.write( str(ee) + "\n" )
f.write( MOL.save_string_xyz() )
f.close()
--------------------------------------------------------------------------

    Molecular point group: c1

    Geometry (in Angstrom), charge = 0, multiplicity = 1:

       Center              X                  Y                   Z               Mass
    ------------   -----------------  -----------------  -----------------  -----------------
           H          2.328503077950     0.995592393569    -2.207597672313     1.007825032070
           O          2.480082077950     0.265639393569    -2.790061672313    15.994914619560
           C          2.837702077950    -0.869602606431    -2.043477672313    12.000000000000
           C          1.667702077950    -1.479781606431    -1.279600672313    12.000000000000
           H          3.219099077950    -1.585226606431    -2.760479672313     1.007825032070
           H          3.651018077950    -0.634202606431    -1.357997672313     1.007825032070
           C          1.081769077950    -0.563305606431    -0.202743672313    12.000000000000
           H          0.892235077950    -1.747221606431    -1.992688672313     1.007825032070
           H          2.008985077950    -2.405802606431    -0.819840672313     1.007825032070
           C         -0.054729922050    -1.224513606431     0.582108327687    12.000000000000
           H          0.718383077950     0.348347393569    -0.668795672313     1.007825032070
           H          1.870094077950    -0.268723606431     0.490153327687     1.007825032070
           C         -0.620455922050    -0.380598606431     1.730195327687    12.000000000000
           H         -0.859141922050    -1.484733606431    -0.103495672313     1.007825032070
           H          0.309052077950    -2.164189606431     0.992439327687     1.007825032070
           C         -1.348501922050     0.894164393569     1.294986327687    12.000000000000
           H         -1.312498922050    -0.997914606431     2.299241327687     1.007825032070
           H          0.184806077950    -0.120074606431     2.415409327687     1.007825032070
           C         -2.800490922050     0.944854393569     1.775189327687    12.000000000000
           H         -1.327769922050     0.966281393569     0.208487327687     1.007825032070
           H         -0.824428922050     1.770575393569     1.668555327687     1.007825032070
           C         -3.527619922050     2.219251393569     1.347568327687    12.000000000000
           H         -3.336347922050     0.078589393569     1.393181327687     1.007825032070
           H         -2.823761922050     0.863145393569     2.859932327687     1.007825032070
           H         -3.550044922050     2.313531393569     0.265518327687     1.007825032070
           H         -4.554089922050     2.224400393569     1.701076327687     1.007825032070
           H         -3.036872922050     3.103303393569     1.745039327687     1.007825032070

  Charge       = 0
  Multiplicity = 1
  Basis Set: 6-31G*
  Basis Set:

    Orbital Energies (a.u.)
    -----------------------

    Doubly Occupied:

       1A    -20.552371     2A    -11.267172     3A    -11.219980
       4A    -11.217526     5A    -11.216081     6A    -11.215402
       7A    -11.214112     8A    -11.212887     9A    -11.208584
      10A     -1.359118    11A     -1.095540    12A     -1.061314
      13A     -1.010981    14A     -0.948409    15A     -0.887459
      16A     -0.821973    17A     -0.803431    18A     -0.775092
      19A     -0.693699    20A     -0.655510    21A     -0.628388
      22A     -0.614826    23A     -0.604648    24A     -0.587759
      25A     -0.577116    26A     -0.556837    27A     -0.536614
      28A     -0.530521    29A     -0.506313    30A     -0.492904
      31A     -0.484722    32A     -0.478910    33A     -0.468887
      34A     -0.453561    35A     -0.451189    36A     -0.442919
      37A     -0.422842

  @DF-RHF Final Energy:  -388.27653444991034

   => Energetics <=

    Nuclear Repulsion Energy =            460.8078856718151997
    One-Electron Energy =               -1439.6174470385587938
    Two-Electron Energy =                 590.5330269168345012
    DFT Exchange-Correlation Energy =       0.0000000000000000
    Empirical Dispersion Energy =           0.0000000000000000
    PCM Polarization Energy =               0.0000000000000000
    EFP Energy =                            0.0000000000000000
    Total Energy =                       -388.2765344499090361

  Mulliken Charges: (a.u.)
   Center  Symbol    Alpha    Beta     Spin     Total
       1     H     0.27979  0.27979  0.00000  0.44043
       2     O     4.37100  4.37100  0.00000 -0.74201
       3     C     2.99737  2.99737  0.00000  0.00526
       4     C     3.16102  3.16102  0.00000 -0.32204
       5     H     0.41443  0.41443  0.00000  0.17115
       6     H     0.43196  0.43196  0.00000  0.13608
       7     C     3.16263  3.16263  0.00000 -0.32526
       8     H     0.41511  0.41511  0.00000  0.16977
       9     H     0.42414  0.42414  0.00000  0.15173
      10     C     3.15390  3.15390  0.00000 -0.30779
      11     H     0.42310  0.42310  0.00000  0.15380
      12     H     0.42530  0.42530  0.00000  0.14939
      13     C     3.15703  3.15703  0.00000 -0.31406
      14     H     0.42188  0.42188  0.00000  0.15624
      15     H     0.42206  0.42206  0.00000  0.15589
      16     C     3.15397  3.15397  0.00000 -0.30794
      17     H     0.41825  0.41825  0.00000  0.16349
      18     H     0.42201  0.42201  0.00000  0.15599
      19     C     3.15396  3.15396  0.00000 -0.30793
      20     H     0.42130  0.42130  0.00000  0.15741
      21     H     0.42180  0.42180  0.00000  0.15641
      22     C     3.23995  3.23995  0.00000 -0.47989
      23     H     0.42266  0.42266  0.00000  0.15468
      24     H     0.42248  0.42248  0.00000  0.15505
      25     H     0.42152  0.42152  0.00000  0.15696
      26     H     0.41934  0.41934  0.00000  0.16132
      27     H     0.42206  0.42206  0.00000  0.15589

   Total alpha = 37.00000, Total beta = 37.00000, Total charge =  0.00000
