  ==> Input File <==

--------------------------------------------------------------------------
set {
	reference rhf
	basis 6-31G*
}

set_num_threads( 4 )
memory 2 gb

molecule MOL {
0 1

O	 -0.291628	 1.323815	 -0.000732
C	 -0.449655	 0.146360	 0.000961
C	 -1.783294	 -0.549321	 -0.000296
O	 0.550821	 -0.724572	 0.000672
H	 -1.863538	 -1.185371	 -0.874187
H	 -2.574672	 0.185258	 -0.002793
H	 -1.866414	 -1.182381	 0.875436
C	 0.317750	 -1.969954	 0.633905
H	 0.083379	 -1.826420	 1.678809
H	 1.233887	 -2.529862	 0.529293
H	 -0.497724	 -2.492356	 0.154906

	symmetry c1
}
set optking {
	frozen_dihedral = ("
		8 4 2 1
	")
}

ee = optimize('scf')
oeprop('DIPOLE', 'QUADRUPOLE', 'MULLIKEN_CHARGES')
f=open( 'psi4out.xyz', 'w' )
f.write( "11  " )
f.write( str(ee) + "\n" )
f.write( MOL.save_string_xyz() )
f.close()
--------------------------------------------------------------------------

    Molecular point group: c1
  Charge       = 0
  Multiplicity = 1
  Basis Set: 6-31G*
  Basis Set:
  @DF-RHF Final Energy:  -266.81182747624086
    Total Energy =                       -266.8118274762407509
    Molecular point group: c1
  Basis Set: 6-31G*
  Basis Set:
  Basis Set: 6-31G*
  Basis Set:
  @DF-RHF Final Energy:  -266.81209256557935
    Total Energy =                       -266.8120925655792348
  Basis Set: 6-31G*
  Basis Set:
  Basis Set: 6-31G*
  Basis Set:
  @DF-RHF Final Energy:  -266.81789876608900
    Total Energy =                       -266.8178987660890016
  Basis Set: 6-31G*
  Basis Set:
  Basis Set: 6-31G*
  Basis Set:
  @DF-RHF Final Energy:  -266.81910730046502
    Total Energy =                       -266.8191073004652480
  Basis Set: 6-31G*
  Basis Set:
  @DF-RHF Final Energy:  -266.81875364641081
    Total Energy =                       -266.8187536464106415
  Basis Set: 6-31G*
  Basis Set:
  @DF-RHF Final Energy:  -266.81977114100300
    Total Energy =                       -266.8197711410031729
  Basis Set: 6-31G*
  Basis Set:
  Basis Set: 6-31G*
  Basis Set:
  @DF-RHF Final Energy:  -266.81979088399703
    Total Energy =                       -266.8197908839970296
  Basis Set: 6-31G*
  Basis Set:
  Basis Set: 6-31G*
  Basis Set:
  @DF-RHF Final Energy:  -266.81979250047186
    Total Energy =                       -266.8197925004715216
  Basis Set: 6-31G*
  Basis Set:
  Charge       = 0
  Multiplicity = 1
  Basis Set: 6-31G*
  Basis Set:

    Orbital Energies (a.u.)
    -----------------------

    Doubly Occupied:

       1A    -20.601018     2A    -20.545132     3A    -11.378505
       4A    -11.298235     5A    -11.244021     6A     -1.464349
       7A     -1.368446     8A     -1.022832     9A     -0.982946
      10A     -0.783763    11A     -0.697999    12A     -0.685261
      13A     -0.678234    14A     -0.607934    15A     -0.593070
      16A     -0.578636    17A     -0.546647    18A     -0.509280
      19A     -0.452586    20A     -0.437289

  @DF-RHF Final Energy:  -266.81979277017115

   => Energetics <=

    Nuclear Repulsion Energy =            182.7893672239513023
    One-Electron Energy =                -726.2659511362325020
    Two-Electron Energy =                 276.6567911421099666
    DFT Exchange-Correlation Energy =       0.0000000000000000
    Empirical Dispersion Energy =           0.0000000000000000
    PCM Polarization Energy =               0.0000000000000000
    EFP Energy =                            0.0000000000000000
    Total Energy =                       -266.8197927701712047
    Molecular point group: c1
  Basis Set: 6-31G*
  Basis Set:

  -Total Gradient:
     Atom            X                  Y                   Z
    ------   -----------------  -----------------  -----------------
       1       -0.000017919547     0.000040380365     0.003123709864
       2        0.000490142090     0.000565640290    -0.003149670826
       3       -0.000023787654     0.000033390398    -0.000002534926
       4       -0.001358537797    -0.001642951669    -0.002354710165
       5        0.000016563545     0.000010161443    -0.000010986290
       6       -0.000001809518    -0.000004827230    -0.000005240234
       7       -0.000011179711    -0.000009585929    -0.000020515374
       8        0.000893672527     0.001036301726     0.002419040902
       9        0.000005218128    -0.000034747489     0.000007465995
      10       -0.000008246291     0.000002259064    -0.000004333488
      11        0.000015884228     0.000003979028    -0.000002225456

  **** Optimization is complete! (in 9 steps) ****
    Final optimized geometry and variables:
    Molecular point group: c1

    Geometry (in Angstrom), charge = 0, multiplicity = 1:

    O            0.058584381435     1.667362283038    -0.129147819137
    C           -0.154745973309     0.504379671721    -0.124434799248
    C           -1.550058819336    -0.076346032353    -0.151192656151
    O            0.868347237130    -0.358801750178    -0.120333261390
    H           -1.652497794932    -0.792300641032    -0.959057323766
    H           -2.251135243938     0.732361394263    -0.289722807005
    H           -1.779709384709    -0.586510403309     0.778002405420
    C            0.756843665833    -1.625182685190     0.486189686183
    H            0.474640447801    -1.536267206141     1.528510794858
    H            1.737348063913    -2.070331009963     0.424324375183
    H            0.047487203298    -2.260508791823    -0.029740061984

  Mulliken Charges: (a.u.)
   Center  Symbol    Alpha    Beta     Spin     Total
       1     O     4.25906  4.25906  0.00000 -0.51812
       2     C     2.61840  2.61840  0.00000  0.76319
       3     C     3.30655  3.30655  0.00000 -0.61310
       4     O     4.29745  4.29745  0.00000 -0.59490
       5     H     0.40173  0.40173  0.00000  0.19653
       6     H     0.38810  0.38810  0.00000  0.22380
       7     H     0.40344  0.40344  0.00000  0.19312
       8     C     3.09412  3.09412  0.00000 -0.18825
       9     H     0.41535  0.41535  0.00000  0.16930
      10     H     0.39799  0.39799  0.00000  0.20401
      11     H     0.41779  0.41779  0.00000  0.16441

   Total alpha = 20.00000, Total beta = 20.00000, Total charge =  0.00000
