                              Psi4 1.0.54 Driver

  ==> Input File <==

--------------------------------------------------------------------------
set {
	reference rhf
	basis cc-pvtz
}

set_num_threads( 4 )
memory 2 gb

molecule MOL {
0 1

H	 -3.162190	 0.493205	 -0.000107
C	 -2.363908	 -0.234727	 0.000005
O	 -1.158738	 0.454634	 -0.000087
H	 -2.464314	 -0.863616	 -0.882153
H	 -2.464327	 -0.863359	 0.882345
C	 -0.171286	 -0.110156	 0.803821
C	 1.085682	 0.731724	 0.716296
H	 0.036409	 -1.130230	 0.479862
H	 -0.515915	 -0.164545	 1.836737
C	 2.218801	 0.177070	 1.572305
H	 1.393787	 0.785516	 -0.322022
H	 0.845860	 1.743498	 1.024115
H	 2.491493	 -0.827037	 1.264907
H	 3.103271	 0.796854	 1.491053
H	 1.940020	 0.137626	 2.620061

	symmetry c1
}
set optking {
	frozen_dihedral = ("
		6 3 2 4
	")
}

ee,wfn = optimize('scf', return_wfn=True)
oeprop( wfn, 'DIPOLE', 'QUADRUPOLE', 'MULLIKEN_CHARGES')
f=open( 'psi4out.xyz', 'w' )
f.write( "15  " )
f.write( str(ee) + "\n" )
f.write( MOL.save_string_xyz() )
f.close()
--------------------------------------------------------------------------

    Molecular point group: c1
  Charge       = 0
  Multiplicity = 1
  Basis Set: CC-PVTZ
  Basis Set:
  @DF-RHF Final Energy:  -232.22535514479901
    Total Energy =                       -232.2253551447990958
    Molecular point group: c1
  Basis Set: CC-PVTZ
  Basis Set:
  Basis Set: CC-PVTZ
  Basis Set:
  @DF-RHF Final Energy:  -232.22552006284798
    Total Energy =                       -232.2255200628479201
  Basis Set: CC-PVTZ
  Basis Set:
  Basis Set: CC-PVTZ
  Basis Set:
  @DF-RHF Final Energy:  -232.22555580507779
    Total Energy =                       -232.2255558050777609
  Basis Set: CC-PVTZ
  Basis Set:
  Charge       = 0
  Multiplicity = 1
  Basis Set: CC-PVTZ
  Basis Set:

    Orbital Energies (a.u.)
    -----------------------

    Doubly Occupied:

       1A    -20.544943     2A    -11.264770     3A    -11.261331
       4A    -11.212358     5A    -11.210530     6A     -1.378119
       7A     -1.058142     8A     -0.956195     9A     -0.877302
      10A     -0.809254    11A     -0.674093    12A     -0.654299
      13A     -0.631960    14A     -0.608226    15A     -0.564095
      16A     -0.544380    17A     -0.503101    18A     -0.489857
      19A     -0.479021    20A     -0.462271    21A     -0.412320

  @DF-RHF Final Energy:  -232.22555613665267

   => Energetics <=

    Nuclear Repulsion Energy =            189.7380412432436003
    One-Electron Energy =                -690.7340622407957653
    Two-Electron Energy =                 268.7704648608996649
    DFT Exchange-Correlation Energy =       0.0000000000000000
    Empirical Dispersion Energy =           0.0000000000000000
    PCM Polarization Energy =               0.0000000000000000
    EFP Energy =                            0.0000000000000000
    Total Energy =                       -232.2255561366524717
    Molecular point group: c1
  Basis Set: CC-PVTZ
  Basis Set:

  -Total Gradient:
     Atom            X                  Y                   Z
    ------   -----------------  -----------------  -----------------
       1       -0.000011393043    -0.000003885715     0.000001225727
       2        0.001151935405    -0.002015186838     0.002260404930
       3        0.000517984226    -0.001088212733    -0.002690125435
       4       -0.001091478103     0.001991184511    -0.001218798862
       5       -0.000000560560    -0.000004822344     0.000006189413
       6       -0.000592600330     0.001115614087     0.001608598132
       7       -0.000006948155    -0.000014289981     0.000015732171
       8       -0.000006278988     0.000008689430     0.000009706706
       9       -0.000008372262     0.000009064811    -0.000021948292
      10        0.000039700675     0.000016001335     0.000010672483
      11       -0.000012804988    -0.000006748589     0.000009158609
      12        0.000002648049    -0.000003999494    -0.000001984571
      13       -0.000002787740     0.000004180210     0.000000200440
      14        0.000018932294    -0.000006793104     0.000012719551
      15        0.000002023523    -0.000000795585    -0.000001751003

  **** Optimization is complete! (in 4 steps) ****
    Final optimized geometry and variables:
    Molecular point group: c1

    Geometry (in Angstrom), charge = 0, multiplicity = 1:

    H           -3.072235999472     0.311565492165    -0.608341803809
    C           -2.272015367028    -0.417679842334    -0.607488676245
    O           -1.055694181979     0.260436667780    -0.592495948781
    H           -2.368580063324    -1.020355838410    -1.506016743032
    H           -2.393542829554    -1.056324282761     0.261719274962
    C           -0.053613319436    -0.310696136768     0.190234225148
    C            1.196067666549     0.540997888283     0.094076074906
    H            0.159932394009    -1.325273105637    -0.146866143905
    H           -0.382658080929    -0.377516817765     1.226733373777
    C            2.343093175035    -0.011125541842     0.933353652918
    H            1.492104686460     0.604609923201    -0.947226099437
    H            0.951930852635     1.548809698063     0.411623011389
    H            2.619704291919    -1.011061166349     0.615874978625
    H            3.222175858810     0.615706438718     0.846641855409
    H            2.076482182684    -0.059930505941     1.983946479858

  Mulliken Charges: (a.u.)
   Center  Symbol    Alpha    Beta     Spin     Total
       1     H     0.45309  0.45309  0.00000  0.09383
       2     C     3.03038  3.03038  0.00000 -0.06077
       3     O     4.17528  4.17528  0.00000 -0.35057
       4     H     0.46285  0.46285  0.00000  0.07430
       5     H     0.47347  0.47347  0.00000  0.05306
       6     C     2.95563  2.95563  0.00000  0.08874
       7     C     3.08164  3.08164  0.00000 -0.16327
       8     H     0.47644  0.47644  0.00000  0.04713
       9     H     0.47503  0.47503  0.00000  0.04994
      10     C     3.15586  3.15586  0.00000 -0.31171
      11     H     0.45105  0.45105  0.00000  0.09790
      12     H     0.45125  0.45125  0.00000  0.09751
      13     H     0.45584  0.45584  0.00000  0.08833
      14     H     0.44628  0.44628  0.00000  0.10745
      15     H     0.45593  0.45593  0.00000  0.08814

   Total alpha = 21.00000, Total beta = 21.00000, Total charge =  0.00000

*** Psi4 exiting successfully. Buy a developer a beer!
