                              Psi4 1.0.54 Driver

  ==> Input File <==

--------------------------------------------------------------------------
set {
	reference rhf
	basis cc-pvtz
}

set_num_threads( 4 )
memory 2 gb

molecule MOL {
0 1

H	 -3.332837	 0.481065	 1.305526
C	 -3.343012	 0.183553	 0.248044
C	 -2.548716	 1.074128	 -0.668396
O	 -3.956741	 -0.767445	 -0.092907
C	 -1.113875	 1.297077	 -0.181364
H	 -2.570898	 0.651009	 -1.664294
H	 -3.068004	 2.029472	 -0.699422
C	 -0.247837	 0.040196	 -0.230469
H	 -0.660995	 2.070859	 -0.791693
H	 -1.134800	 1.686935	 0.833410
C	 1.181757	 0.280428	 0.247371
H	 -0.229912	 -0.338635	 -1.248934
H	 -0.700494	 -0.742517	 0.372765
C	 2.151032	 -0.811012	 -0.202643
H	 1.515939	 1.247397	 -0.115449
H	 1.191514	 0.341223	 1.333422
C	 3.580021	 -0.656538	 0.320835
H	 2.170545	 -0.847575	 -1.289412
H	 1.766632	 -1.772905	 0.124928
C	 4.327657	 0.562694	 -0.213579
H	 4.138806	 -1.549270	 0.057813
H	 3.561991	 -0.620783	 1.406976
H	 4.355973	 0.557257	 -1.298551
H	 3.867136	 1.491650	 0.100501
H	 5.351524	 0.571613	 0.142204

	symmetry c1
}
set optking {
	frozen_dihedral = ("
		12 8 11 14
	")
}

ee,wfn = optimize('scf', return_wfn=True)
oeprop( wfn, 'DIPOLE', 'QUADRUPOLE', 'MULLIKEN_CHARGES')
f=open( 'psi4out.xyz', 'w' )
f.write( "25  " )
f.write( str(ee) + "\n" )
f.write( MOL.save_string_xyz() )
f.close()
--------------------------------------------------------------------------

    Molecular point group: c1
  Charge       = 0
  Multiplicity = 1
  Basis Set: CC-PVTZ
  Basis Set:
  @DF-RHF Final Energy:  -387.25929176837832
    Total Energy =                       -387.2592917683780342
    Molecular point group: c1
  Basis Set: CC-PVTZ
  Basis Set:
  Basis Set: CC-PVTZ
  Basis Set:
  @DF-RHF Final Energy:  -387.25934758574772
    Total Energy =                       -387.2593475857479461
  Basis Set: CC-PVTZ
  Basis Set:
  Basis Set: CC-PVTZ
  Basis Set:
  @DF-RHF Final Energy:  -387.25941687773980
    Total Energy =                       -387.2594168777395680
  Basis Set: CC-PVTZ
  Basis Set:
  Basis Set: CC-PVTZ
  Basis Set:
  @DF-RHF Final Energy:  -387.25895923646709
    Total Energy =                       -387.2589592364663531
  Basis Set: CC-PVTZ
  Basis Set:
  Basis Set: CC-PVTZ
  Basis Set:
  @DF-RHF Final Energy:  -387.25943353804001
    Total Energy =                       -387.2594335380399571
  Basis Set: CC-PVTZ
  Basis Set:
  Basis Set: CC-PVTZ
  Basis Set:
  @DF-RHF Final Energy:  -387.25943551890475
    Total Energy =                       -387.2594355189045245
  Basis Set: CC-PVTZ
  Basis Set:
  Charge       = 0
  Multiplicity = 1
  Basis Set: CC-PVTZ
  Basis Set:

    Orbital Energies (a.u.)
    -----------------------

    Doubly Occupied:

       1A    -20.551414     2A    -11.321049     3A    -11.233867
       4A    -11.233072     5A    -11.221606     6A    -11.217666
       7A    -11.216269     8A    -11.215266     9A    -11.208961
      10A     -1.406417    11A     -1.105132    12A     -1.071128
      13A     -1.014380    14A     -0.943564    15A     -0.876301
      16A     -0.821506    17A     -0.789073    18A     -0.781782
      19A     -0.668620    20A     -0.660620    21A     -0.636122
      22A     -0.626838    23A     -0.605215    24A     -0.596269
      25A     -0.573837    26A     -0.554631    27A     -0.532809
      28A     -0.528378    29A     -0.511848    30A     -0.498083
      31A     -0.491104    32A     -0.478975    33A     -0.465056
      34A     -0.458694    35A     -0.442750    36A     -0.411999

  @DF-RHF Final Energy:  -387.25943630607418

   => Energetics <=

    Nuclear Repulsion Energy =            439.6258370588341791
    One-Electron Energy =               -1395.8299535226683474
    Two-Electron Energy =                 568.9446801577602173
    DFT Exchange-Correlation Energy =       0.0000000000000000
    Empirical Dispersion Energy =           0.0000000000000000
    PCM Polarization Energy =               0.0000000000000000
    EFP Energy =                            0.0000000000000000
    Total Energy =                       -387.2594363060740079
    Molecular point group: c1
  Basis Set: CC-PVTZ
  Basis Set:

  -Total Gradient:
     Atom            X                  Y                   Z
    ------   -----------------  -----------------  -----------------
       1        0.000021311413     0.000031273167     0.000022643127
       2        0.000007619938     0.000062547261     0.000056904460
       3       -0.000030021271    -0.000011513795    -0.000022941410
       4       -0.000023484219    -0.000061844426    -0.000063867563
       5        0.000003607154    -0.000010251475     0.000040527740
       6        0.000000403956    -0.000007906432    -0.000015839669
       7        0.000007452650    -0.000001502685    -0.000006370055
       8        0.000039181724     0.004005277373    -0.002120089491
       9       -0.000002904841     0.000008190778    -0.000005020872
      10       -0.000001871263    -0.000003337673     0.000010569829
      11       -0.000588161109    -0.002269259540     0.002857436695
      12        0.000110012153    -0.002891383248     0.001116451102
      13       -0.000002273091    -0.000003356545     0.000004945603
      14        0.000440969968     0.001141962189    -0.001887096562
      15        0.000007996475     0.000016107053    -0.000000950547
      16        0.000000979950    -0.000005724330     0.000009906476
      17        0.000004213228    -0.000010502415    -0.000001379608
      18        0.000000693543     0.000010877038    -0.000006393110
      19       -0.000002620901    -0.000008118911     0.000001463034
      20       -0.000000651934     0.000006320750     0.000004481050
      21       -0.000004799255    -0.000006870340     0.000002500218
      22        0.000003175815     0.000004734144     0.000009637540
      23        0.000001443506     0.000000317248    -0.000012470851
      24        0.000001724824     0.000003781800    -0.000001437696
      25        0.000006001578     0.000000183017     0.000006390560

  **** Optimization is complete! (in 7 steps) ****
    Final optimized geometry and variables:
    Molecular point group: c1

    Geometry (in Angstrom), charge = 0, multiplicity = 1:

    H           -3.295323450467     0.370842774976     1.424972074664
    C           -3.336210895082     0.053681270745     0.373914214066
    C           -2.576557864269     0.931964097115    -0.582915091880
    O           -3.954027284974    -0.906976477219     0.069292771824
    C           -1.130342738130     1.177053828325    -0.143020885589
    H           -2.623712905526     0.488667116896    -1.569190403064
    H           -3.105269941897     1.881979333527    -0.617970701056
    C           -0.252441648056    -0.069698699385    -0.201670458257
    H           -0.704223036908     1.947086069129    -0.776676800926
    H           -1.124231401199     1.580308298798     0.866977314410
    C            1.178837897565     0.171646822640     0.279313565588
    H           -0.236760273078    -0.463551743494    -1.214267690441
    H           -0.696449305257    -0.858701628926     0.400734055579
    C            2.143624905176    -0.931554483265    -0.151744819423
    H            1.525338899630     1.124227515777    -0.110142763422
    H            1.186261757125     0.265179243801     1.362294119695
    C            3.557975999324    -0.807528366663     0.417008692044
    H            2.194388903581    -0.952424446422    -1.237644357232
    H            1.734763032692    -1.892284004936     0.150131577864
    C            4.333951672043     0.416455778725    -0.063565437921
    H            4.114416121602    -1.699890265357     0.147736229049
    H            3.508026818770    -0.798933826300     1.502644870271
    H            4.392276210232     0.439921159127    -1.147164789546
    H            3.875256764305     1.342040528834     0.262992831035
    H            5.347599475262     0.403435032318     0.320238804309

  Mulliken Charges: (a.u.)
   Center  Symbol    Alpha    Beta     Spin     Total
       1     H     0.46424  0.46424  0.00000  0.07151
       2     C     2.90489  2.90489  0.00000  0.19021
       3     C     3.08883  3.08883  0.00000 -0.17767
       4     O     4.16616  4.16616  0.00000 -0.33232
       5     C     3.11608  3.11608  0.00000 -0.23216
       6     H     0.44288  0.44288  0.00000  0.11423
       7     H     0.44051  0.44051  0.00000  0.11898
       8     C     3.09123  3.09123  0.00000 -0.18246
       9     H     0.44304  0.44304  0.00000  0.11392
      10     H     0.44931  0.44931  0.00000  0.10137
      11     C     3.09314  3.09314  0.00000 -0.18629
      12     H     0.44963  0.44963  0.00000  0.10074
      13     H     0.44739  0.44739  0.00000  0.10523
      14     C     3.09530  3.09530  0.00000 -0.19059
      15     H     0.45350  0.45350  0.00000  0.09299
      16     H     0.45246  0.45246  0.00000  0.09507
      17     C     3.09071  3.09071  0.00000 -0.18143
      18     H     0.45323  0.45323  0.00000  0.09354
      19     H     0.44772  0.44772  0.00000  0.10456
      20     C     3.15306  3.15306  0.00000 -0.30613
      21     H     0.44775  0.44775  0.00000  0.10450
      22     H     0.45436  0.45436  0.00000  0.09127
      23     H     0.45469  0.45469  0.00000  0.09063
      24     H     0.45413  0.45413  0.00000  0.09174
      25     H     0.44573  0.44573  0.00000  0.10854

   Total alpha = 36.00000, Total beta = 36.00000, Total charge = -0.00000

*** Psi4 exiting successfully. Buy a developer a beer!
