  ==> Input File <==

--------------------------------------------------------------------------
set {
	reference rhf
	basis 6-31G*
}

set_num_threads( 1 )
memory 2 gb

molecule MOL {
0 1

H	 2.340338	 -0.998228	 -0.853866
N	 2.434251	 -0.367735	 -0.081097
C	 1.267428	 0.496480	 0.024474
H	 3.259609	 0.175691	 -0.249583
C	 -0.016086	 -0.325158	 -0.029487
H	 1.288818	 1.183521	 -0.816092
H	 1.267576	 1.109062	 0.929528
C	 -1.282277	 0.529072	 0.046735
H	 -0.012495	 -0.908639	 -0.945788
H	 -0.015903	 -1.041248	 0.791956
C	 -2.563920	 -0.301775	 -0.006060
H	 -1.284084	 1.244622	 -0.773004
H	 -1.271387	 1.115393	 0.963286
H	 -2.621848	 -0.873522	 -0.927727
H	 -3.445135	 0.329952	 0.047812
H	 -2.609542	 -1.004582	 0.821105

	symmetry c1
}
set optking {
	frozen_dihedral = ("
		6 3 5 9,
		12 8 5 9
	")
}

ee = energy('scf')
oeprop('DIPOLE', 'QUADRUPOLE', 'MULLIKEN_CHARGES')
f=open( 'psi4out.xyz', 'w' )
f.write( "16  " )
f.write( str(ee) + "\n" )
f.write( MOL.save_string_xyz() )
f.close()
--------------------------------------------------------------------------

    Molecular point group: c1

    Geometry (in Angstrom), charge = 0, multiplicity = 1:

       Center              X                  Y                   Z               Mass
    ------------   -----------------  -----------------  -----------------  -----------------
           H          2.342795347180    -0.997798766159    -0.830224212417     1.007825032070
           N          2.436708347180    -0.367305766159    -0.057455212417    14.003074004780
           C          1.269885347180     0.496909233841     0.048115787583    12.000000000000
           H          3.262066347180     0.176120233841    -0.225941212417     1.007825032070
           C         -0.013628652820    -0.324728766159    -0.005845212417    12.000000000000
           H          1.291275347180     1.183950233841    -0.792450212417     1.007825032070
           H          1.270033347180     1.109491233841     0.953169787583     1.007825032070
           C         -1.279819652820     0.529501233841     0.070376787583    12.000000000000
           H         -0.010037652820    -0.908209766159    -0.922146212417     1.007825032070
           H         -0.013445652820    -1.040818766159     0.815597787583     1.007825032070
           C         -2.561462652820    -0.301345766159     0.017581787583    12.000000000000
           H         -1.281626652820     1.245051233841    -0.749362212417     1.007825032070
           H         -1.268929652820     1.115822233841     0.986927787583     1.007825032070
           H         -2.619390652820    -0.873092766159    -0.904085212417     1.007825032070
           H         -3.442677652820     0.330381233841     0.071453787583     1.007825032070
           H         -2.607084652820    -1.004152766159     0.844746787583     1.007825032070

  Charge       = 0
  Multiplicity = 1
  Basis Set: 6-31G*
  Basis Set:

    Orbital Energies (a.u.)
    -----------------------

    Doubly Occupied:

       1A    -15.530415     2A    -11.240210     3A    -11.216926
       4A    -11.212982     5A    -11.209291     6A     -1.176644
       7A     -1.060972     8A     -0.959429     9A     -0.844508
      10A     -0.795002    11A     -0.658060    12A     -0.641866
      13A     -0.601368    14A     -0.579137    15A     -0.570445
      16A     -0.524219    17A     -0.507130    18A     -0.472512
      19A     -0.467220    20A     -0.460425    21A     -0.376602

  @DF-RHF Final Energy:  -212.31426403523380

   => Energetics <=

    Nuclear Repulsion Energy =            186.3873726948663716
    One-Electron Energy =                -655.1925694568632252
    Two-Electron Energy =                 256.4909327267629351
    DFT Exchange-Correlation Energy =       0.0000000000000000
    Empirical Dispersion Energy =           0.0000000000000000
    PCM Polarization Energy =               0.0000000000000000
    EFP Energy =                            0.0000000000000000
    Total Energy =                       -212.3142640352339185

  Mulliken Charges: (a.u.)
   Center  Symbol    Alpha    Beta     Spin     Total
       1     H     0.33459  0.33459  0.00000  0.33083
       2     N     3.92335  3.92335  0.00000 -0.84670
       3     C     3.05556  3.05556  0.00000 -0.11111
       4     H     0.33354  0.33354  0.00000  0.33293
       5     C     3.15551  3.15551  0.00000 -0.31103
       6     H     0.43514  0.43514  0.00000  0.12973
       7     H     0.42023  0.42023  0.00000  0.15954
       8     C     3.15511  3.15511  0.00000 -0.31022
       9     H     0.42752  0.42752  0.00000  0.14496
      10     H     0.41416  0.41416  0.00000  0.17167
      11     C     3.23897  3.23897  0.00000 -0.47795
      12     H     0.42315  0.42315  0.00000  0.15371
      13     H     0.42171  0.42171  0.00000  0.15659
      14     H     0.42180  0.42180  0.00000  0.15640
      15     H     0.41917  0.41917  0.00000  0.16166
      16     H     0.42051  0.42051  0.00000  0.15898

   Total alpha = 21.00000, Total beta = 21.00000, Total charge =  0.00000
