                              Psi4 1.0.54 Driver

  ==> Input File <==

--------------------------------------------------------------------------
set {
	reference rhf
	basis cc-pvtz
}

set_num_threads( 4 )
memory 2 gb

molecule MOL {
0 1

H	 3.270957	 0.148573	 0.104537
N	 2.433987	 -0.362316	 -0.080024
C	 1.263552	 0.494993	 0.021953
H	 2.390066	 -1.105962	 0.585105
C	 -0.016533	 -0.325589	 -0.026925
H	 1.280915	 1.180773	 -0.818522
H	 1.263064	 1.106893	 0.925038
C	 -1.280353	 0.525521	 0.047747
H	 -0.016686	 -0.912532	 -0.939714
H	 -0.014099	 -1.037598	 0.796369
C	 -2.560681	 -0.301323	 -0.007747
H	 -1.279957	 1.241025	 -0.770189
H	 -1.270445	 1.110526	 0.963468
H	 -2.617064	 -0.872870	 -0.928010
H	 -3.439525	 0.331102	 0.043462
H	 -2.609427	 -1.002736	 0.818585

	symmetry c1
}
set optking {
	frozen_dihedral = ("
		1 2 3 6
	")
}

ee,wfn = optimize('scf', return_wfn=True)
oeprop( wfn, 'DIPOLE', 'QUADRUPOLE', 'MULLIKEN_CHARGES')
f=open( 'psi4out.xyz', 'w' )
f.write( "16  " )
f.write( str(ee) + "\n" )
f.write( MOL.save_string_xyz() )
f.close()
--------------------------------------------------------------------------

    Molecular point group: c1
  Charge       = 0
  Multiplicity = 1
  Basis Set: CC-PVTZ
  Basis Set:
  @DF-RHF Final Energy:  -212.39993291041853
    Total Energy =                       -212.3999329104185563
    Molecular point group: c1
  Basis Set: CC-PVTZ
  Basis Set:
  Basis Set: CC-PVTZ
  Basis Set:
  @DF-RHF Final Energy:  -212.39997816045428
    Total Energy =                       -212.3999781604543955
  Basis Set: CC-PVTZ
  Basis Set:
  Basis Set: CC-PVTZ
  Basis Set:
  @DF-RHF Final Energy:  -212.39998182043425
    Total Energy =                       -212.3999818204340500
  Basis Set: CC-PVTZ
  Basis Set:
  Charge       = 0
  Multiplicity = 1
  Basis Set: CC-PVTZ
  Basis Set:

    Orbital Energies (a.u.)
    -----------------------

    Doubly Occupied:

       1A    -15.526681     2A    -11.237920     3A    -11.213886
       4A    -11.209806     5A    -11.206602     6A     -1.178614
       7A     -1.061682     8A     -0.960239     9A     -0.844723
      10A     -0.793996    11A     -0.659968    12A     -0.643905
      13A     -0.604829    14A     -0.576168    15A     -0.569261
      16A     -0.523580    17A     -0.504076    18A     -0.470845
      19A     -0.466198    20A     -0.461775    21A     -0.385468

  @DF-RHF Final Energy:  -212.39998219993424

   => Energetics <=

    Nuclear Repulsion Energy =            186.6555651299676697
    One-Electron Energy =                -655.9106511070677925
    Two-Electron Energy =                 256.8551037771661072
    DFT Exchange-Correlation Energy =       0.0000000000000000
    Empirical Dispersion Energy =           0.0000000000000000
    PCM Polarization Energy =               0.0000000000000000
    EFP Energy =                            0.0000000000000000
    Total Energy =                       -212.3999821999340156
    Molecular point group: c1
  Basis Set: CC-PVTZ
  Basis Set:

  -Total Gradient:
     Atom            X                  Y                   Z
    ------   -----------------  -----------------  -----------------
       1       -0.000096364427    -0.000392528278     0.001678077603
       2       -0.000102476636     0.000311252598    -0.002309926927
       3        0.001062730455     0.001134387846     0.001447230090
       4       -0.000004875417    -0.000007695724     0.000016399022
       5       -0.000005392247    -0.000010449543     0.000010644555
       6       -0.000820272096    -0.001016914913    -0.000834900406
       7       -0.000003282542    -0.000007528365    -0.000015226673
       8       -0.000010443170     0.000000721074     0.000006396554
       9       -0.000001771201    -0.000003559463    -0.000000571555
      10       -0.000011180411    -0.000013386004     0.000005957651
      11        0.000000609009     0.000004654907    -0.000005297524
      12       -0.000001654195    -0.000000774060     0.000003860163
      13       -0.000006389847     0.000001629448     0.000002938078
      14       -0.000001201620    -0.000003249038    -0.000001254668
      15        0.000000654924    -0.000000660989    -0.000003766842
      16        0.000001309424     0.000004100503    -0.000000559121

  **** Optimization is complete! (in 4 steps) ****
    Final optimized geometry and variables:
    Molecular point group: c1

    Geometry (in Angstrom), charge = 0, multiplicity = 1:

    H            3.273559589929     0.148316234692     0.083447771467
    N            2.433874404694    -0.361886372698    -0.093434885855
    C            1.265717580293     0.497312580545     0.031756717953
    H            2.400596151407    -1.095313190028     0.584441581018
    C           -0.014767526052    -0.323132703204    -0.021933139051
    H            1.269355448231     1.190915485324    -0.802605438400
    H            1.271713446605     1.092780515012     0.944991408226
    C           -1.278612090857     0.528690673609     0.043225964080
    H           -0.011590737036    -0.911119921589    -0.934416096976
    H           -0.018613270545    -1.033242663443     0.803174444324
    C           -2.558717468603    -0.298558751493    -0.009858972444
    H           -1.275655412265     1.238204364103    -0.779619676168
    H           -1.270753547580     1.119636110107     0.955076291673
    H           -2.613070944217    -0.875853788516    -0.926662246716
    H           -3.437503575955     0.334383003032     0.035252757886
    H           -2.609562956880    -0.994601460025     0.820873510878

  Mulliken Charges: (a.u.)
   Center  Symbol    Alpha    Beta     Spin     Total
       1     H     0.43165  0.43165  0.00000  0.13671
       2     N     3.68724  3.68724  0.00000 -0.37447
       3     C     3.02244  3.02244  0.00000 -0.04488
       4     H     0.43191  0.43191  0.00000  0.13619
       5     C     3.08318  3.08318  0.00000 -0.16636
       6     H     0.45829  0.45829  0.00000  0.08341
       7     H     0.46924  0.46924  0.00000  0.06151
       8     C     3.08831  3.08831  0.00000 -0.17662
       9     H     0.44882  0.44882  0.00000  0.10236
      10     H     0.46128  0.46128  0.00000  0.07744
      11     C     3.14915  3.14915  0.00000 -0.29829
      12     H     0.45402  0.45402  0.00000  0.09196
      13     H     0.45616  0.45616  0.00000  0.08768
      14     H     0.45414  0.45414  0.00000  0.09171
      15     H     0.44866  0.44866  0.00000  0.10268
      16     H     0.45552  0.45552  0.00000  0.08896

   Total alpha = 21.00000, Total beta = 21.00000, Total charge =  0.00000

*** Psi4 exiting successfully. Buy a developer a beer!
