  ==> Input File <==

--------------------------------------------------------------------------
set {
	reference rhf
	basis 6-31G*
}

set_num_threads( 4 )
memory 2 gb

molecule MOL {
0 1

H	 3.191260	 0.111045	 -0.529673
N	 2.434251	 -0.367735	 -0.081097
C	 1.267428	 0.496480	 0.024474
H	 2.758527	 -0.632690	 0.829704
C	 -0.016086	 -0.325158	 -0.029487
H	 1.288818	 1.183521	 -0.816092
H	 1.267576	 1.109062	 0.929528
C	 -1.282277	 0.529072	 0.046735
H	 -0.012495	 -0.908639	 -0.945788
H	 -0.015903	 -1.041248	 0.791956
C	 -2.563920	 -0.301775	 -0.006060
H	 -1.284084	 1.244622	 -0.773004
H	 -1.271387	 1.115393	 0.963286
H	 -2.621848	 -0.873522	 -0.927727
H	 -3.445135	 0.329952	 0.047812
H	 -2.609542	 -1.004582	 0.821105

	symmetry c1
}
set optking {
	frozen_dihedral = ("
		1 2 3 6
	")
}

ee = optimize('scf')
oeprop('DIPOLE', 'QUADRUPOLE', 'MULLIKEN_CHARGES')
f=open( 'psi4out.xyz', 'w' )
f.write( "16  " )
f.write( str(ee) + "\n" )
f.write( MOL.save_string_xyz() )
f.close()
--------------------------------------------------------------------------

    Molecular point group: c1
  Charge       = 0
  Multiplicity = 1
  Basis Set: 6-31G*
  Basis Set:
  @DF-RHF Final Energy:  -212.31536883223427
    Total Energy =                       -212.3153688322341850
    Molecular point group: c1
  Basis Set: 6-31G*
  Basis Set:
  Basis Set: 6-31G*
  Basis Set:
  @DF-RHF Final Energy:  -212.31557368155109
    Total Energy =                       -212.3155736815510863
  Basis Set: 6-31G*
  Basis Set:
  Basis Set: 6-31G*
  Basis Set:
  @DF-RHF Final Energy:  -212.31563079294250
    Total Energy =                       -212.3156307929425566
  Basis Set: 6-31G*
  Basis Set:
  Basis Set: 6-31G*
  Basis Set:
  @DF-RHF Final Energy:  -212.31563255088176
    Total Energy =                       -212.3156325508817872
  Basis Set: 6-31G*
  Basis Set:
  Charge       = 0
  Multiplicity = 1
  Basis Set: 6-31G*
  Basis Set:

    Orbital Energies (a.u.)
    -----------------------

    Doubly Occupied:

       1A    -15.530998     2A    -11.240206     3A    -11.212883
       4A    -11.206337     5A    -11.205260     6A     -1.174159
       7A     -1.057482     8A     -0.957585     9A     -0.842692
      10A     -0.788570    11A     -0.672300    12A     -0.627738
      13A     -0.608160    14A     -0.576266    15A     -0.556299
      16A     -0.529421    17A     -0.492819    18A     -0.471544
      19A     -0.465168    20A     -0.459712    21A     -0.376584

  @DF-RHF Final Energy:  -212.31563287921259

   => Energetics <=

    Nuclear Repulsion Energy =            186.0011288983923521
    One-Electron Energy =                -654.5291553640020084
    Two-Electron Energy =                 256.2123935863969564
    DFT Exchange-Correlation Energy =       0.0000000000000000
    Empirical Dispersion Energy =           0.0000000000000000
    PCM Polarization Energy =               0.0000000000000000
    EFP Energy =                            0.0000000000000000
    Total Energy =                       -212.3156328792126715
    Molecular point group: c1
  Basis Set: 6-31G*
  Basis Set:

  -Total Gradient:
     Atom            X                  Y                   Z
    ------   -----------------  -----------------  -----------------
       1       -0.000872000954    -0.000927210502    -0.002498049525
       2        0.001368464868     0.001510455909     0.003462578062
       3       -0.001791032800    -0.002278508929    -0.002407364667
       4       -0.000004858572     0.000003149367    -0.000004702066
       5        0.000075690209     0.000044948850     0.000005524922
       6        0.001282597747     0.001663044835     0.001374502648
       7       -0.000034859874    -0.000007503826     0.000030851327
       8       -0.000006095378    -0.000013442030     0.000013240099
       9        0.000008731572     0.000012902990     0.000010098965
      10       -0.000006889962    -0.000002523431     0.000016147390
      11       -0.000021163725     0.000014739469    -0.000009184546
      12        0.000009338785    -0.000008569746     0.000010508705
      13       -0.000003934458    -0.000009816541    -0.000000155438
      14        0.000001902088    -0.000001782879     0.000000540870
      15       -0.000008004922    -0.000006252550    -0.000006017367
      16        0.000002115378     0.000006369013     0.000001480620

  **** Optimization is complete! (in 5 steps) ****
    Final optimized geometry and variables:
    Molecular point group: c1

    Geometry (in Angstrom), charge = 0, multiplicity = 1:

    H            3.210932447945     0.110340298404    -0.493918179800
    N            2.440739147591    -0.361370222599    -0.065529044752
    C            1.262712186849     0.493005676244     0.012476636372
    H            2.732393522426    -0.675674037387     0.838115453358
    C           -0.020266454935    -0.329967790647    -0.030882049196
    H            1.289482950704     1.183818937849    -0.824905694131
    H            1.260994310957     1.116687473643     0.908983611189
    C           -1.287301323489     0.522105241181     0.053422843361
    H           -0.021550252177    -0.915933936001    -0.945553995910
    H           -0.007547107424    -1.045206797040     0.790130713536
    C           -2.568692618450    -0.309495974002     0.003407146357
    H           -1.294267540459     1.241308329404    -0.763479928008
    H           -1.273627191786     1.105648802856     0.971970579752
    H           -2.629791215624    -0.878690317081    -0.919688725230
    H           -3.450613319374     0.320948078546     0.062849092952
    H           -2.609820442118    -1.015008677480     0.828465718510

  Mulliken Charges: (a.u.)
   Center  Symbol    Alpha    Beta     Spin     Total
       1     H     0.33072  0.33072  0.00000  0.33857
       2     N     3.92656  3.92656  0.00000 -0.85312
       3     C     3.06393  3.06393  0.00000 -0.12785
       4     H     0.33264  0.33264  0.00000  0.33471
       5     C     3.14227  3.14227  0.00000 -0.28454
       6     H     0.42274  0.42274  0.00000  0.15453
       7     H     0.43233  0.43233  0.00000  0.13534
       8     C     3.15695  3.15695  0.00000 -0.31389
       9     H     0.41617  0.41617  0.00000  0.16766
      10     H     0.42611  0.42611  0.00000  0.14779
      11     C     3.23821  3.23821  0.00000 -0.47642
      12     H     0.42394  0.42394  0.00000  0.15212
      13     H     0.42448  0.42448  0.00000  0.15103
      14     H     0.42089  0.42089  0.00000  0.15823
      15     H     0.42023  0.42023  0.00000  0.15955
      16     H     0.42185  0.42185  0.00000  0.15631

   Total alpha = 21.00000, Total beta = 21.00000, Total charge =  0.00000
