                              Psi4 1.0.54 Driver

  ==> Input File <==

--------------------------------------------------------------------------
set {
	reference rhf
	basis cc-pvtz
}

set_num_threads( 4 )
memory 2 gb

molecule MOL {
0 1

O	 -2.071633	 -1.227563	 -0.223463
C	 -1.652164	 -0.152425	 0.058082
C	 -0.327811	 0.006324	 0.778296
C	 -2.402515	 1.108629	 -0.298924
C	 0.843231	 -0.001575	 -0.211665
H	 -0.319484	 0.928173	 1.350354
H	 -0.227804	 -0.823091	 1.466705
C	 1.666556	 -1.284241	 -0.140007
H	 1.491446	 0.850102	 -0.021514
H	 0.450672	 0.125302	 -1.214743
C	 2.824831	 -1.301917	 -1.131595
H	 2.052003	 -1.409286	 0.868119
H	 1.017796	 -2.134923	 -0.327062
H	 3.510989	 -0.481944	 -0.947566
H	 2.467500	 -1.210466	 -2.151556
H	 3.386982	 -2.225591	 -1.059390
H	 -3.240910	 0.874416	 -0.936711
H	 -1.747554	 1.818823	 -0.790984
H	 -2.760419	 1.579708	 0.610998

	symmetry c1
}
set optking {
	frozen_dihedral = ("
		9 5 3 2
	")
}

ee,wfn = optimize('scf', return_wfn=True)
oeprop( wfn, 'DIPOLE', 'QUADRUPOLE', 'MULLIKEN_CHARGES')
f=open( 'psi4out.xyz', 'w' )
f.write( "19  " )
f.write( str(ee) + "\n" )
f.write( MOL.save_string_xyz() )
f.close()
--------------------------------------------------------------------------

    Molecular point group: c1
  Charge       = 0
  Multiplicity = 1
  Basis Set: CC-PVTZ
  Basis Set:
  @DF-RHF Final Energy:  -309.17233149307486
    Total Energy =                       -309.1723314930747506
    Molecular point group: c1
  Basis Set: CC-PVTZ
  Basis Set:
  Basis Set: CC-PVTZ
  Basis Set:
  @DF-RHF Final Energy:  -309.17242106578772
    Total Energy =                       -309.1724210657878302
  Basis Set: CC-PVTZ
  Basis Set:
  Basis Set: CC-PVTZ
  Basis Set:
  @DF-RHF Final Energy:  -309.17276210457186
    Total Energy =                       -309.1727621045722572
  Basis Set: CC-PVTZ
  Basis Set:
  Basis Set: CC-PVTZ
  Basis Set:
  @DF-RHF Final Energy:  -309.17284026296267
    Total Energy =                       -309.1728402629629500
  Basis Set: CC-PVTZ
  Basis Set:
  Basis Set: CC-PVTZ
  Basis Set:
  @DF-RHF Final Energy:  -309.17285841022135
    Total Energy =                       -309.1728584102215223
  Basis Set: CC-PVTZ
  Basis Set:
  Basis Set: CC-PVTZ
  Basis Set:
  @DF-RHF Final Energy:  -309.17286300698288
    Total Energy =                       -309.1728630069827659
  Basis Set: CC-PVTZ
  Basis Set:
  Basis Set: CC-PVTZ
  Basis Set:
  @DF-RHF Final Energy:  -309.17286657057559
    Total Energy =                       -309.1728665705757066
  Basis Set: CC-PVTZ
  Basis Set:
  Charge       = 0
  Multiplicity = 1
  Basis Set: CC-PVTZ
  Basis Set:

    Orbital Energies (a.u.)
    -----------------------

    Doubly Occupied:

       1A    -20.536869     2A    -11.319479     3A    -11.230577
       4A    -11.227810     5A    -11.226896     6A    -11.219586
       7A    -11.211034     8A     -1.396774     9A     -1.090868
      10A     -1.029875    11A     -0.982083    12A     -0.891632
      13A     -0.807989    14A     -0.735976    15A     -0.662870
      16A     -0.641674    17A     -0.625994    18A     -0.611455
      19A     -0.585025    20A     -0.575297    21A     -0.553724
      22A     -0.529366    23A     -0.526018    24A     -0.500754
      25A     -0.477607    26A     -0.475970    27A     -0.465409
      28A     -0.399278

  @DF-RHF Final Energy:  -309.17286700835905

   => Energetics <=

    Nuclear Repulsion Energy =            304.6723479593864568
    One-Electron Energy =               -1022.6146521704247334
    Two-Electron Energy =                 408.7694372026791143
    DFT Exchange-Correlation Energy =       0.0000000000000000
    Empirical Dispersion Energy =           0.0000000000000000
    PCM Polarization Energy =               0.0000000000000000
    EFP Energy =                            0.0000000000000000
    Total Energy =                       -309.1728670083591624
    Molecular point group: c1
  Basis Set: CC-PVTZ
  Basis Set:

  -Total Gradient:
     Atom            X                  Y                   Z
    ------   -----------------  -----------------  -----------------
       1        0.000026997599     0.000110633603     0.000024590600
       2       -0.000177821751     0.001526284277    -0.000097035016
       3       -0.000089361714    -0.001946041740    -0.000307392882
       4       -0.000033801627     0.000029817071     0.000067244048
       5        0.001458510973    -0.001024855770     0.001763262045
       6       -0.000023185026     0.000013393520     0.000006045786
       7       -0.000012791316    -0.000006064790    -0.000006494272
       8        0.000020748403     0.000062948742     0.000014922521
       9       -0.001209335465     0.001297393304    -0.001416954382
      10        0.000013565955    -0.000018490850     0.000024760460
      11        0.000008488792    -0.000025677090    -0.000022589053
      12       -0.000002779067     0.000010199467    -0.000003230096
      13       -0.000008911109    -0.000006166948     0.000006230939
      14       -0.000006742860    -0.000005940409     0.000002689454
      15        0.000006224273     0.000005497826     0.000000394169
      16        0.000009028146    -0.000004333545    -0.000011777347
      17        0.000004020123    -0.000004840918    -0.000009767503
      18        0.000003208416    -0.000004622437    -0.000014908370
      19        0.000013937256    -0.000009133313    -0.000019991100

  **** Optimization is complete! (in 8 steps) ****
    Final optimized geometry and variables:
    Molecular point group: c1

    Geometry (in Angstrom), charge = 0, multiplicity = 1:

    O           -1.993967080724    -0.834089232770     0.091023838994
    C           -1.500458284259     0.230827542530     0.276232632562
    C           -0.177288673758     0.377209818446     0.997430573195
    C           -2.158741305561     1.501084168493    -0.210526243872
    C            1.005372488975     0.427025433664    -0.001574683899
    H           -0.197357490752     1.281515078046     1.594485951329
    H           -0.069694842833    -0.463769986197     1.667998672301
    C            1.832404581810    -0.855315049512    -0.014819860289
    H            1.639212165530     1.277085037058     0.225046689873
    H            0.631387405259     0.607521261861    -1.005620167157
    C            2.965173492532    -0.821268976205    -1.034239275301
    H            2.241833946155    -1.023858466656     0.977060065221
    H            1.177254916919    -1.695019359150    -0.223232512319
    H            3.649651452909    -0.003379872158    -0.834029706809
    H            2.582329140343    -0.692618017086    -2.041106595769
    H            3.536018567838    -1.742118393963    -1.013707914384
    H           -2.976072287553     1.264671321818    -0.874384655800
    H           -1.444411876458     2.143706771398    -0.711765415933
    H           -2.538776255938     2.049197394058     0.645768435704

  Mulliken Charges: (a.u.)
   Center  Symbol    Alpha    Beta     Spin     Total
       1     O     4.17781  4.17781  0.00000 -0.35561
       2     C     2.85654  2.85654  0.00000  0.28692
       3     C     3.10974  3.10974  0.00000 -0.21949
       4     C     3.15551  3.15551  0.00000 -0.31101
       5     C     3.09742  3.09742  0.00000 -0.19485
       6     H     0.44075  0.44075  0.00000  0.11850
       7     H     0.43976  0.43976  0.00000  0.12048
       8     C     3.08221  3.08221  0.00000 -0.16442
       9     H     0.44651  0.44651  0.00000  0.10697
      10     H     0.45478  0.45478  0.00000  0.09045
      11     C     3.15089  3.15089  0.00000 -0.30177
      12     H     0.45325  0.45325  0.00000  0.09351
      13     H     0.44408  0.44408  0.00000  0.11185
      14     H     0.45607  0.45607  0.00000  0.08786
      15     H     0.45402  0.45402  0.00000  0.09196
      16     H     0.44666  0.44666  0.00000  0.10668
      17     H     0.43612  0.43612  0.00000  0.12776
      18     H     0.45016  0.45016  0.00000  0.09969
      19     H     0.44773  0.44773  0.00000  0.10454

   Total alpha = 28.00000, Total beta = 28.00000, Total charge =  0.00000

*** Psi4 exiting successfully. Buy a developer a beer!
