                              Psi4 1.0.54 Driver

  ==> Input File <==

--------------------------------------------------------------------------
set {
	reference rhf
	basis cc-pvtz
}

set_num_threads( 4 )
memory 2 gb

molecule MOL {
0 1

O	 -1.510770	 1.240811	 -0.054933
C	 -1.081510	 0.147522	 0.122720
C	 0.327029	 -0.064006	 0.641890
C	 -1.903028	 -1.084121	 -0.174656
C	 1.349460	 -0.017068	 -0.500215
H	 0.399029	 -1.014606	 1.159950
H	 0.538021	 0.726928	 1.350471
C	 0.779762	 -0.541405	 -1.813326
H	 1.696284	 1.002722	 -0.640135
H	 2.214837	 -0.603338	 -0.214319
H	 1.524687	 -0.507913	 -2.599452
H	 -0.070740	 0.049137	 -2.136836
H	 0.450138	 -1.569468	 -1.711809
H	 -1.341891	 -1.779207	 -0.789259
H	 -2.820449	 -0.808163	 -0.671328
H	 -2.133314	 -1.593056	 0.755831

	symmetry c1
}
set optking {
	frozen_dihedral = ("
		9 5 3 2
	")
}

ee,wfn = optimize('scf', return_wfn=True)
oeprop( wfn, 'DIPOLE', 'QUADRUPOLE', 'MULLIKEN_CHARGES')
f=open( 'psi4out.xyz', 'w' )
f.write( "16  " )
f.write( str(ee) + "\n" )
f.write( MOL.save_string_xyz() )
f.close()
--------------------------------------------------------------------------

    Molecular point group: c1
  Charge       = 0
  Multiplicity = 1
  Basis Set: CC-PVTZ
  Basis Set:
  @DF-RHF Final Energy:  -270.12009883095146
    Total Energy =                       -270.1200988309515196
    Molecular point group: c1
  Basis Set: CC-PVTZ
  Basis Set:
  Basis Set: CC-PVTZ
  Basis Set:
  @DF-RHF Final Energy:  -270.12193651088535
    Total Energy =                       -270.1219365108854049
  Basis Set: CC-PVTZ
  Basis Set:
  Basis Set: CC-PVTZ
  Basis Set:
  @DF-RHF Final Energy:  -270.12379559603880
    Total Energy =                       -270.1237955960387467
  Basis Set: CC-PVTZ
  Basis Set:
  Basis Set: CC-PVTZ
  Basis Set:
  @DF-RHF Final Energy:  -270.12399875182791
    Total Energy =                       -270.1239987518282533
  Basis Set: CC-PVTZ
  Basis Set:
  @DF-RHF Final Energy:  -270.12370796307783
    Total Energy =                       -270.1237079630777771
  @DF-RHF Final Energy:  -270.12417757774142
    Total Energy =                       -270.1241775777416478
  @DF-RHF Final Energy:  -270.12424502383863
    Total Energy =                       -270.1242450238387960
  @DF-RHF Final Energy:  -270.12429334197020
    Total Energy =                       -270.1242933419702013
  @DF-RHF Final Energy:  -270.12432586220245
    Total Energy =                       -270.1243258622026815
  @DF-RHF Final Energy:  -270.12435306867098
    Total Energy =                       -270.1243530686708141
  @DF-RHF Final Energy:  -270.12440652312330
    Total Energy =                       -270.1244065231232980
  @DF-RHF Final Energy:  -270.12442905573283
    Total Energy =                       -270.1244290557326622
  @DF-RHF Final Energy:  -270.12444374403441
    Total Energy =                       -270.1244437440344655
  @DF-RHF Final Energy:  -270.12440095216891
    Total Energy =                       -270.1244009521690828
  @DF-RHF Final Energy:  -270.12239839929782
    Total Energy =                       -270.1223983992977651
  @DF-RHF Final Energy:  -270.11661191411719
    Total Energy =                       -270.1166119141174136
  @DF-RHF Final Energy:  -270.12107641805494
    Total Energy =                       -270.1210764180546562
  @DF-RHF Final Energy:  -270.12418236391488
    Total Energy =                       -270.1241823639147697
  Basis Set: CC-PVTZ
  Basis Set:
  @DF-RHF Final Energy:  -270.12441904454408
    Total Energy =                       -270.1244190445439699
  Basis Set: CC-PVTZ
  Basis Set:
  Basis Set: CC-PVTZ
  Basis Set:
  @DF-RHF Final Energy:  -270.12444004069482
    Total Energy =                       -270.1244400406948216
  Basis Set: CC-PVTZ
  Basis Set:
  Basis Set: CC-PVTZ
  Basis Set:
  @DF-RHF Final Energy:  -270.12444612788516
    Total Energy =                       -270.1244461278851077
  Basis Set: CC-PVTZ
  Basis Set:
  Charge       = 0
  Multiplicity = 1
  Basis Set: CC-PVTZ
  Basis Set:

    Orbital Energies (a.u.)
    -----------------------

    Doubly Occupied:

       1A    -20.536557     2A    -11.320333     3A    -11.229441
       4A    -11.227709     5A    -11.227304     6A    -11.212778
       7A     -1.397186     8A     -1.077819     9A     -1.013596
      10A     -0.950490    11A     -0.832814    12A     -0.726258
      13A     -0.659314    14A     -0.641826    15A     -0.622568
      16A     -0.608662    17A     -0.580420    18A     -0.555696
      19A     -0.546961    20A     -0.509078    21A     -0.498609
      22A     -0.476886    23A     -0.475509    24A     -0.399818

  @DF-RHF Final Energy:  -270.12444686289939

   => Energetics <=

    Nuclear Repulsion Energy =            242.9581021055120118
    One-Electron Energy =                -847.5098351737281064
    Two-Electron Energy =                 334.4272862053170456
    DFT Exchange-Correlation Energy =       0.0000000000000000
    Empirical Dispersion Energy =           0.0000000000000000
    PCM Polarization Energy =               0.0000000000000000
    EFP Energy =                            0.0000000000000000
    Total Energy =                       -270.1244468628990489
    Molecular point group: c1
  Basis Set: CC-PVTZ
  Basis Set:

  -Total Gradient:
     Atom            X                  Y                   Z
    ------   -----------------  -----------------  -----------------
       1       -0.000116000100     0.000258308340     0.000170202973
       2       -0.000886500809    -0.004363459784    -0.001557805161
       3        0.002559792857     0.005472851140     0.003006155793
       4        0.000152174711     0.000052231819    -0.000043537904
       5       -0.006701579689     0.000795492432    -0.004305937306
       6        0.000122086881    -0.000019179228    -0.000051525608
       7       -0.000134514569     0.000061331168     0.000116662972
       8        0.000180588919     0.000065258605    -0.000066403180
       9        0.004992689987    -0.002181913683     0.002810860828
      10       -0.000034122386    -0.000097471661     0.000056352738
      11        0.000010088127     0.000040494978    -0.000031762531
      12       -0.000066967650     0.000003156873    -0.000025617734
      13        0.000021570654    -0.000035646926     0.000011760597
      14        0.000006790565    -0.000098189167    -0.000073602311
      15       -0.000097395597     0.000010394379     0.000005797824
      16       -0.000008701902     0.000036340713    -0.000021601990

  **** Optimization is complete! (in 22 steps) ****
    Final optimized geometry and variables:
    Molecular point group: c1

    Geometry (in Angstrom), charge = 0, multiplicity = 1:

    O           -1.002747029839     1.257400116512     0.366800162298
    C           -0.682002831697     0.133041920283     0.579388766897
    C            0.779508510144    -0.244708562840     0.756914373191
    C           -1.704087765156    -0.970118268662     0.699445905203
    C            1.661197937341     0.034316087259    -0.477440234288
    H            0.843452814928    -1.296406318975     1.012254257577
    H            1.152590125955     0.314719419506     1.606662913675
    C            1.005193219188    -0.200071267931    -1.833585313911
    H            2.067099499049     1.036143042183    -0.413212342808
    H            2.525227089919    -0.618058312606    -0.395467935317
    H            1.726546147013    -0.051988381596    -2.628187721094
    H            0.181085262872     0.479882008097    -2.004062653942
    H            0.631064288711    -1.215883969961    -1.920160325129
    H           -1.501313584938    -1.744664325044    -0.032688838232
    H           -2.697336655824    -0.574537113070     0.551815697526
    H           -1.633056980328    -1.430812220182     1.679332352521

  Mulliken Charges: (a.u.)
   Center  Symbol    Alpha    Beta     Spin     Total
       1     O     4.17952  4.17952  0.00000 -0.35904
       2     C     2.85084  2.85084  0.00000  0.29832
       3     C     3.11276  3.11276  0.00000 -0.22553
       4     C     3.15433  3.15433  0.00000 -0.30865
       5     C     3.07802  3.07802  0.00000 -0.15604
       6     H     0.44785  0.44785  0.00000  0.10430
       7     H     0.43838  0.43838  0.00000  0.12324
       8     C     3.16206  3.16206  0.00000 -0.32412
       9     H     0.44608  0.44608  0.00000  0.10783
      10     H     0.45105  0.45105  0.00000  0.09790
      11     H     0.44527  0.44527  0.00000  0.10946
      12     H     0.44208  0.44208  0.00000  0.11585
      13     H     0.45599  0.45599  0.00000  0.08801
      14     H     0.45038  0.45038  0.00000  0.09925
      15     H     0.43660  0.43660  0.00000  0.12679
      16     H     0.44878  0.44878  0.00000  0.10244

   Total alpha = 24.00000, Total beta = 24.00000, Total charge =  0.00000

*** Psi4 exiting successfully. Buy a developer a beer!
