  ==> Input File <==

--------------------------------------------------------------------------
set {
	reference rhf
	basis 6-31G*
}

set_num_threads( 1 )
memory 2 gb

molecule MOL {
0 1

H	 -3.420663	 1.227371	 -1.044276
O	 -3.452007	 0.283848	 -0.965577
C	 -3.181085	 -0.079926	 0.364119
C	 -1.765924	 0.277073	 0.805136
H	 -3.327791	 -1.152017	 0.410903
H	 -3.905698	 0.375695	 1.036898
C	 -0.708956	 -0.722013	 0.332737
H	 -1.520342	 1.273535	 0.436739
H	 -1.752738	 0.344223	 1.891662
C	 0.709983	 -0.342473	 0.761388
H	 -0.755225	 -0.805297	 -0.748759
H	 -0.952821	 -1.707832	 0.725274
C	 1.761704	 -1.350302	 0.289956
H	 0.943575	 0.646602	 0.374627
H	 0.751374	 -0.263354	 1.847036
C	 3.188469	 -1.060705	 0.770197
H	 1.752389	 -1.397429	 -0.797880
H	 1.475100	 -2.340540	 0.637956
C	 3.801170	 0.222531	 0.206010
H	 3.821909	 -1.899880	 0.493015
H	 3.200353	 -1.018818	 1.857536
H	 3.791258	 0.214385	 -0.880716
H	 4.833410	 0.329559	 0.525167
H	 3.266301	 1.107266	 0.535133

	symmetry c1
}
set optking {
	frozen_dihedral = ("
		20 16 13 17,
		17 13 10 7,
		13 10 7 11,
		11 7 4 3,
		1 2 3 5
	")
}

ee = energy('scf')
oeprop('DIPOLE', 'QUADRUPOLE', 'MULLIKEN_CHARGES')
f=open( 'psi4out.xyz', 'w' )
f.write( "24  " )
f.write( str(ee) + "\n" )
f.write( MOL.save_string_xyz() )
f.close()
--------------------------------------------------------------------------

    Molecular point group: c1

    Geometry (in Angstrom), charge = 0, multiplicity = 1:

       Center              X                  Y                   Z               Mass
    ------------   -----------------  -----------------  -----------------  -----------------
           H         -3.409591137842     1.548037511569    -1.339381068456     1.007825032070
           O         -3.440935137842     0.604514511569    -1.260682068456    15.994914619560
           C         -3.170013137842     0.240740511569     0.069013931544    12.000000000000
           C         -1.754852137842     0.597739511569     0.510030931544    12.000000000000
           H         -3.316719137842    -0.831350488431     0.115797931544     1.007825032070
           H         -3.894626137842     0.696361511569     0.741792931544     1.007825032070
           C         -0.697884137842    -0.401346488431     0.037631931544    12.000000000000
           H         -1.509270137842     1.594201511569     0.141633931544     1.007825032070
           H         -1.741666137842     0.664889511569     1.596556931544     1.007825032070
           C          0.721054862158    -0.021806488431     0.466282931544    12.000000000000
           H         -0.744153137842    -0.484630488431    -1.043864068456     1.007825032070
           H         -0.941749137842    -1.387165488431     0.430168931544     1.007825032070
           C          1.772775862158    -1.029635488431    -0.005149068456    12.000000000000
           H          0.954646862158     0.967268511569     0.079521931544     1.007825032070
           H          0.762445862158     0.057312511569     1.551930931544     1.007825032070
           C          3.199540862158    -0.740038488431     0.475091931544    12.000000000000
           H          1.763460862158    -1.076762488431    -1.092985068456     1.007825032070
           H          1.486171862158    -2.019873488431     0.342850931544     1.007825032070
           C          3.812241862158     0.543197511569    -0.089095068456    12.000000000000
           H          3.832980862158    -1.579213488431     0.197909931544     1.007825032070
           H          3.211424862158    -0.698151488431     1.562430931544     1.007825032070
           H          3.802329862158     0.535051511569    -1.175821068456     1.007825032070
           H          4.844481862158     0.650225511569     0.230061931544     1.007825032070
           H          3.277372862158     1.427932511569     0.240027931544     1.007825032070

  Charge       = 0
  Multiplicity = 1
  Basis Set: 6-31G*
  Basis Set:

    Orbital Energies (a.u.)
    -----------------------

    Doubly Occupied:

       1A    -20.552238     2A    -11.267014     3A    -11.217263
       4A    -11.214465     5A    -11.213382     6A    -11.212827
       7A    -11.212143     8A    -11.207574     9A     -1.358953
      10A     -1.089496    11A     -1.049068    12A     -0.985693
      13A     -0.914517    14A     -0.850234    15A     -0.803428
      16A     -0.776791    17A     -0.680710    18A     -0.651013
      19A     -0.624510    20A     -0.620479    21A     -0.596544
      22A     -0.583462    23A     -0.561172    24A     -0.537634
      25A     -0.517202    26A     -0.512468    27A     -0.495656
      28A     -0.476710    29A     -0.466485    30A     -0.459686
      31A     -0.456752    32A     -0.451906    33A     -0.417191

  @DF-RHF Final Energy:  -349.24587487447110

   => Energetics <=

    Nuclear Repulsion Energy =            383.2237616301823095
    One-Electron Energy =               -1232.8697260194994669
    Two-Electron Energy =                 500.4000895148464565
    DFT Exchange-Correlation Energy =       0.0000000000000000
    Empirical Dispersion Energy =           0.0000000000000000
    PCM Polarization Energy =               0.0000000000000000
    EFP Energy =                            0.0000000000000000
    Total Energy =                       -349.2458748744707577

  Mulliken Charges: (a.u.)
   Center  Symbol    Alpha    Beta     Spin     Total
       1     H     0.28338  0.28338  0.00000  0.43324
       2     O     4.36949  4.36949  0.00000 -0.73897
       3     C     2.99718  2.99718  0.00000  0.00565
       4     C     3.16472  3.16472  0.00000 -0.32944
       5     H     0.41566  0.41566  0.00000  0.16868
       6     H     0.42887  0.42887  0.00000  0.14226
       7     C     3.15481  3.15481  0.00000 -0.30961
       8     H     0.42677  0.42677  0.00000  0.14646
       9     H     0.42318  0.42318  0.00000  0.15364
      10     C     3.15391  3.15391  0.00000 -0.30783
      11     H     0.41267  0.41267  0.00000  0.17467
      12     H     0.42369  0.42369  0.00000  0.15262
      13     C     3.15246  3.15246  0.00000 -0.30493
      14     H     0.42207  0.42207  0.00000  0.15587
      15     H     0.42516  0.42516  0.00000  0.14967
      16     C     3.15234  3.15234  0.00000 -0.30467
      17     H     0.42331  0.42331  0.00000  0.15337
      18     H     0.42236  0.42236  0.00000  0.15527
      19     C     3.24108  3.24108  0.00000 -0.48215
      20     H     0.42101  0.42101  0.00000  0.15798
      21     H     0.42380  0.42380  0.00000  0.15241
      22     H     0.42205  0.42205  0.00000  0.15590
      23     H     0.41949  0.41949  0.00000  0.16102
      24     H     0.42054  0.42054  0.00000  0.15891

   Total alpha = 33.00000, Total beta = 33.00000, Total charge =  0.00000
