                              Psi4 1.0.54 Driver

  ==> Input File <==

--------------------------------------------------------------------------
set {
	reference rhf
	basis cc-pvtz
}

set_num_threads( 4 )
memory 2 gb

molecule MOL {
0 1

H	 -4.024094	 -0.454727	 0.000004
C	 -2.962215	 -0.297920	 0.000004
C	 -2.454736	 0.988978	 0.000025
C	 -2.105837	 -1.382632	 -0.000016
H	 -3.120052	 1.830438	 0.000041
C	 -1.090106	 1.189676	 0.000026
H	 -2.500390	 -2.380229	 -0.000033
C	 -0.739175	 -1.183302	 -0.000016
H	 -0.680214	 2.179144	 0.000042
C	 -0.227341	 0.104540	 0.000006
H	 -0.073209	 -2.021168	 -0.000032
C	 1.238974	 0.374429	 0.000004
O	 1.532152	 1.643921	 -0.210767
O	 2.063106	 -0.460268	 0.171079
C	 2.901648	 1.995688	 -0.228100
H	 3.364538	 1.766095	 0.719737
H	 2.931853	 3.057381	 -0.411093
H	 3.419742	 1.465826	 -1.013098

	symmetry c1
}
set optking {
	frozen_dihedral = ("
		13 12 10 6
	")
}

ee,wfn = optimize('scf', return_wfn=True)
oeprop( wfn, 'DIPOLE', 'QUADRUPOLE', 'MULLIKEN_CHARGES')
f=open( 'psi4out.xyz', 'w' )
f.write( "18  " )
f.write( str(ee) + "\n" )
f.write( MOL.save_string_xyz() )
f.close()
--------------------------------------------------------------------------

    Molecular point group: c1
  Charge       = 0
  Multiplicity = 1
  Basis Set: CC-PVTZ
  Basis Set:
  @DF-RHF Final Energy:  -457.50858898187619
    Total Energy =                       -457.5085889818763007
    Molecular point group: c1
  Basis Set: CC-PVTZ
  Basis Set:
  Basis Set: CC-PVTZ
  Basis Set:
  @DF-RHF Final Energy:  -457.50977839194337
    Total Energy =                       -457.5097783919438825
  Basis Set: CC-PVTZ
  Basis Set:
  Basis Set: CC-PVTZ
  Basis Set:
  @DF-RHF Final Energy:  -457.50881883914764
    Total Energy =                       -457.5088188391470112
  Basis Set: CC-PVTZ
  Basis Set:
  Basis Set: CC-PVTZ
  Basis Set:
  @DF-RHF Final Energy:  -457.50998727695816
    Total Energy =                       -457.5099872769580998
  Basis Set: CC-PVTZ
  Basis Set:
  Basis Set: CC-PVTZ
  Basis Set:
  @DF-RHF Final Energy:  -457.51002097014765
    Total Energy =                       -457.5100209701477070
  Basis Set: CC-PVTZ
  Basis Set:
  Charge       = 0
  Multiplicity = 1
  Basis Set: CC-PVTZ
  Basis Set:

    Orbital Energies (a.u.)
    -----------------------

    Doubly Occupied:

       1A    -20.601137     2A    -20.534603     3A    -11.371749
       4A    -11.281341     5A    -11.245055     6A    -11.243391
       7A    -11.242724     8A    -11.240134     9A    -11.236141
      10A    -11.235392    11A     -1.477143    12A     -1.368595
      13A     -1.170864    14A     -1.051929    15A     -1.029115
      16A     -0.980661    17A     -0.863246    18A     -0.838636
      19A     -0.781370    20A     -0.744955    21A     -0.687876
      22A     -0.681889    23A     -0.676633    24A     -0.634026
      25A     -0.630264    26A     -0.601283    27A     -0.587890
      28A     -0.564593    29A     -0.532239    30A     -0.520300
      31A     -0.509623    32A     -0.502447    33A     -0.464142
      34A     -0.449554    35A     -0.350156    36A     -0.346316

  @DF-RHF Final Energy:  -457.51002321748018

   => Energetics <=

    Nuclear Repulsion Energy =            494.0321969297008877
    One-Electron Energy =               -1602.5296176993124391
    Two-Electron Energy =                 650.9873975521311422
    DFT Exchange-Correlation Energy =       0.0000000000000000
    Empirical Dispersion Energy =           0.0000000000000000
    PCM Polarization Energy =               0.0000000000000000
    EFP Energy =                            0.0000000000000000
    Total Energy =                       -457.5100232174804660
    Molecular point group: c1
  Basis Set: CC-PVTZ
  Basis Set:

  -Total Gradient:
     Atom            X                  Y                   Z
    ------   -----------------  -----------------  -----------------
       1        0.000009255596     0.000010112127    -0.000006428631
       2        0.000035379616    -0.000205615293     0.000023109149
       3        0.000165205231     0.000135754141    -0.000022263141
       4       -0.000202056355     0.000074206297     0.000012813876
       5       -0.000000375671    -0.000012138911     0.000002876098
       6       -0.000183575967     0.000024982928     0.001144613107
       7        0.000013959032     0.000002531973     0.000000842250
       8        0.000172056414     0.000115169090    -0.000047065426
       9        0.000020776332     0.000003797300    -0.000002780345
      10        0.000126743566    -0.000194967322    -0.002065798887
      11       -0.000006267945     0.000009273128     0.000009271036
      12        0.000066248642     0.000478884718     0.002008664255
      13       -0.000211468728    -0.000340891429    -0.001045475096
      14       -0.000106420650    -0.000141730900     0.000017643566
      15        0.000180302486     0.000024615224    -0.000038378227
      16       -0.000032630873     0.000010569167    -0.000041814245
      17       -0.000038568848    -0.000022595041     0.000011650210
      18       -0.000008561883     0.000028042805     0.000038520453

  **** Optimization is complete! (in 6 steps) ****
    Final optimized geometry and variables:
    Molecular point group: c1

    Geometry (in Angstrom), charge = 0, multiplicity = 1:

    H           -3.957147022589    -0.857883805255     0.058277401856
    C           -2.901081333240    -0.666053902659     0.046948534730
    C           -2.437552221072     0.636124133348     0.038805471730
    C           -2.007908693437    -1.722167589836     0.042215010820
    H           -3.131035365109     1.454624315859     0.046313384323
    C           -1.079346853644     0.885343208053     0.021025443544
    H           -2.368124768054    -2.732608433890     0.049936565702
    C           -0.650738137576    -1.474766525383     0.031651105016
    H           -0.716932287280     1.892551207532     0.011768887703
    C           -0.181864443342    -0.170584791066     0.014415291611
    H            0.054541271700    -2.280867364182     0.036893063692
    C            1.293507491144     0.045070974879     0.020507796578
    O            1.632572687690     1.304611276468    -0.178396983551
    O            2.085844217191    -0.822722234768     0.176070389956
    C            3.013435872381     1.608905136128    -0.182644597811
    H            3.462111168134     1.352040716926     0.765102437276
    H            3.081772597547     2.670979169591    -0.352605075977
    H            3.518077287348     1.070834640079    -0.970783032825

  Mulliken Charges: (a.u.)
   Center  Symbol    Alpha    Beta     Spin     Total
       1     H     0.42032  0.42032  0.00000  0.15935
       2     C     3.07017  3.07017  0.00000 -0.14033
       3     C     3.07472  3.07472  0.00000 -0.14945
       4     C     3.07493  3.07493  0.00000 -0.14986
       5     H     0.42186  0.42186  0.00000  0.15629
       6     C     3.08279  3.08279  0.00000 -0.16559
       7     H     0.42042  0.42042  0.00000  0.15916
       8     C     3.07691  3.07691  0.00000 -0.15382
       9     H     0.41149  0.41149  0.00000  0.17703
      10     C     3.00724  3.00724  0.00000 -0.01448
      11     H     0.40708  0.40708  0.00000  0.18583
      12     C     2.78638  2.78638  0.00000  0.42724
      13     O     4.14818  4.14818  0.00000 -0.29637
      14     O     4.21056  4.21056  0.00000 -0.42111
      15     C     3.03661  3.03661  0.00000 -0.07323
      16     H     0.45297  0.45297  0.00000  0.09405
      17     H     0.44513  0.44513  0.00000  0.10975
      18     H     0.45223  0.45223  0.00000  0.09553

   Total alpha = 36.00000, Total beta = 36.00000, Total charge = -0.00000

*** Psi4 exiting successfully. Buy a developer a beer!
