  ==> Input File <==

--------------------------------------------------------------------------
set {
	reference rhf
	basis 6-31G*
}

set_num_threads( 4 )
memory 2 gb

molecule MOL {
0 1

H	 1.829308	 -1.489761	 0.693713
O	 2.016064	 -0.864478	 0.000222
C	 1.050492	 0.053836	 0.000068
C	 -0.318135	 -0.576402	 0.000164
O	 1.285279	 1.218255	 -0.000078
C	 -1.454360	 0.441875	 -0.000474
H	 -0.374042	 -1.230163	 -0.866135
H	 -0.374274	 -1.229227	 0.867154
C	 -2.826123	 -0.230780	 0.000056
H	 -1.357605	 1.085198	 -0.868380
H	 -1.357504	 1.086451	 0.866496
H	 -2.959731	 -0.858053	 -0.876869
H	 -3.619374	 0.509403	 -0.000080
H	 -2.959371	 -0.857318	 0.877556

	symmetry c1
}
set optking {
	frozen_dihedral = ("
		1 2 3 5
	")
}

ee = optimize('scf')
oeprop('DIPOLE', 'QUADRUPOLE', 'MULLIKEN_CHARGES')
f=open( 'psi4out.xyz', 'w' )
f.write( "14  " )
f.write( str(ee) + "\n" )
f.write( MOL.save_string_xyz() )
f.close()
--------------------------------------------------------------------------

    Molecular point group: c1
  Charge       = 0
  Multiplicity = 1
  Basis Set: 6-31G*
  Basis Set:
  @DF-RHF Final Energy:  -305.86133839636079
    Total Energy =                       -305.8613383963607362
    Molecular point group: c1
  Basis Set: 6-31G*
  Basis Set:
  Basis Set: 6-31G*
  Basis Set:
  @DF-RHF Final Energy:  -305.86278099598758
    Total Energy =                       -305.8627809959872934
  Basis Set: 6-31G*
  Basis Set:
  Basis Set: 6-31G*
  Basis Set:
  @DF-RHF Final Energy:  -305.86290619919180
    Total Energy =                       -305.8629061991919116
  Basis Set: 6-31G*
  Basis Set:
  Basis Set: 6-31G*
  Basis Set:
  @DF-RHF Final Energy:  -305.86284486885154
    Total Energy =                       -305.8628448688513686
  Basis Set: 6-31G*
  Basis Set:
  Basis Set: 6-31G*
  Basis Set:
  @DF-RHF Final Energy:  -305.86291664755498
    Total Energy =                       -305.8629166475549255
  Basis Set: 6-31G*
  Basis Set:
  Charge       = 0
  Multiplicity = 1
  Basis Set: 6-31G*
  Basis Set:

    Orbital Energies (a.u.)
    -----------------------

    Doubly Occupied:

       1A    -20.602440     2A    -20.556961     3A    -11.381588
       4A    -11.249424     5A    -11.229977     6A    -11.221215
       7A     -1.463409     8A     -1.370228     9A     -1.086266
      10A     -0.977605    11A     -0.851840    12A     -0.809958
      13A     -0.717565    14A     -0.672746    15A     -0.660126
      16A     -0.628682    17A     -0.581996    18A     -0.570704
      19A     -0.548622    20A     -0.507177    21A     -0.495655
      22A     -0.487371    23A     -0.480895    24A     -0.443129

  @DF-RHF Final Energy:  -305.86291734327699

   => Energetics <=

    Nuclear Repulsion Energy =            239.4696773560764314
    One-Electron Energy =                -891.4740290627610193
    Two-Electron Energy =                 346.1414343634075976
    DFT Exchange-Correlation Energy =       0.0000000000000000
    Empirical Dispersion Energy =           0.0000000000000000
    PCM Polarization Energy =               0.0000000000000000
    EFP Energy =                            0.0000000000000000
    Total Energy =                       -305.8629173432769903
    Molecular point group: c1
  Basis Set: 6-31G*
  Basis Set:

  -Total Gradient:
     Atom            X                  Y                   Z
    ------   -----------------  -----------------  -----------------
       1        0.003422795278     0.003988067710     0.004244726881
       2       -0.004370910622    -0.004939021564    -0.002755973764
       3        0.000939115678     0.000794974699    -0.007320060706
       4        0.000046004254    -0.000001962165    -0.000087903463
       5       -0.000005931169     0.000155978462     0.005869912779
       6       -0.000006742635     0.000009432328     0.000008712056
       7       -0.000017387331    -0.000004138087     0.000027119183
       8        0.000008147942     0.000008102045     0.000024654253
       9       -0.000010810668     0.000005088788     0.000002765332
      10        0.000002392252    -0.000005113224    -0.000002284481
      11        0.000002287823    -0.000009599737    -0.000011891901
      12       -0.000000536868     0.000003756304    -0.000002002148
      13       -0.000008640579    -0.000002921402     0.000002330699
      14        0.000000216639    -0.000002644155    -0.000000104718

  **** Optimization is complete! (in 6 steps) ****
    Final optimized geometry and variables:
    Molecular point group: c1

    Geometry (in Angstrom), charge = 0, multiplicity = 1:

    H            1.964242469635    -1.480564431115     0.702553663335
    O            2.074296334080    -0.839025297807     0.012454323667
    C            1.060327203228     0.054718429139    -0.007334971229
    C           -0.319800209473    -0.565581222747    -0.006682364288
    O            1.278129975719     1.213905593746    -0.034467859364
    C           -1.452084960646     0.457192053100    -0.002146382420
    H           -0.381034120767    -1.214868344444    -0.876614989968
    H           -0.396788344026    -1.223811858975     0.858327272401
    C           -2.827912534695    -0.206979017895    -0.009362198598
    H           -1.347116014614     1.104061545110    -0.865887276419
    H           -1.352725629515     1.096102463434     0.868713720440
    H           -2.963246129180    -0.827801306530    -0.890536174126
    H           -3.616090710986     0.538437117597    -0.007426114303
    H           -2.968810959525    -0.837665505796     0.864173400154

  Mulliken Charges: (a.u.)
   Center  Symbol    Alpha    Beta     Spin     Total
       1     H     0.26913  0.26913  0.00000  0.46175
       2     O     4.36120  4.36120  0.00000 -0.72241
       3     C     2.61905  2.61905  0.00000  0.76189
       4     C     3.22077  3.22077  0.00000 -0.44154
       5     O     4.25132  4.25132  0.00000 -0.50265
       6     C     3.15143  3.15143  0.00000 -0.30286
       7     H     0.39749  0.39749  0.00000  0.20502
       8     H     0.41374  0.41374  0.00000  0.17252
       9     C     3.24338  3.24338  0.00000 -0.48677
      10     H     0.40696  0.40696  0.00000  0.18608
      11     H     0.41010  0.41010  0.00000  0.17980
      12     H     0.42031  0.42031  0.00000  0.15937
      13     H     0.41317  0.41317  0.00000  0.17366
      14     H     0.42194  0.42194  0.00000  0.15612

   Total alpha = 24.00000, Total beta = 24.00000, Total charge =  0.00000
