  ==> Input File <==

--------------------------------------------------------------------------
set {
	reference rhf
	basis 6-31G*
}

set_num_threads( 1 )
memory 2 gb

molecule MOL {
0 1

H	 -1.836216	 1.387520	 -0.000064
C	 -1.301823	 0.443321	 -0.000031
O	 -0.003969	 0.658512	 0.000451
O	 -1.829879	 -0.616434	 -0.000857
C	 0.643524	 0.766635	 -1.266928
C	 2.114059	 1.011152	 -1.006048
H	 0.193072	 1.579160	 -1.820294
H	 0.480126	 -0.147198	 -1.821459
H	 2.258067	 1.926102	 -0.442876
H	 2.645086	 1.100239	 -1.948017
H	 2.546665	 0.191463	 -0.444043

	symmetry c1
}
set optking {
	frozen_dihedral = ("
		7 5 3 2
	")
}

ee = energy('scf')
oeprop('DIPOLE', 'QUADRUPOLE', 'MULLIKEN_CHARGES')
f=open( 'psi4out.xyz', 'w' )
f.write( "11  " )
f.write( str(ee) + "\n" )
f.write( MOL.save_string_xyz() )
f.close()
--------------------------------------------------------------------------

    Molecular point group: c1

    Geometry (in Angstrom), charge = 0, multiplicity = 1:

       Center              X                  Y                   Z               Mass
    ------------   -----------------  -----------------  -----------------  -----------------
           H         -1.761562188529     0.936246211074     0.456601079098     1.007825032070
           C         -1.227169188529    -0.007952788926     0.456634079098    12.000000000000
           O          0.070684811471     0.207238211074     0.457116079098    15.994914619560
           O         -1.755225188529    -1.067707788926     0.455808079098    15.994914619560
           C          0.718177811471     0.315361211074    -0.810262920902    12.000000000000
           C          2.188712811471     0.559878211074    -0.549382920902    12.000000000000
           H          0.267725811471     1.127886211074    -1.363628920902     1.007825032070
           H          0.554779811471    -0.598471788926    -1.364793920902     1.007825032070
           H          2.332720811471     1.474828211074     0.013789079098     1.007825032070
           H          2.719739811471     0.648965211074    -1.491351920902     1.007825032070
           H          2.621318811471    -0.259810788926     0.012622079098     1.007825032070

  Charge       = 0
  Multiplicity = 1
  Basis Set: 6-31G*
  Basis Set:

    Orbital Energies (a.u.)
    -----------------------

    Doubly Occupied:

       1A    -20.593168     2A    -20.568468     3A    -11.379286
       4A    -11.305063     5A    -11.231139     6A     -1.470023
       7A     -1.378128     8A     -1.053978     9A     -0.893134
      10A     -0.829663    11A     -0.742367    12A     -0.689450
      13A     -0.646822    14A     -0.641634    15A     -0.564316
      16A     -0.542381    17A     -0.537690    18A     -0.499346
      19A     -0.467436    20A     -0.452115

  @DF-RHF Final Energy:  -266.80810769669142

   => Energetics <=

    Nuclear Repulsion Energy =            177.3298790498246831
    One-Electron Energy =                -715.3048439130959650
    Two-Electron Energy =                 271.1668571665799732
    DFT Exchange-Correlation Energy =       0.0000000000000000
    Empirical Dispersion Energy =           0.0000000000000000
    PCM Polarization Energy =               0.0000000000000000
    EFP Energy =                            0.0000000000000000
    Total Energy =                       -266.8081076966912519

  Mulliken Charges: (a.u.)
   Center  Symbol    Alpha    Beta     Spin     Total
       1     H     0.42798  0.42798  0.00000  0.14404
       2     C     2.73096  2.73096  0.00000  0.53809
       3     O     4.29786  4.29786  0.00000 -0.59573
       4     O     4.23380  4.23380  0.00000 -0.46760
       5     C     3.00499  3.00499  0.00000 -0.00998
       6     C     3.24757  3.24757  0.00000 -0.49515
       7     H     0.41952  0.41952  0.00000  0.16097
       8     H     0.40777  0.40777  0.00000  0.18446
       9     H     0.40893  0.40893  0.00000  0.18214
      10     H     0.41574  0.41574  0.00000  0.16851
      11     H     0.40488  0.40488  0.00000  0.19024

   Total alpha = 20.00000, Total beta = 20.00000, Total charge =  0.00000
