  ==> Input File <==

--------------------------------------------------------------------------
set {
	reference rhf
	basis 6-31G*
}

set_num_threads( 1 )
memory 2 gb

molecule MOL {
0 1

H	 2.176868	 -0.646004	 -0.217325
O	 1.337496	 -0.537251	 0.205931
C	 0.702312	 0.627605	 -0.264544
C	 -0.714990	 0.596302	 0.266387
H	 0.682322	 0.642550	 -1.350929
H	 1.215941	 1.520383	 0.085680
O	 -1.405996	 -0.526611	 -0.195820
H	 -1.257453	 1.468809	 -0.075599
H	 -0.688972	 0.618407	 1.353696
H	 -2.235027	 -0.230245	 -0.549216

	symmetry c1
}
set optking {
	frozen_dihedral = ("
		5 3 4 7
	")
}

ee = energy('scf')
oeprop('DIPOLE', 'QUADRUPOLE', 'MULLIKEN_CHARGES')
f=open( 'psi4out.xyz', 'w' )
f.write( "10  " )
f.write( str(ee) + "\n" )
f.write( MOL.save_string_xyz() )
f.close()
--------------------------------------------------------------------------

    Molecular point group: c1

    Geometry (in Angstrom), charge = 0, multiplicity = 1:

       Center              X                  Y                   Z               Mass
    ------------   -----------------  -----------------  -----------------  -----------------
           H          2.198708924514    -0.663264777051    -0.208044213740     1.007825032070
           O          1.359336924514    -0.554511777051     0.215211786260    15.994914619560
           C          0.724152924514     0.610344222949    -0.255263213740    12.000000000000
           C         -0.693149075486     0.579041222949     0.275667786260    12.000000000000
           H          0.704162924514     0.625289222949    -1.341648213740     1.007825032070
           H          1.237781924514     1.503122222949     0.094960786260     1.007825032070
           O         -1.384155075486    -0.543871777051    -0.186539213740    15.994914619560
           H         -1.235612075486     1.451548222949    -0.066318213740     1.007825032070
           H         -0.667131075486     0.601146222949     1.362976786260     1.007825032070
           H         -2.213186075486    -0.247505777051    -0.539935213740     1.007825032070

  Charge       = 0
  Multiplicity = 1
  Basis Set: 6-31G*
  Basis Set:

    Orbital Energies (a.u.)
    -----------------------

    Doubly Occupied:

       1A    -20.551243     2A    -20.550920     3A    -11.270736
       4A    -11.269734     5A     -1.370600     6A     -1.347924
       7A     -0.999568     8A     -0.832989     9A     -0.722873
      10A     -0.683089    11A     -0.642336    12A     -0.593061
      13A     -0.575344    14A     -0.514148    15A     -0.488968
      16A     -0.440197    17A     -0.431756

  @DF-RHF Final Energy:  -228.91526262158376

   => Energetics <=

    Nuclear Repulsion Energy =            133.7266557605650803
    One-Electron Energy =                -578.7128677188122765
    Two-Electron Energy =                 216.0709493366634320
    DFT Exchange-Correlation Energy =       0.0000000000000000
    Empirical Dispersion Energy =           0.0000000000000000
    PCM Polarization Energy =               0.0000000000000000
    EFP Energy =                            0.0000000000000000
    Total Energy =                       -228.9152626215837358

  Mulliken Charges: (a.u.)
   Center  Symbol    Alpha    Beta     Spin     Total
       1     H     0.28029  0.28029  0.00000  0.43941
       2     O     4.36555  4.36555  0.00000 -0.73110
       3     C     2.99788  2.99788  0.00000  0.00424
       4     C     3.00085  3.00085  0.00000 -0.00171
       5     H     0.42899  0.42899  0.00000  0.14202
       6     H     0.43154  0.43154  0.00000  0.13693
       7     O     4.36231  4.36231  0.00000 -0.72462
       8     H     0.43443  0.43443  0.00000  0.13113
       9     H     0.41777  0.41777  0.00000  0.16447
      10     H     0.28039  0.28039  0.00000  0.43923

   Total alpha = 17.00000, Total beta = 17.00000, Total charge =  0.00000
