  ==> Input File <==

--------------------------------------------------------------------------
set {
	reference rhf
	basis 6-31G*
}

set_num_threads( 4 )
memory 2 gb

molecule MOL {
0 1

O	 -2.355436	 -0.470642	 1.560497
C	 -1.281533	 -0.176465	 1.990179
C	 -0.019031	 -0.806244	 1.428242
C	 -1.119652	 0.854139	 3.085179
C	 0.379448	 -0.143569	 0.099626
H	 -0.222674	 -1.858331	 1.261068
H	 0.796826	 -0.728689	 2.141256
C	 1.631333	 -0.777471	 -0.511575
H	 -0.459800	 -0.221667	 -0.582245
H	 0.557279	 0.918854	 0.258934
C	 2.915987	 -0.544314	 0.291766
H	 1.766672	 -0.399098	 -1.523130
H	 1.471257	 -1.849544	 -0.605828
C	 3.373361	 0.914346	 0.347591
H	 3.708709	 -1.142521	 -0.150311
H	 2.780642	 -0.921148	 1.303579
H	 3.506512	 1.320010	 -0.651625
H	 4.322697	 0.999599	 0.867103
H	 2.660624	 1.545032	 0.868198
H	 -0.738867	 0.375690	 3.983708
H	 -2.072241	 1.317403	 3.301387
H	 -0.397687	 1.612329	 2.795836

	symmetry c1
}
set optking {
	frozen_dihedral = ("
		3 5 8 12
	")
}

ee = optimize('scf')
oeprop('DIPOLE', 'QUADRUPOLE', 'MULLIKEN_CHARGES')
f=open( 'psi4out.xyz', 'w' )
f.write( "22  " )
f.write( str(ee) + "\n" )
f.write( MOL.save_string_xyz() )
f.close()
--------------------------------------------------------------------------

    Molecular point group: c1
  Charge       = 0
  Multiplicity = 1
  Basis Set: 6-31G*
  Basis Set:
  @DF-RHF Final Energy:  -348.09608337058398
    Total Energy =                       -348.0960833705841537
    Molecular point group: c1
  Basis Set: 6-31G*
  Basis Set:
  Basis Set: 6-31G*
  Basis Set:
  @DF-RHF Final Energy:  -348.09648935178262
    Total Energy =                       -348.0964893517824521
  Basis Set: 6-31G*
  Basis Set:
  Basis Set: 6-31G*
  Basis Set:
  @DF-RHF Final Energy:  -348.09665197914671
    Total Energy =                       -348.0966519791467135
  Basis Set: 6-31G*
  Basis Set:
  Basis Set: 6-31G*
  Basis Set:
  @DF-RHF Final Energy:  -348.09659938543956
    Total Energy =                       -348.0965993854398448
  Basis Set: 6-31G*
  Basis Set:
  @DF-RHF Final Energy:  -348.09675408340325
    Total Energy =                       -348.0967540834033684
  @DF-RHF Final Energy:  -348.09641792789682
    Total Energy =                       -348.0964179278965958
  @DF-RHF Final Energy:  -348.09673505454964
    Total Energy =                       -348.0967350545496970
  Basis Set: 6-31G*
  Basis Set:
  @DF-RHF Final Energy:  -348.09675982066938
    Total Energy =                       -348.0967598206691491
  Basis Set: 6-31G*
  Basis Set:
  Basis Set: 6-31G*
  Basis Set:
  @DF-RHF Final Energy:  -348.09675803081069
    Total Energy =                       -348.0967580308108609
  Basis Set: 6-31G*
  Basis Set:
  Basis Set: 6-31G*
  Basis Set:
  @DF-RHF Final Energy:  -348.09676788177529
    Total Energy =                       -348.0967678817753495
  Basis Set: 6-31G*
  Basis Set:
  Charge       = 0
  Multiplicity = 1
  Basis Set: 6-31G*
  Basis Set:

    Orbital Energies (a.u.)
    -----------------------

    Doubly Occupied:

       1A    -20.547368     2A    -11.324484     3A    -11.229801
       4A    -11.228805     5A    -11.228313     6A    -11.223095
       7A    -11.222488     8A    -11.215636     9A     -1.393135
      10A     -1.096371    11A     -1.043346    12A     -0.999616
      13A     -0.941234    14A     -0.864487    15A     -0.779558
      16A     -0.734637    17A     -0.661764    18A     -0.651720
      19A     -0.621197    20A     -0.615917    21A     -0.605650
      22A     -0.573148    23A     -0.567180    24A     -0.552691
      25A     -0.531619    26A     -0.521558    27A     -0.509594
      28A     -0.486127    29A     -0.466279    30A     -0.463543
      31A     -0.459108    32A     -0.397077

  @DF-RHF Final Energy:  -348.09676817949361

   => Energetics <=

    Nuclear Repulsion Energy =            378.4126847752125400
    One-Electron Energy =               -1221.5058192866488298
    Two-Electron Energy =                 494.9963663319429088
    DFT Exchange-Correlation Energy =       0.0000000000000000
    Empirical Dispersion Energy =           0.0000000000000000
    PCM Polarization Energy =               0.0000000000000000
    EFP Energy =                            0.0000000000000000
    Total Energy =                       -348.0967681794934379
    Molecular point group: c1
  Basis Set: 6-31G*
  Basis Set:

  -Total Gradient:
     Atom            X                  Y                   Z
    ------   -----------------  -----------------  -----------------
       1        0.000006422583     0.000002447212    -0.000021319209
       2       -0.000010798705     0.000041158065     0.000013820227
       3       -0.000404455698    -0.000442900098    -0.000360984696
       4       -0.000023289944    -0.000039832542     0.000031140613
       5        0.000458224262     0.000460534972     0.000404670091
       6        0.000004443200    -0.000013949704     0.000007987096
       7        0.000003654580    -0.000006245990    -0.000008447037
       8        0.000503534174     0.000712107565     0.000289515132
       9        0.000002188272    -0.000001716883     0.000010908978
      10       -0.000001959552     0.000003694372     0.000004337707
      11       -0.000000636138    -0.000003309172    -0.000007117595
      12       -0.000551122663    -0.000723376663    -0.000343464732
      13        0.000001791371    -0.000002383175    -0.000002006842
      14        0.000000998967     0.000001073633     0.000000916447
      15       -0.000001681794    -0.000004436995    -0.000001143051
      16       -0.000002967721     0.000001096826     0.000003517215
      17        0.000001881923     0.000001116036    -0.000000567598
      18       -0.000000976607     0.000000021539     0.000001047667
      19       -0.000001090267     0.000000462721    -0.000000899176
      20        0.000010051581     0.000010252901    -0.000002961616
      21        0.000001266611     0.000001697428    -0.000002720729
      22        0.000004521573     0.000002487952    -0.000016228891

  **** Optimization is complete! (in 11 steps) ****
    Final optimized geometry and variables:
    Molecular point group: c1

    Geometry (in Angstrom), charge = 0, multiplicity = 1:

    O           -2.801274390809    -0.422225644282     0.536040111347
    C           -1.745211417382    -0.056796782778     0.954747363100
    C           -0.449893486134    -0.650397469482     0.429045908386
    C           -1.639932374216     1.025916577209     2.005978577134
    C           -0.053379822639     0.009635683721    -0.902859419184
    H           -0.614781778507    -1.710560734166     0.270397135874
    H            0.340450132686    -0.535972256104     1.163988680872
    C            1.182618020392    -0.617253257960    -1.559707583165
    H           -0.892869562337    -0.088296831220    -1.583640470993
    H            0.099342674766     1.075866444651    -0.757328955654
    C            2.514367599329    -0.429469389510    -0.822237970671
    H            1.276717066536    -0.211176712206    -2.564566023723
    H            1.001453435481    -1.682568437498    -1.685352872926
    C            2.967406688112     1.025807461785    -0.691904519672
    H            3.276736438979    -0.984718199149    -1.362605875875
    H            2.462598859612    -0.882135015874     0.164695142935
    H            3.019696365849     1.507607228299    -1.664368861332
    H            3.953586137449     1.082907414938    -0.241925711742
    H            2.294442665834     1.608781376809    -0.071156638822
    H           -1.252449327695     0.602122924478     2.928724695439
    H           -2.613643278810     1.457647114390     2.190999449574
    H           -0.946083638400     1.800854035715     1.693360720535

  Mulliken Charges: (a.u.)
   Center  Symbol    Alpha    Beta     Spin     Total
       1     O     4.26213  4.26213  0.00000 -0.52425
       2     C     2.73695  2.73695  0.00000  0.52610
       3     C     3.20141  3.20141  0.00000 -0.40283
       4     C     3.28946  3.28946  0.00000 -0.57892
       5     C     3.16615  3.16615  0.00000 -0.33230
       6     H     0.40139  0.40139  0.00000  0.19722
       7     H     0.41558  0.41558  0.00000  0.16885
       8     C     3.15477  3.15477  0.00000 -0.30954
       9     H     0.40416  0.40416  0.00000  0.19168
      10     H     0.41856  0.41856  0.00000  0.16287
      11     C     3.15546  3.15546  0.00000 -0.31091
      12     H     0.41868  0.41868  0.00000  0.16264
      13     H     0.41885  0.41885  0.00000  0.16230
      14     C     3.24115  3.24115  0.00000 -0.48231
      15     H     0.41821  0.41821  0.00000  0.16358
      16     H     0.42228  0.42228  0.00000  0.15545
      17     H     0.42024  0.42024  0.00000  0.15952
      18     H     0.41755  0.41755  0.00000  0.16490
      19     H     0.42312  0.42312  0.00000  0.15376
      20     H     0.40684  0.40684  0.00000  0.18632
      21     H     0.39696  0.39696  0.00000  0.20608
      22     H     0.41010  0.41010  0.00000  0.17981

   Total alpha = 32.00000, Total beta = 32.00000, Total charge = -0.00000
