                              Psi4 1.0.54 Driver

  ==> Input File <==

--------------------------------------------------------------------------
set {
	reference rhf
	basis cc-pvtz
}

set_num_threads( 4 )
memory 2 gb

molecule MOL {
0 1

O	 -0.534404	 0.511699	 -2.847772
C	 -1.093810	 0.592004	 -1.802761
C	 -0.881910	 -0.448129	 -0.720509
C	 -2.026310	 1.737975	 -1.489768
C	 0.376695	 -0.140025	 0.100361
H	 -0.772233	 -1.409224	 -1.206697
H	 -1.746702	 -0.492821	 -0.067055
C	 1.630207	 -0.772146	 -0.501001
H	 0.486632	 0.935267	 0.162725
H	 0.248225	 -0.501310	 1.117842
C	 2.907848	 -0.545876	 0.309149
H	 1.772784	 -0.391628	 -1.509394
H	 1.468529	 -1.842059	 -0.599744
C	 3.373802	 0.906639	 0.372125
H	 3.699140	 -1.146831	 -0.127906
H	 2.764321	 -0.923458	 1.318191
H	 3.519798	 1.311927	 -0.623875
H	 4.316899	 0.983758	 0.900700
H	 2.661122	 1.540651	 0.885346
H	 -3.041111	 1.361026	 -1.411748
H	 -1.977274	 2.481386	 -2.270476
H	 -1.776457	 2.184895	 -0.534035

	symmetry c1
}
set optking {
	frozen_dihedral = ("
		6 3 5 8
	")
}

ee,wfn = optimize('scf', return_wfn=True)
oeprop( wfn, 'DIPOLE', 'QUADRUPOLE', 'MULLIKEN_CHARGES')
f=open( 'psi4out.xyz', 'w' )
f.write( "22  " )
f.write( str(ee) + "\n" )
f.write( MOL.save_string_xyz() )
f.close()
--------------------------------------------------------------------------

    Molecular point group: c1
  Charge       = 0
  Multiplicity = 1
  Basis Set: CC-PVTZ
  Basis Set:
  @DF-RHF Final Energy:  -348.22039490981325
    Total Energy =                       -348.2203949098130806
    Molecular point group: c1
  Basis Set: CC-PVTZ
  Basis Set:
  Basis Set: CC-PVTZ
  Basis Set:
  @DF-RHF Final Energy:  -348.22067024658446
    Total Energy =                       -348.2206702465837225
  Basis Set: CC-PVTZ
  Basis Set:
  Basis Set: CC-PVTZ
  Basis Set:
  @DF-RHF Final Energy:  -348.21925293870856
    Total Energy =                       -348.2192529387089621
  Basis Set: CC-PVTZ
  Basis Set:
  Basis Set: CC-PVTZ
  Basis Set:
  @DF-RHF Final Energy:  -348.22077383967041
    Total Energy =                       -348.2207738396703007
  Basis Set: CC-PVTZ
  Basis Set:
  @DF-RHF Final Energy:  -348.22080122643598
    Total Energy =                       -348.2208012264363788
  Basis Set: CC-PVTZ
  Basis Set:
  @DF-RHF Final Energy:  -348.22081314649989
    Total Energy =                       -348.2208131465001770
  Basis Set: CC-PVTZ
  Basis Set:
  Basis Set: CC-PVTZ
  Basis Set:
  @DF-RHF Final Energy:  -348.22081791256170
    Total Energy =                       -348.2208179125618699
  Basis Set: CC-PVTZ
  Basis Set:
  Basis Set: CC-PVTZ
  Basis Set:
  @DF-RHF Final Energy:  -348.22082049551551
    Total Energy =                       -348.2208204955151132
  Basis Set: CC-PVTZ
  Basis Set:
  Charge       = 0
  Multiplicity = 1
  Basis Set: CC-PVTZ
  Basis Set:

    Orbital Energies (a.u.)
    -----------------------

    Doubly Occupied:

       1A    -20.537081     2A    -11.319372     3A    -11.229111
       4A    -11.227878     5A    -11.226814     6A    -11.215620
       7A    -11.213932     8A    -11.207832     9A     -1.396973
      10A     -1.094627    11A     -1.044029    12A     -0.998707
      13A     -0.936712    14A     -0.858686    15A     -0.785881
      16A     -0.734808    17A     -0.661169    18A     -0.644988
      19A     -0.627636    20A     -0.611218    21A     -0.601519
      22A     -0.585855    23A     -0.558725    24A     -0.547930
      25A     -0.533250    26A     -0.519521    27A     -0.505444
      28A     -0.487699    29A     -0.468776    30A     -0.461820
      31A     -0.454284    32A     -0.398312

  @DF-RHF Final Energy:  -348.22082135012761

   => Energetics <=

    Nuclear Repulsion Energy =            380.4737824162893958
    One-Electron Energy =               -1225.9967891645337659
    Two-Electron Energy =                 497.3021853981167055
    DFT Exchange-Correlation Energy =       0.0000000000000000
    Empirical Dispersion Energy =           0.0000000000000000
    PCM Polarization Energy =               0.0000000000000000
    EFP Energy =                            0.0000000000000000
    Total Energy =                       -348.2208213501276646
    Molecular point group: c1
  Basis Set: CC-PVTZ
  Basis Set:

  -Total Gradient:
     Atom            X                  Y                   Z
    ------   -----------------  -----------------  -----------------
       1        0.000029897414     0.000005624964     0.000026128152
       2        0.000005123574    -0.000007235050    -0.000021958352
       3       -0.001674695755    -0.002556392702     0.003350445566
       4       -0.000024172870    -0.000005369260    -0.000001624431
       5        0.000744171563     0.002919670088    -0.002113953641
       6        0.001232732681     0.001478267287    -0.002350398209
       7       -0.000000568582     0.000006464766     0.000004053871
       8       -0.000316587491    -0.001860681349     0.001105444695
       9        0.000001197169    -0.000001674695    -0.000012441451
      10       -0.000011315441     0.000002926718    -0.000001754195
      11       -0.000001892261    -0.000007849590     0.000009175674
      12       -0.000003057844     0.000003039853    -0.000007815331
      13       -0.000002506241     0.000009123846    -0.000007590126
      14        0.000015104541    -0.000000348107    -0.000005216304
      15        0.000001592855     0.000004617350     0.000011028916
      16        0.000000804696     0.000000895370     0.000007103024
      17       -0.000001824122     0.000004204256    -0.000001937582
      18       -0.000001092716     0.000005107490    -0.000003593742
      19        0.000003590598    -0.000007192042     0.000003954936
      20       -0.000001133517     0.000002242229     0.000013102740
      21       -0.000005295515    -0.000005861848    -0.000001276774
      22        0.000009927262     0.000010420423    -0.000000877433

  **** Optimization is complete! (in 9 steps) ****
    Final optimized geometry and variables:
    Molecular point group: c1

    Geometry (in Angstrom), charge = 0, multiplicity = 1:

    O           -1.091652751921     0.244525554874    -2.052431923123
    C           -1.576069568973     0.332909725504    -0.970751313970
    C           -1.363044709381    -0.737054338739     0.082129648581
    C           -2.421472238527     1.523404433915    -0.581126563912
    C           -0.105905840813    -0.440908473221     0.927153932739
    H           -1.243269429419    -1.674317697838    -0.444464172258
    H           -2.236293364397    -0.798212303795     0.720216633692
    C            1.170908169430    -1.022687514271     0.321255341244
    H           -0.006197056463     0.629137747434     1.072709178803
    H           -0.246015382077    -0.866067774952     1.915779504450
    C            2.436861890825    -0.753539111780     1.136263113750
    H            1.300645898035    -0.643231794784    -0.687394436481
    H            1.040146492884    -2.096577140121     0.227328040068
    C            2.876476969228     0.708457519370     1.168790686041
    H            3.242619888365    -1.347773982936     0.717172702199
    H            2.295337857446    -1.111516606786     2.153026009605
    H            3.019365022538     1.093385537811     0.164541890344
    H            3.815220323494     0.815203833521     1.700108948405
    H            2.150798481796     1.341716333467     1.665393403654
    H           -3.455521170184     1.205782125285    -0.491237587917
    H           -2.348028758471     2.293191497726    -1.333872355875
    H           -2.121717956698     1.915212767742     0.383840595602

  Mulliken Charges: (a.u.)
   Center  Symbol    Alpha    Beta     Spin     Total
       1     O     4.17764  4.17764  0.00000 -0.35529
       2     C     2.85907  2.85907  0.00000  0.28185
       3     C     3.10733  3.10733  0.00000 -0.21466
       4     C     3.15398  3.15398  0.00000 -0.30797
       5     C     3.10697  3.10697  0.00000 -0.21395
       6     H     0.44007  0.44007  0.00000  0.11987
       7     H     0.43870  0.43870  0.00000  0.12261
       8     C     3.09278  3.09278  0.00000 -0.18555
       9     H     0.45045  0.45045  0.00000  0.09910
      10     H     0.44579  0.44579  0.00000  0.10841
      11     C     3.09160  3.09160  0.00000 -0.18319
      12     H     0.44118  0.44118  0.00000  0.11765
      13     H     0.44925  0.44925  0.00000  0.10149
      14     C     3.15263  3.15263  0.00000 -0.30526
      15     H     0.44714  0.44714  0.00000  0.10573
      16     H     0.45580  0.45580  0.00000  0.08840
      17     H     0.45135  0.45135  0.00000  0.09729
      18     H     0.44615  0.44615  0.00000  0.10770
      19     H     0.45659  0.45659  0.00000  0.08682
      20     H     0.44805  0.44805  0.00000  0.10391
      21     H     0.43655  0.43655  0.00000  0.12690
      22     H     0.45093  0.45093  0.00000  0.09815

   Total alpha = 32.00000, Total beta = 32.00000, Total charge =  0.00000

*** Psi4 exiting successfully. Buy a developer a beer!
