                              Psi4 1.0.54 Driver

  ==> Input File <==

--------------------------------------------------------------------------
set {
	reference rhf
	basis cc-pvtz
}

set_num_threads( 4 )
memory 2 gb

molecule MOL {
0 1

H	 -2.430198	 -0.934288	 3.285694
C	 -2.414711	 -0.820358	 2.221228
C	 -1.277492	 -0.923198	 1.578185
H	 -3.335694	 -0.625913	 1.707633
O	 -1.189946	 -0.765863	 0.237511
H	 -0.350041	 -1.126232	 2.081909
C	 0.026572	 -0.995256	 -0.379403
C	 1.057223	 0.049888	 -0.004615
H	 -0.054361	 -1.010670	 -1.459674
H	 0.397526	 -1.952058	 -0.044198
F	 2.203233	 -0.234060	 -0.590375
F	 0.698147	 1.254887	 -0.392621
F	 1.266440	 0.094219	 1.288722

	symmetry c1
}
set optking {
	frozen_dihedral = ("
		3 5 7 9
	")
}

ee,wfn = optimize('scf', return_wfn=True)
oeprop( wfn, 'DIPOLE', 'QUADRUPOLE', 'MULLIKEN_CHARGES')
f=open( 'psi4out.xyz', 'w' )
f.write( "13  " )
f.write( str(ee) + "\n" )
f.write( MOL.save_string_xyz() )
f.close()
--------------------------------------------------------------------------

    Molecular point group: c1
  Charge       = 0
  Multiplicity = 1
  Basis Set: CC-PVTZ
  Basis Set:
  @DF-RHF Final Energy:  -527.73687821487681
    Total Energy =                       -527.7368782148769242
    Molecular point group: c1
  Basis Set: CC-PVTZ
  Basis Set:
  Basis Set: CC-PVTZ
  Basis Set:
  @DF-RHF Final Energy:  -527.73988322328296
    Total Energy =                       -527.7398832232829591
  Basis Set: CC-PVTZ
  Basis Set:
  Basis Set: CC-PVTZ
  Basis Set:
  @DF-RHF Final Energy:  -527.74097744884727
    Total Energy =                       -527.7409774488470475
  Basis Set: CC-PVTZ
  Basis Set:
  Basis Set: CC-PVTZ
  Basis Set:
  @DF-RHF Final Energy:  -527.74113823511550
    Total Energy =                       -527.7411382351150451
  Basis Set: CC-PVTZ
  Basis Set:
  @DF-RHF Final Energy:  -527.74119257652160
    Total Energy =                       -527.7411925765218257
  Basis Set: CC-PVTZ
  Basis Set:
  @DF-RHF Final Energy:  -527.74121268805220
    Total Energy =                       -527.7412126880522010
  Basis Set: CC-PVTZ
  Basis Set:
  Basis Set: CC-PVTZ
  Basis Set:
  @DF-RHF Final Energy:  -527.74121645338857
    Total Energy =                       -527.7412164533884606
  Basis Set: CC-PVTZ
  Basis Set:
  Basis Set: CC-PVTZ
  Basis Set:
  @DF-RHF Final Energy:  -527.74121801903823
    Total Energy =                       -527.7412180190381150
  Basis Set: CC-PVTZ
  Basis Set:
  Charge       = 0
  Multiplicity = 1
  Basis Set: CC-PVTZ
  Basis Set:

    Orbital Energies (a.u.)
    -----------------------

    Doubly Occupied:

       1A    -26.342069     2A    -26.341514     3A    -26.338771
       4A    -20.603248     5A    -11.498627     6A    -11.319926
       7A    -11.296901     8A    -11.214187     9A     -1.751246
      10A     -1.647432    11A     -1.646225    12A     -1.443144
      13A     -1.086756    14A     -1.021324    15A     -0.932841
      16A     -0.843948    17A     -0.839795    18A     -0.831698
      19A     -0.791885    20A     -0.727942    21A     -0.719276
      22A     -0.701919    23A     -0.682032    24A     -0.669151
      25A     -0.662404    26A     -0.651598    27A     -0.643418
      28A     -0.590898    29A     -0.566355    30A     -0.526304
      31A     -0.513163    32A     -0.358005

  @DF-RHF Final Energy:  -527.74121829051830

   => Energetics <=

    Nuclear Repulsion Energy =            415.8236692082031141
    One-Electron Energy =               -1555.5217704628928459
    Two-Electron Energy =                 611.9568829641714274
    DFT Exchange-Correlation Energy =       0.0000000000000000
    Empirical Dispersion Energy =           0.0000000000000000
    PCM Polarization Energy =               0.0000000000000000
    EFP Energy =                            0.0000000000000000
    Total Energy =                       -527.7412182905184181
    Molecular point group: c1
  Basis Set: CC-PVTZ
  Basis Set:

  -Total Gradient:
     Atom            X                  Y                   Z
    ------   -----------------  -----------------  -----------------
       1        0.000001376634     0.000000847235     0.000000352656
       2       -0.000018404149     0.000001060129     0.000001629861
       3        0.000492096717     0.002399670195     0.000381756584
       4       -0.000004812053     0.000007178135    -0.000001985747
       5       -0.000618804840    -0.002874829851    -0.000561736792
       6        0.000001436158    -0.000001320000     0.000000133568
       7       -0.000200700847    -0.002378167345     0.000208654229
       8       -0.000006946522     0.000007342286     0.000042873150
       9        0.000346124603     0.002846946744    -0.000023438597
      10        0.000013575369    -0.000002729082    -0.000007241323
      11        0.000002032338    -0.000004370069    -0.000011454014
      12       -0.000005157037     0.000007570776    -0.000016982283
      13       -0.000001816357    -0.000009199148    -0.000012561286

  **** Optimization is complete! (in 9 steps) ****
    Final optimized geometry and variables:
    Molecular point group: c1

    Geometry (in Angstrom), charge = 0, multiplicity = 1:

    H           -2.629599205731    -0.628805592848     2.829221623369
    C           -2.537141874898    -0.428226384647     1.781485503788
    C           -1.485213799335    -0.860617165373     1.131123654262
    H           -3.314673881437     0.122006693726     1.288925218915
    O           -1.340449398307    -0.681030459730    -0.203544203478
    H           -0.695062619626    -1.406945269957     1.613120418716
    C           -0.085311918838    -0.838218103275    -0.763120049296
    C            0.863053172585     0.304350172093    -0.448835399426
    H           -0.212422623888    -0.831244800049    -1.834559155519
    H            0.391109572680    -1.763422063081    -0.458986594107
    F            1.989016422634     0.122306823884    -1.109390835378
    F            0.368135800107     1.464411734921    -0.806437168772
    F            1.163509460070     0.377091287967     0.830642375370

  Mulliken Charges: (a.u.)
   Center  Symbol    Alpha    Beta     Spin     Total
       1     H     0.42534  0.42534  0.00000  0.14932
       2     C     3.19351  3.19351  0.00000 -0.38702
       3     C     2.96167  2.96167  0.00000  0.07666
       4     H     0.42437  0.42437  0.00000  0.15127
       5     O     4.14488  4.14488  0.00000 -0.28975
       6     H     0.43300  0.43300  0.00000  0.13400
       7     C     3.02174  3.02174  0.00000 -0.04349
       8     C     2.67691  2.67691  0.00000  0.64619
       9     H     0.43535  0.43535  0.00000  0.12931
      10     H     0.45313  0.45313  0.00000  0.09375
      11     F     4.61200  4.61200  0.00000 -0.22400
      12     F     4.60712  4.60712  0.00000 -0.21424
      13     F     4.61100  4.61100  0.00000 -0.22200

   Total alpha = 32.00000, Total beta = 32.00000, Total charge =  0.00000

*** Psi4 exiting successfully. Buy a developer a beer!
