  ==> Input File <==

--------------------------------------------------------------------------
set {
	reference rhf
	basis 6-31G*
}

set_num_threads( 1 )
memory 2 gb

molecule MOL {
0 1

O	 3.225979	 0.970355	 -0.599647
C	 2.701189	 0.057885	 -0.047330
C	 1.245376	 -0.013843	 0.345420
O	 3.347903	 -1.046386	 0.304773
C	 0.455112	 1.231400	 -0.050772
H	 0.838542	 -0.913825	 -0.103701
H	 1.208210	 -0.175333	 1.419774
C	 -0.998893	 1.219485	 0.433193
H	 0.482531	 1.345121	 -1.130325
H	 0.957290	 2.103070	 0.354729
C	 -1.883438	 0.145884	 -0.207175
H	 -1.431207	 2.195402	 0.224832
H	 -1.019646	 1.105716	 1.516076
C	 -2.792157	 0.701207	 -1.305740
H	 -1.251133	 -0.636135	 -0.624855
H	 -2.500341	 -0.332143	 0.550382
C	 -3.684405	 -0.361794	 -1.949210
H	 -2.181141	 1.170040	 -2.075214
H	 -3.417174	 1.490645	 -0.891202
C	 -4.585988	 0.200232	 -3.047834
H	 -3.061480	 -1.151934	 -2.363077
H	 -4.299047	 -0.828537	 -1.182303
H	 -5.205947	 -0.576767	 -3.484333
H	 -3.999519	 0.643579	 -3.847642
H	 -5.246137	 0.969876	 -2.657803
C	 4.728119	 -1.109107	 -0.004993
H	 4.882018	 -1.033965	 -1.071845
H	 5.068212	 -2.067527	 0.355250
H	 5.265056	 -0.311663	 0.488280

	symmetry c1
}
set optking {
	frozen_dihedral = ("
		21 17 14 11,
		17 14 11 15,
		6 3 5 9,
		11 8 5 9,
		2 4 26 27,
		1 2 4 26,
		6 3 2 1
	")
}

ee = energy('scf')
oeprop('DIPOLE', 'QUADRUPOLE', 'MULLIKEN_CHARGES')
f=open( 'psi4out.xyz', 'w' )
f.write( "29  " )
f.write( str(ee) + "\n" )
f.write( MOL.save_string_xyz() )
f.close()
--------------------------------------------------------------------------

    Molecular point group: c1

    Geometry (in Angstrom), charge = 0, multiplicity = 1:

       Center              X                  Y                   Z               Mass
    ------------   -----------------  -----------------  -----------------  -----------------
           O          3.021464164712     0.801765707270    -0.034504319793    15.994914619560
           C          2.496674164712    -0.110704292730     0.517812680207    12.000000000000
           C          1.040861164712    -0.182432292730     0.910562680207    12.000000000000
           O          3.143388164712    -1.214975292730     0.869915680207    15.994914619560
           C          0.250597164712     1.062810707270     0.514370680207    12.000000000000
           H          0.634027164712    -1.082414292730     0.461441680207     1.007825032070
           H          1.003695164712    -0.343922292730     1.984916680207     1.007825032070
           C         -1.203407835288     1.050895707270     0.998335680207    12.000000000000
           H          0.278016164712     1.176531707270    -0.565182319793     1.007825032070
           H          0.752775164712     1.934480707270     0.919871680207     1.007825032070
           C         -2.087952835288    -0.022705292730     0.357967680207    12.000000000000
           H         -1.635721835288     2.026812707270     0.789974680207     1.007825032070
           H         -1.224160835288     0.937126707270     2.081218680207     1.007825032070
           C         -2.996671835288     0.532617707270    -0.740597319793    12.000000000000
           H         -1.455647835288    -0.804724292730    -0.059712319793     1.007825032070
           H         -2.704855835288    -0.500732292730     1.115524680207     1.007825032070
           C         -3.888919835288    -0.530383292730    -1.384067319793    12.000000000000
           H         -2.385655835288     1.001450707270    -1.510071319793     1.007825032070
           H         -3.621688835288     1.322055707270    -0.326059319793     1.007825032070
           C         -4.790502835288     0.031642707270    -2.482691319793    12.000000000000
           H         -3.265994835288    -1.320523292730    -1.797934319793     1.007825032070
           H         -4.503561835288    -0.997126292730    -0.617160319793     1.007825032070
           H         -5.410461835288    -0.745356292730    -2.919190319793     1.007825032070
           H         -4.204033835288     0.474989707270    -3.282499319793     1.007825032070
           H         -5.450651835288     0.801286707270    -2.092660319793     1.007825032070
           C          4.523604164712    -1.277696292730     0.560149680207    12.000000000000
           H          4.677503164712    -1.202554292730    -0.506702319793     1.007825032070
           H          4.863697164712    -2.236116292730     0.920392680207     1.007825032070
           H          5.060541164712    -0.480252292730     1.053422680207     1.007825032070

  Charge       = 0
  Multiplicity = 1
  Basis Set: 6-31G*
  Basis Set:

    Orbital Energies (a.u.)
    -----------------------

    Doubly Occupied:

       1A    -20.603586     2A    -20.545390     3A    -11.372291
       4A    -11.280797     5A    -11.234937     6A    -11.219387
       7A    -11.216287     8A    -11.215130     9A    -11.214682
      10A    -11.213910    11A    -11.208465    12A     -1.469274
      13A     -1.362716    14A     -1.098723    15A     -1.066009
      16A     -1.019231    17A     -0.976613    18A     -0.927937
      19A     -0.863792    20A     -0.802220    21A     -0.787479
      22A     -0.762012    23A     -0.700882    24A     -0.683024
      25A     -0.671616    26A     -0.650174    27A     -0.628912
      28A     -0.606471    29A     -0.594024    30A     -0.575348
      31A     -0.565404    32A     -0.558800    33A     -0.531615
      34A     -0.526162    35A     -0.522523    36A     -0.511048
      37A     -0.493628    38A     -0.477989    39A     -0.472650
      40A     -0.459042    41A     -0.456465    42A     -0.453714
      43A     -0.440456    44A     -0.435709

  @DF-RHF Final Energy:  -501.03909932263866

   => Energetics <=

    Nuclear Repulsion Energy =            615.5065272787602453
    One-Electron Energy =               -1902.1378274130699992
    Two-Electron Energy =                 785.5922008116735924
    DFT Exchange-Correlation Energy =       0.0000000000000000
    Empirical Dispersion Energy =           0.0000000000000000
    PCM Polarization Energy =               0.0000000000000000
    EFP Energy =                            0.0000000000000000
    Total Energy =                       -501.0390993226360479

  Mulliken Charges: (a.u.)
   Center  Symbol    Alpha    Beta     Spin     Total
       1     O     4.28581  4.28581  0.00000 -0.57162
       2     C     2.60521  2.60521  0.00000  0.78957
       3     C     3.20890  3.20890  0.00000 -0.41780
       4     O     4.30736  4.30736  0.00000 -0.61473
       5     C     3.15500  3.15500  0.00000 -0.31000
       6     H     0.39927  0.39927  0.00000  0.20147
       7     H     0.40093  0.40093  0.00000  0.19814
       8     C     3.16062  3.16062  0.00000 -0.32124
       9     H     0.41327  0.41327  0.00000  0.17346
      10     H     0.40878  0.40878  0.00000  0.18243
      11     C     3.15579  3.15579  0.00000 -0.31158
      12     H     0.41611  0.41611  0.00000  0.16777
      13     H     0.42156  0.42156  0.00000  0.15687
      14     C     3.15257  3.15257  0.00000 -0.30514
      15     H     0.42350  0.42350  0.00000  0.15300
      16     H     0.42010  0.42010  0.00000  0.15980
      17     C     3.15175  3.15175  0.00000 -0.30351
      18     H     0.42284  0.42284  0.00000  0.15431
      19     H     0.42300  0.42300  0.00000  0.15399
      20     C     3.23933  3.23933  0.00000 -0.47866
      21     H     0.42339  0.42339  0.00000  0.15321
      22     H     0.42322  0.42322  0.00000  0.15356
      23     H     0.41940  0.41940  0.00000  0.16120
      24     H     0.42145  0.42145  0.00000  0.15710
      25     H     0.42176  0.42176  0.00000  0.15648
      26     C     3.09240  3.09240  0.00000 -0.18481
      27     H     0.40910  0.40910  0.00000  0.18180
      28     H     0.40846  0.40846  0.00000  0.18307
      29     H     0.40908  0.40908  0.00000  0.18185

   Total alpha = 44.00000, Total beta = 44.00000, Total charge =  0.00000
