  ==> Input File <==

--------------------------------------------------------------------------
set {
	reference rhf
	basis 6-31G*
}

set_num_threads( 1 )
memory 2 gb

molecule MOL {
0 1

O	 -1.276010	 1.052711	 -0.768302
C	 -1.204840	 0.067374	 -0.106123
C	 -2.388195	 -0.672128	 0.458071
O	 -0.067104	 -0.527208	 0.221609
H	 -2.388023	 -1.694060	 0.097175
H	 -3.300579	 -0.174919	 0.164318
H	 -2.315377	 -0.706351	 1.539059
C	 0.993960	 0.259437	 0.781306
C	 2.278468	 -0.483065	 0.458324
C	 0.768535	 0.437888	 2.274620
H	 0.985937	 1.222724	 0.292920
H	 2.392560	 -0.602661	 -0.613090
H	 3.133735	 0.068456	 0.834721
H	 2.277335	 -1.467429	 0.914043
H	 1.580348	 1.013038	 2.708416
H	 -0.157528	 0.966100	 2.462702
H	 0.730217	 -0.526945	 2.770237

	symmetry c1
}
set optking {
	frozen_dihedral = ("
		11 8 4 2
	")
}

ee = energy('scf')
oeprop('DIPOLE', 'QUADRUPOLE', 'MULLIKEN_CHARGES')
f=open( 'psi4out.xyz', 'w' )
f.write( "17  " )
f.write( str(ee) + "\n" )
f.write( MOL.save_string_xyz() )
f.close()
--------------------------------------------------------------------------

    Molecular point group: c1

    Geometry (in Angstrom), charge = 0, multiplicity = 1:

       Center              X                  Y                   Z               Mass
    ------------   -----------------  -----------------  -----------------  -----------------
           O         -1.147211280791     1.035051051402    -1.247472166436    15.994914619560
           C         -1.076041280791     0.049714051402    -0.585293166436    12.000000000000
           C         -2.259396280791    -0.689787948598    -0.021099166436    12.000000000000
           O          0.061694719209    -0.544867948598    -0.257561166436    15.994914619560
           H         -2.259224280791    -1.711719948598    -0.381995166436     1.007825032070
           H         -3.171780280791    -0.192578948598    -0.314852166436     1.007825032070
           H         -2.186578280791    -0.724010948598     1.059888833564     1.007825032070
           C          1.122758719209     0.241777051402     0.302135833564    12.000000000000
           C          2.407266719209    -0.500724948598    -0.020846166436    12.000000000000
           C          0.897333719209     0.420228051402     1.795449833564    12.000000000000
           H          1.114735719209     1.205064051402    -0.186250166436     1.007825032070
           H          2.521358719209    -0.620320948598    -1.092260166436     1.007825032070
           H          3.262533719209     0.050796051402     0.355550833564     1.007825032070
           H          2.406133719209    -1.485088948598     0.434872833564     1.007825032070
           H          1.709146719209     0.995378051402     2.229245833564     1.007825032070
           H         -0.028729280791     0.948440051402     1.983531833564     1.007825032070
           H          0.859015719209    -0.544604948598     2.291066833564     1.007825032070

  Charge       = 0
  Multiplicity = 1
  Basis Set: 6-31G*
  Basis Set:

    Orbital Energies (a.u.)
    -----------------------

    Doubly Occupied:

       1A    -20.588594     2A    -20.547435     3A    -11.374368
       4A    -11.296256     5A    -11.231580     6A    -11.225813
       7A    -11.220363     8A     -1.461979     9A     -1.362377
      10A     -1.079404    11A     -1.007252    12A     -0.953448
      13A     -0.849235    14A     -0.767627    15A     -0.693714
      16A     -0.667152    17A     -0.660241    18A     -0.621535
      19A     -0.587060    20A     -0.578934    21A     -0.564643
      22A     -0.552965    23A     -0.543901    24A     -0.521385
      25A     -0.500061    26A     -0.486788    27A     -0.446474
      28A     -0.434009

  @DF-RHF Final Energy:  -344.90351328378097

   => Energetics <=

    Nuclear Repulsion Energy =            322.9497579958764391
    One-Electron Energy =               -1110.0574765494568510
    Two-Electron Energy =                 442.2042052698001271
    DFT Exchange-Correlation Energy =       0.0000000000000000
    Empirical Dispersion Energy =           0.0000000000000000
    PCM Polarization Energy =               0.0000000000000000
    EFP Energy =                            0.0000000000000000
    Total Energy =                       -344.9035132837802848

  Mulliken Charges: (a.u.)
   Center  Symbol    Alpha    Beta     Spin     Total
       1     O     4.27249  4.27249  0.00000 -0.54498
       2     C     2.61971  2.61971  0.00000  0.76059
       3     C     3.28302  3.28302  0.00000 -0.56603
       4     O     4.31662  4.31662  0.00000 -0.63323
       5     H     0.39974  0.39974  0.00000  0.20052
       6     H     0.39927  0.39927  0.00000  0.20146
       7     H     0.40468  0.40468  0.00000  0.19064
       8     C     2.93089  2.93089  0.00000  0.13823
       9     C     3.24280  3.24280  0.00000 -0.48560
      10     C     3.24807  3.24807  0.00000 -0.49613
      11     H     0.40007  0.40007  0.00000  0.19987
      12     H     0.40717  0.40717  0.00000  0.18566
      13     H     0.41878  0.41878  0.00000  0.16244
      14     H     0.41403  0.41403  0.00000  0.17194
      15     H     0.41467  0.41467  0.00000  0.17066
      16     H     0.41475  0.41475  0.00000  0.17050
      17     H     0.41326  0.41326  0.00000  0.17348

   Total alpha = 28.00000, Total beta = 28.00000, Total charge = -0.00000
