                              Psi4 1.0.54 Driver

  ==> Input File <==

--------------------------------------------------------------------------
set {
	reference rhf
	basis cc-pvtz
}

set_num_threads( 4 )
memory 2 gb

molecule MOL {
0 1

H	 2.867672	 -0.456275	 0.875795
C	 2.403497	 -0.020426	 0.000000
N	 0.989899	 -0.304564	 0.000000
H	 2.867672	 -0.456275	 -0.875795
H	 2.620366	 1.051270	 0.000000
C	 0.401572	 -0.185759	 -1.318076
C	 0.263212	 0.502583	 0.958127
H	 0.506384	 0.829701	 -1.712535
H	 0.913180	 -0.856397	 -1.998686
C	 -1.070044	 -0.548865	 -1.265697
H	 0.673302	 0.337005	 1.947641
H	 0.357618	 1.569818	 0.734872
C	 -1.204848	 0.121791	 0.952021
H	 -1.538016	 -0.374912	 -2.224535
H	 -1.175857	 -1.602756	 -1.016263
O	 -1.749853	 0.233478	 -0.329245
H	 -1.770262	 0.780520	 1.596234
H	 -1.317637	 -0.897395	 1.316215

	symmetry c1
}
set optking {
	frozen_dihedral = ("
		6 3 2 5
	")
}

ee,wfn = optimize('scf', return_wfn=True)
oeprop( wfn, 'DIPOLE', 'QUADRUPOLE', 'MULLIKEN_CHARGES')
f=open( 'psi4out.xyz', 'w' )
f.write( "18  " )
f.write( str(ee) + "\n" )
f.write( MOL.save_string_xyz() )
f.close()
--------------------------------------------------------------------------

    Molecular point group: c1
  Charge       = 0
  Multiplicity = 1
  Basis Set: CC-PVTZ
  Basis Set:
  @DF-RHF Final Energy:  -325.14463291648559
    Total Energy =                       -325.1446329164856479
    Molecular point group: c1
  Basis Set: CC-PVTZ
  Basis Set:
  Basis Set: CC-PVTZ
  Basis Set:
  @DF-RHF Final Energy:  -325.14479105369196
    Total Energy =                       -325.1447910536923018
  Basis Set: CC-PVTZ
  Basis Set:
  Basis Set: CC-PVTZ
  Basis Set:
  @DF-RHF Final Energy:  -325.14480891309415
    Total Energy =                       -325.1448089130941526
  Basis Set: CC-PVTZ
  Basis Set:
  Charge       = 0
  Multiplicity = 1
  Basis Set: CC-PVTZ
  Basis Set:

    Orbital Energies (a.u.)
    -----------------------

    Doubly Occupied:

       1A    -20.547556     2A    -15.543097     3A    -11.264333
       4A    -11.264211     5A    -11.242623     6A    -11.242585
       7A    -11.239184     8A     -1.386405     9A     -1.233198
      10A     -1.039418    11A     -0.982078    12A     -0.884436
      13A     -0.869661    14A     -0.773854    15A     -0.685063
      16A     -0.646947    17A     -0.645373    18A     -0.635340
      19A     -0.629939    20A     -0.573884    21A     -0.557775
      22A     -0.541252    23A     -0.527843    24A     -0.501349
      25A     -0.486566    26A     -0.454086    27A     -0.410735
      28A     -0.352280

  @DF-RHF Final Energy:  -325.14480978364088

   => Energetics <=

    Nuclear Repulsion Energy =            341.8089145183938626
    One-Electron Energy =               -1119.5853095240952371
    Two-Electron Energy =                 452.6315852220602665
    DFT Exchange-Correlation Energy =       0.0000000000000000
    Empirical Dispersion Energy =           0.0000000000000000
    PCM Polarization Energy =               0.0000000000000000
    EFP Energy =                            0.0000000000000000
    Total Energy =                       -325.1448097836411080
    Molecular point group: c1
  Basis Set: CC-PVTZ
  Basis Set:

  -Total Gradient:
     Atom            X                  Y                   Z
    ------   -----------------  -----------------  -----------------
       1       -0.000002649105    -0.000003552557     0.000018427312
       2        0.000306131288    -0.000981209959    -0.004604910930
       3       -0.000632495007     0.003466204056     0.001577083789
       4       -0.000040347379    -0.000017737615     0.000010720915
       5       -0.000050401930     0.000015840158     0.003422336743
       6        0.000447819546    -0.002509433945    -0.000451461861
       7       -0.000015452500     0.000061241629     0.000026111400
       8       -0.000010460678    -0.000034803623     0.000029773836
       9        0.000006318910    -0.000003171246     0.000010596676
      10       -0.000011583658     0.000033786128    -0.000037428062
      11        0.000002129594    -0.000009620103    -0.000012117538
      12       -0.000000652469    -0.000014765971     0.000004427346
      13        0.000012304859    -0.000005160380     0.000001488026
      14       -0.000030769513    -0.000008734741    -0.000018832285
      15        0.000019839148     0.000022801320     0.000003897139
      16        0.000015195927    -0.000017423574     0.000012140005
      17       -0.000013800080     0.000002033448     0.000004059461
      18       -0.000001126957     0.000003706973     0.000003688030

  **** Optimization is complete! (in 4 steps) ****
    Final optimized geometry and variables:
    Molecular point group: c1

    Geometry (in Angstrom), charge = 0, multiplicity = 1:

    H            2.844766908519    -0.426882277905     1.041848878415
    C            2.403890807775    -0.009043440472     0.143615290043
    N            0.984665048776    -0.266098495975     0.129763113056
    H            2.877671767825    -0.477550297154    -0.708295318971
    H            2.641904624358     1.057575340234     0.136238328056
    C            0.389082588219    -0.154997950234    -1.184570566760
    C            0.263760036561     0.519839666268     1.105964500383
    H            0.484889068981     0.857644406352    -1.589349232925
    H            0.896324623180    -0.829637011468    -1.863928372088
    C           -1.081019413103    -0.523458048297    -1.117227365207
    H            0.683816023050     0.340292734718     2.089374460148
    H            0.352793077577     1.591131582458     0.899953322458
    C           -1.202931814188     0.133552185007     1.105720607099
    H           -1.560009784874    -0.350276512812    -2.070858891656
    H           -1.179070354050    -1.578317267669    -0.868312735977
    O           -1.754695417391     0.253499565485    -0.171847023237
    H           -1.767224984631     0.785111064583     1.758294916176
    H           -1.310237757400    -0.888934912838     1.462352775183

  Mulliken Charges: (a.u.)
   Center  Symbol    Alpha    Beta     Spin     Total
       1     H     0.45073  0.45073  0.00000  0.09854
       2     C     3.09448  3.09448  0.00000 -0.18896
       3     N     3.61724  3.61724  0.00000 -0.23448
       4     H     0.45263  0.45263  0.00000  0.09473
       5     H     0.46867  0.46867  0.00000  0.06266
       6     C     3.03912  3.03912  0.00000 -0.07823
       7     C     3.04110  3.04110  0.00000 -0.08220
       8     H     0.47012  0.47012  0.00000  0.05976
       9     H     0.45404  0.45404  0.00000  0.09192
      10     C     2.98387  2.98387  0.00000  0.03227
      11     H     0.45441  0.45441  0.00000  0.09119
      12     H     0.46838  0.46838  0.00000  0.06324
      13     C     2.98336  2.98336  0.00000  0.03328
      14     H     0.44980  0.44980  0.00000  0.10039
      15     H     0.46790  0.46790  0.00000  0.06420
      16     O     4.18650  4.18650  0.00000 -0.37300
      17     H     0.44990  0.44990  0.00000  0.10021
      18     H     0.46775  0.46775  0.00000  0.06450

   Total alpha = 28.00000, Total beta = 28.00000, Total charge =  0.00000

*** Psi4 exiting successfully. Buy a developer a beer!
