  ==> Input File <==

--------------------------------------------------------------------------
set {
	reference rhf
	basis 6-31G*
}

set_num_threads( 1 )
memory 2 gb

molecule MOL {
0 1

H	 2.003271	 1.435266	 -0.808790
O	 1.121734	 1.077523	 -0.850002
C	 1.050492	 0.053836	 0.000068
C	 -0.318135	 -0.576402	 0.000164
O	 1.978408	 -0.286846	 0.658783
C	 -1.454360	 0.441875	 -0.000474
H	 -0.374042	 -1.230163	 -0.866135
H	 -0.374274	 -1.229227	 0.867154
C	 -2.826123	 -0.230780	 0.000056
H	 -1.357605	 1.085198	 -0.868380
H	 -1.357504	 1.086451	 0.866496
H	 -2.959731	 -0.858053	 -0.876869
H	 -3.619374	 0.509403	 -0.000080
H	 -2.959371	 -0.857318	 0.877556

	symmetry c1
}
set optking {
	frozen_dihedral = ("
		7 4 6 10,
		1 2 3 5
	")
}

ee = energy('scf')
oeprop('DIPOLE', 'QUADRUPOLE', 'MULLIKEN_CHARGES')
f=open( 'psi4out.xyz', 'w' )
f.write( "14  " )
f.write( str(ee) + "\n" )
f.write( MOL.save_string_xyz() )
f.close()
--------------------------------------------------------------------------

    Molecular point group: c1

    Geometry (in Angstrom), charge = 0, multiplicity = 1:

       Center              X                  Y                   Z               Mass
    ------------   -----------------  -----------------  -----------------  -----------------
           H          2.049558195678     1.334754760969    -0.764769154381     1.007825032070
           O          1.168021195678     0.977011760969    -0.805981154381    15.994914619560
           C          1.096779195678    -0.046675239031     0.044088845619    12.000000000000
           C         -0.271847804322    -0.676913239031     0.044184845619    12.000000000000
           O          2.024695195678    -0.387357239031     0.702803845619    15.994914619560
           C         -1.408072804322     0.341363760969     0.043546845619    12.000000000000
           H         -0.327754804322    -1.330674239031    -0.822114154381     1.007825032070
           H         -0.327986804322    -1.329738239031     0.911174845619     1.007825032070
           C         -2.779835804322    -0.331291239031     0.044076845619    12.000000000000
           H         -1.311317804322     0.984686760969    -0.824359154381     1.007825032070
           H         -1.311216804322     0.985939760969     0.910516845619     1.007825032070
           H         -2.913443804322    -0.958564239031    -0.832848154381     1.007825032070
           H         -3.573086804322     0.408891760969     0.043940845619     1.007825032070
           H         -2.913083804322    -0.957829239031     0.921576845619     1.007825032070

  Charge       = 0
  Multiplicity = 1
  Basis Set: 6-31G*
  Basis Set:

    Orbital Energies (a.u.)
    -----------------------

    Doubly Occupied:

       1A    -20.613955     2A    -20.550551     3A    -11.381154
       4A    -11.240258     5A    -11.231062     6A    -11.219793
       7A     -1.475260     8A     -1.365440     9A     -1.086819
      10A     -0.978730    11A     -0.847181    12A     -0.816515
      13A     -0.701126    14A     -0.683859    15A     -0.654214
      16A     -0.623278    17A     -0.591762    18A     -0.565980
      19A     -0.549146    20A     -0.522329    21A     -0.500135
      22A     -0.485197    23A     -0.473991    24A     -0.437525

  @DF-RHF Final Energy:  -305.87865106845436

   => Energetics <=

    Nuclear Repulsion Energy =            241.0451217105620572
    One-Electron Energy =                -894.6570051455712473
    Two-Electron Energy =                 347.7332323665551712
    DFT Exchange-Correlation Energy =       0.0000000000000000
    Empirical Dispersion Energy =           0.0000000000000000
    PCM Polarization Energy =               0.0000000000000000
    EFP Energy =                            0.0000000000000000
    Total Energy =                       -305.8786510684540190

  Mulliken Charges: (a.u.)
   Center  Symbol    Alpha    Beta     Spin     Total
       1     H     0.26745  0.26745  0.00000  0.46510
       2     O     4.34726  4.34726  0.00000 -0.69451
       3     C     2.62650  2.62650  0.00000  0.74700
       4     C     3.20592  3.20592  0.00000 -0.41184
       5     O     4.28018  4.28018  0.00000 -0.56037
       6     C     3.16079  3.16079  0.00000 -0.32157
       7     H     0.40027  0.40027  0.00000  0.19946
       8     H     0.39727  0.39727  0.00000  0.20545
       9     C     3.24231  3.24231  0.00000 -0.48463
      10     H     0.40399  0.40399  0.00000  0.19201
      11     H     0.41491  0.41491  0.00000  0.17019
      12     H     0.41942  0.41942  0.00000  0.16117
      13     H     0.41475  0.41475  0.00000  0.17050
      14     H     0.41899  0.41899  0.00000  0.16203

   Total alpha = 24.00000, Total beta = 24.00000, Total charge =  0.00000
