                              Psi4 1.0.54 Driver

  ==> Input File <==

--------------------------------------------------------------------------
set {
	reference rhf
	basis cc-pvtz
}

set_num_threads( 4 )
memory 2 gb

molecule MOL {
0 1

H	 0.791415	 -2.729817	 2.038052
O	 0.777649	 -2.249229	 1.224061
C	 -0.227451	 -1.379363	 1.265650
C	 -0.318151	 -0.570512	 0.000144
O	 -0.940171	 -1.285577	 2.204374
C	 -1.454884	 0.441630	 -0.000560
H	 0.642262	 -0.084461	 -0.138604
H	 -0.415053	 -1.272374	 -0.821987
C	 -2.822577	 -0.232186	 0.000063
H	 -1.359760	 1.084704	 -0.867077
H	 -1.359641	 1.085996	 0.864983
H	 -2.954352	 -0.858985	 -0.875745
H	 -3.615886	 0.505352	 0.000019
H	 -2.953878	 -0.858359	 0.876394

	symmetry c1
}
set optking {
	frozen_dihedral = ("
		7 4 6 10
	")
}

ee,wfn = optimize('scf', return_wfn=True)
oeprop( wfn, 'DIPOLE', 'QUADRUPOLE', 'MULLIKEN_CHARGES')
f=open( 'psi4out.xyz', 'w' )
f.write( "14  " )
f.write( str(ee) + "\n" )
f.write( MOL.save_string_xyz() )
f.close()
--------------------------------------------------------------------------

    Molecular point group: c1
  Charge       = 0
  Multiplicity = 1
  Basis Set: CC-PVTZ
  Basis Set:
  @DF-RHF Final Energy:  -305.99932858404071
    Total Energy =                       -305.9993285840405406
    Molecular point group: c1
  Basis Set: CC-PVTZ
  Basis Set:
  Basis Set: CC-PVTZ
  Basis Set:
  @DF-RHF Final Energy:  -306.00003805111817
    Total Energy =                       -306.0000380511183380
  Basis Set: CC-PVTZ
  Basis Set:
  Basis Set: CC-PVTZ
  Basis Set:
  @DF-RHF Final Energy:  -305.99825026574842
    Total Energy =                       -305.9982502657485384
  Basis Set: CC-PVTZ
  Basis Set:
  Basis Set: CC-PVTZ
  Basis Set:
  @DF-RHF Final Energy:  -306.00023962007492
    Total Energy =                       -306.0002396200748080
  Basis Set: CC-PVTZ
  Basis Set:
  Basis Set: CC-PVTZ
  Basis Set:
  @DF-RHF Final Energy:  -306.00033587551184
    Total Energy =                       -306.0003358755117233
  Basis Set: CC-PVTZ
  Basis Set:
  Basis Set: CC-PVTZ
  Basis Set:
  @DF-RHF Final Energy:  -306.00036735825216
    Total Energy =                       -306.0003673582523334
  Basis Set: CC-PVTZ
  Basis Set:
  Basis Set: CC-PVTZ
  Basis Set:
  @DF-RHF Final Energy:  -306.00037078769361
    Total Energy =                       -306.0003707876936687
  Basis Set: CC-PVTZ
  Basis Set:
  Charge       = 0
  Multiplicity = 1
  Basis Set: CC-PVTZ
  Basis Set:

    Orbital Energies (a.u.)
    -----------------------

    Doubly Occupied:

       1A    -20.605272     2A    -20.541269     3A    -11.374740
       4A    -11.240105     5A    -11.224662     6A    -11.208976
       7A     -1.478830     8A     -1.370093     9A     -1.082884
      10A     -0.977377    11A     -0.863112    12A     -0.788925
      13A     -0.706217    14A     -0.694624    15A     -0.662765
      16A     -0.614696    17A     -0.596874    18A     -0.568167
      19A     -0.558491    20A     -0.497897    21A     -0.491183
      22A     -0.486557    23A     -0.481571    24A     -0.445912

  @DF-RHF Final Energy:  -306.00037099334770

   => Energetics <=

    Nuclear Repulsion Energy =            244.9748939082461163
    One-Electron Energy =                -902.8281371983546251
    Two-Electron Energy =                 351.8528722967608360
    DFT Exchange-Correlation Energy =       0.0000000000000000
    Empirical Dispersion Energy =           0.0000000000000000
    PCM Polarization Energy =               0.0000000000000000
    EFP Energy =                            0.0000000000000000
    Total Energy =                       -306.0003709933476443
    Molecular point group: c1
  Basis Set: CC-PVTZ
  Basis Set:

  -Total Gradient:
     Atom            X                  Y                   Z
    ------   -----------------  -----------------  -----------------
       1        0.000001305595     0.000006008549    -0.000009404393
       2        0.000013470248    -0.000026568778    -0.000002583978
       3       -0.000005105876     0.000019421419     0.000024091167
       4       -0.000159113150    -0.000126732798    -0.000644949536
       5       -0.000008154735     0.000000732248     0.000001083464
       6        0.000343896037     0.000369365501     0.000426893859
       7        0.000050170614     0.000052927377     0.000456205162
       8        0.000007900745    -0.000003611352    -0.000002945922
       9        0.000015588751    -0.000010423041    -0.000020530155
      10       -0.000265356961    -0.000283179350    -0.000241799868
      11       -0.000000011595     0.000006338422     0.000002527789
      12       -0.000001252602    -0.000005754230    -0.000000278777
      13        0.000011366554     0.000000625057    -0.000000051656
      14       -0.000004703624     0.000000850975     0.000011742847

  **** Optimization is complete! (in 8 steps) ****
    Final optimized geometry and variables:
    Molecular point group: c1

    Geometry (in Angstrom), charge = 0, multiplicity = 1:

    H            1.503046814757    -1.933605296122     1.169274663913
    O            1.427885170242    -1.499314124704     0.332815458840
    C            0.611171959680    -0.459447090669     0.471001203971
    C            0.477580881044     0.320846028757    -0.810718677342
    O            0.095611581367    -0.198274747082     1.502905948146
    C           -0.655105180376     1.341104191942    -0.809438678762
    H            1.435430855895     0.812633770923    -0.952653574195
    H            0.378394417625    -0.385592197443    -1.626349659578
    C           -2.046059042511     0.714011750940    -0.831098317717
    H           -0.535598918168     1.969976473442    -1.685248696933
    H           -0.555748327855     1.982187738103     0.057290936677
    H           -2.177369262310     0.087059969310    -1.707501378768
    H           -2.810065776370     1.481809558174    -0.859130312704
    H           -2.218382730915     0.107882931304     0.048637865163

  Mulliken Charges: (a.u.)
   Center  Symbol    Alpha    Beta     Spin     Total
       1     H     0.38195  0.38195  0.00000  0.23609
       2     O     4.15959  4.15959  0.00000 -0.31918
       3     C     2.80498  2.80498  0.00000  0.39005
       4     C     3.11131  3.11131  0.00000 -0.22262
       5     O     4.19323  4.19323  0.00000 -0.38645
       6     C     3.08398  3.08398  0.00000 -0.16796
       7     H     0.43346  0.43346  0.00000  0.13307
       8     H     0.43680  0.43680  0.00000  0.12639
       9     C     3.15275  3.15275  0.00000 -0.30550
      10     H     0.44724  0.44724  0.00000  0.10551
      11     H     0.44568  0.44568  0.00000  0.10865
      12     H     0.45747  0.45747  0.00000  0.08506
      13     H     0.44750  0.44750  0.00000  0.10500
      14     H     0.44405  0.44405  0.00000  0.11189

   Total alpha = 24.00000, Total beta = 24.00000, Total charge = -0.00000

*** Psi4 exiting successfully. Buy a developer a beer!
