  ==> Input File <==

--------------------------------------------------------------------------
set {
	reference rhf
	basis 6-31G*
}

set_num_threads( 1 )
memory 2 gb

molecule MOL {
0 1

H	 -2.428262	 1.135069	 1.496702
C	 -1.760116	 1.572041	 2.236146
O	 -0.440101	 1.191169	 2.017433
H	 -1.806186	 2.649369	 2.156237
H	 -2.103007	 1.278145	 3.227346
C	 -0.222336	 -0.182021	 2.096015
C	 1.213683	 -0.481408	 1.734873
H	 -0.419375	 -0.538803	 3.107735
H	 -0.882118	 -0.718071	 1.416793
O	 1.392611	 -0.295398	 0.366430
H	 1.870503	 0.173602	 2.303693
H	 1.445261	 -1.511165	 2.009944
C	 2.706965	 -0.449871	 -0.062409
H	 2.756559	 -0.644779	 -1.131878
H	 3.305899	 0.433456	 0.155466
H	 3.125548	 -1.294566	 0.467107

	symmetry c1
}
set optking {
	frozen_dihedral = ("
		3 6 7 11,
		2 3 6 7
	")
}

ee = energy('scf')
oeprop('DIPOLE', 'QUADRUPOLE', 'MULLIKEN_CHARGES')
f=open( 'psi4out.xyz', 'w' )
f.write( "16  " )
f.write( str(ee) + "\n" )
f.write( MOL.save_string_xyz() )
f.close()
--------------------------------------------------------------------------

    Molecular point group: c1

    Geometry (in Angstrom), charge = 0, multiplicity = 1:

       Center              X                  Y                   Z               Mass
    ------------   -----------------  -----------------  -----------------  -----------------
           H         -2.910081505029     0.904105272815     0.103163436610     1.007825032070
           C         -2.241935505029     1.341077272815     0.842607436610    12.000000000000
           O         -0.921920505029     0.960205272815     0.623894436610    15.994914619560
           H         -2.288005505029     2.418405272815     0.762698436610     1.007825032070
           H         -2.584826505029     1.047181272815     1.833807436610     1.007825032070
           C         -0.704155505029    -0.412984727185     0.702476436610    12.000000000000
           C          0.731863494971    -0.712371727185     0.341334436610    12.000000000000
           H         -0.901194505029    -0.769766727185     1.714196436610     1.007825032070
           H         -1.363937505029    -0.949034727185     0.023254436610     1.007825032070
           O          0.910791494971    -0.526361727185    -1.027108563390    15.994914619560
           H          1.388683494971    -0.057361727185     0.910154436610     1.007825032070
           H          0.963441494971    -1.742128727185     0.616405436610     1.007825032070
           C          2.225145494971    -0.680834727185    -1.455947563390    12.000000000000
           H          2.274739494971    -0.875742727185    -2.525416563390     1.007825032070
           H          2.824079494971     0.202492272815    -1.238072563390     1.007825032070
           H          2.643728494971    -1.525529727185    -0.926431563390     1.007825032070

  Charge       = 0
  Multiplicity = 1
  Basis Set: 6-31G*
  Basis Set:

    Orbital Energies (a.u.)
    -----------------------

    Doubly Occupied:

       1A    -20.553576     2A    -20.551792     3A    -11.269629
       4A    -11.268766     5A    -11.263741     6A    -11.263513
       7A     -1.388040     8A     -1.370404     9A     -1.030593
      10A     -0.935461    11A     -0.892425    12A     -0.824680
      13A     -0.684030    14A     -0.680652    15A     -0.657233
      16A     -0.634695    17A     -0.629231    18A     -0.598884
      19A     -0.550417    20A     -0.536878    21A     -0.509118
      22A     -0.476790    23A     -0.462068    24A     -0.418777
      25A     -0.409740

  @DF-RHF Final Energy:  -306.97559140206414

   => Energetics <=

    Nuclear Repulsion Energy =            258.8953364204700733
    One-Electron Energy =                -932.0194876841694622
    Two-Electron Energy =                 366.1485598616346806
    DFT Exchange-Correlation Energy =       0.0000000000000000
    Empirical Dispersion Energy =           0.0000000000000000
    PCM Polarization Energy =               0.0000000000000000
    EFP Energy =                            0.0000000000000000
    Total Energy =                       -306.9755914020646514

  Mulliken Charges: (a.u.)
   Center  Symbol    Alpha    Beta     Spin     Total
       1     H     0.42803  0.42803  0.00000  0.14393
       2     C     3.07955  3.07955  0.00000 -0.15909
       3     O     4.30080  4.30080  0.00000 -0.60159
       4     H     0.41127  0.41127  0.00000  0.17747
       5     H     0.43191  0.43191  0.00000  0.13617
       6     C     2.99306  2.99306  0.00000  0.01388
       7     C     2.99426  2.99426  0.00000  0.01147
       8     H     0.43227  0.43227  0.00000  0.13545
       9     H     0.42263  0.42263  0.00000  0.15474
      10     O     4.30216  4.30216  0.00000 -0.60432
      11     H     0.42262  0.42262  0.00000  0.15477
      12     H     0.43179  0.43179  0.00000  0.13642
      13     C     3.07734  3.07734  0.00000 -0.15467
      14     H     0.41336  0.41336  0.00000  0.17328
      15     H     0.42593  0.42593  0.00000  0.14814
      16     H     0.43302  0.43302  0.00000  0.13396

   Total alpha = 25.00000, Total beta = 25.00000, Total charge =  0.00000
