  ==> Input File <==

--------------------------------------------------------------------------
set {
	reference rhf
	basis cc-pvtz
}

set_num_threads( 4 )
memory 2 gb

molecule MOL {
0 1

H	 -1.849047	 -0.926226	 -0.206717
O	 -2.041679	 -0.058866	 0.103463
C	 -0.959304	 0.780994	 -0.094939
C	 0.354905	 0.037902	 -0.006215
H	 -0.985899	 1.279578	 -1.057596
H	 -0.969809	 1.529522	 0.682889
F	 0.412060	 -0.931028	 -0.902708
F	 1.359641	 0.856111	 -0.239961
F	 0.545380	 -0.506387	 1.171682

	symmetry c1
}
set optking {
	frozen_dihedral = ("
		1 2 3 5
	")
}

ee = optimize('scf')
oeprop('DIPOLE', 'QUADRUPOLE', 'MULLIKEN_CHARGES')
f=open( 'psi4out.xyz', 'w' )
f.write( "9  " )
f.write( str(ee) + "\n" )
f.write( MOL.save_string_xyz() )
f.close()
--------------------------------------------------------------------------

    Molecular point group: c1
  Charge       = 0
  Multiplicity = 1
  Basis Set: CC-PVTZ
  Basis Set:
  @DF-RHF Final Energy:  -450.84503835407565
    Total Energy =                       -450.8450383540755979
    Molecular point group: c1
  Basis Set: CC-PVTZ
  Basis Set:
  Basis Set: CC-PVTZ
  Basis Set:
  @DF-RHF Final Energy:  -450.84518158705259
    Total Energy =                       -450.8451815870523660
  Basis Set: CC-PVTZ
  Basis Set:
  Basis Set: CC-PVTZ
  Basis Set:
  @DF-RHF Final Energy:  -450.84522111006174
    Total Energy =                       -450.8452211100618001
  Basis Set: CC-PVTZ
  Basis Set:
  Charge       = 0
  Multiplicity = 1
  Basis Set: CC-PVTZ
  Basis Set:

    Orbital Energies (a.u.)
    -----------------------

    Doubly Occupied:

       1A    -26.345570     2A    -26.344766     3A    -26.341240
       4A    -20.581697     5A    -11.500233     6A    -11.309732
       7A     -1.753641     8A     -1.651036     9A     -1.648011
      10A     -1.404887    11A     -1.053167    12A     -0.934001
      13A     -0.843031    14A     -0.841931    15A     -0.820700
      16A     -0.728251    17A     -0.724404    18A     -0.693704
      19A     -0.676616    20A     -0.673093    21A     -0.654829
      22A     -0.640580    23A     -0.626782    24A     -0.529914
      25A     -0.482712

  @DF-RHF Final Energy:  -450.84522281632701

   => Energetics <=

    Nuclear Repulsion Energy =            277.9470666777145880
    One-Electron Energy =               -1177.9755228014205386
    Two-Electron Energy =                 449.1832333073787709
    DFT Exchange-Correlation Energy =       0.0000000000000000
    Empirical Dispersion Energy =           0.0000000000000000
    PCM Polarization Energy =               0.0000000000000000
    EFP Energy =                            0.0000000000000000
    Total Energy =                       -450.8452228163271798
    Molecular point group: c1
  Basis Set: CC-PVTZ
  Basis Set:

  -Total Gradient:
     Atom            X                  Y                   Z
    ------   -----------------  -----------------  -----------------
       1        0.001178653294    -0.000837309397     0.002897566405
       2       -0.001925590724     0.001695495296    -0.003208373443
       3        0.002208196534    -0.003045346256    -0.000961825449
       4       -0.000158121714    -0.000024204759     0.000173784437
       5       -0.001397494090     0.002137647113     0.001225051614
       6       -0.000002548022    -0.000027017424     0.000019299944
       7        0.000011661355     0.000037032119     0.000196300804
       8        0.000139861521     0.000129609097    -0.000094404966
       9       -0.000054618156    -0.000065905784    -0.000247399344

  **** Optimization is complete! (in 4 steps) ****
    Final optimized geometry and variables:
    Molecular point group: c1

    Geometry (in Angstrom), charge = 0, multiplicity = 1:

    H           -1.885437177048    -0.923389169136    -0.242614855051
    O           -2.055375059627    -0.058478424121     0.087123879972
    C           -0.962526986978     0.775500371706    -0.095537681946
    C            0.355409101109     0.043862390701    -0.009832464132
    H           -1.001166762112     1.291779068313    -1.048123788776
    H           -0.969846030986     1.519884599266     0.687978315315
    F            0.408104682234    -0.945854681762    -0.884944133695
    F            1.352748460225     0.859675769824    -0.266459985713
    F            0.557635917691    -0.482292339440     1.176584113391

  Mulliken Charges: (a.u.)
   Center  Symbol    Alpha    Beta     Spin     Total
       1     H     0.38656  0.38656  0.00000  0.22687
       2     O     4.19446  4.19446  0.00000 -0.38892
       3     C     2.97572  2.97572  0.00000  0.04857
       4     C     2.68821  2.68821  0.00000  0.62358
       5     H     0.46514  0.46514  0.00000  0.06973
       6     H     0.45494  0.45494  0.00000  0.09012
       7     F     4.61764  4.61764  0.00000 -0.23528
       8     F     4.60870  4.60870  0.00000 -0.21739
       9     F     4.60864  4.60864  0.00000 -0.21728

   Total alpha = 25.00000, Total beta = 25.00000, Total charge =  0.00000
