  ==> Input File <==

--------------------------------------------------------------------------
set {
	reference rhf
	basis 6-31G*
}

set_num_threads( 1 )
memory 2 gb

molecule MOL {
0 1

O	 -2.821601	 1.309235	 -0.001213
C	 -2.668563	 0.129746	 -0.000350
C	 -3.801572	 -0.864014	 -0.000442
O	 -1.481751	 -0.454642	 0.000584
H	 -4.417280	 -0.689587	 -0.874708
H	 -3.443784	 -1.883046	 -0.000565
H	 -4.417179	 -0.689832	 0.873954
C	 -0.334255	 0.388708	 0.000906
C	 0.891947	 -0.504646	 0.000751
H	 -0.365390	 1.025305	 -0.873475
H	 -0.365484	 1.024911	 0.875569
C	 2.191998	 0.301789	 0.000897
H	 0.855148	 -1.151283	 -0.871571
H	 0.855132	 -1.151660	 0.872805
C	 1.956851	 1.811382	 -0.077583
H	 2.760904	 0.074639	 0.900806
H	 2.812229	 -0.007808	 -0.838475
C	 3.255335	 2.616866	 -0.076080
H	 1.337506	 2.122524	 0.760676
H	 1.390452	 2.040410	 -0.977476
H	 3.828822	 2.434803	 0.828343
H	 3.056151	 3.682417	 -0.132303
H	 3.882000	 2.352333	 -0.923029

	symmetry c1
}
set optking {
	frozen_dihedral = ("
		13 9 8 10,
		2 4 8 10,
		19 15 12 16,
		1 2 4 8
	")
}

ee = energy('scf')
oeprop('DIPOLE', 'QUADRUPOLE', 'MULLIKEN_CHARGES')
f=open( 'psi4out.xyz', 'w' )
f.write( "23  " )
f.write( str(ee) + "\n" )
f.write( MOL.save_string_xyz() )
f.close()
--------------------------------------------------------------------------

    Molecular point group: c1

    Geometry (in Angstrom), charge = 0, multiplicity = 1:

       Center              X                  Y                   Z               Mass
    ------------   -----------------  -----------------  -----------------  -----------------
           O         -2.490309379157     0.775157848237     0.015814683047    15.994914619560
           C         -2.337271379157    -0.404331151763     0.016677683047    12.000000000000
           C         -3.470280379157    -1.398091151763     0.016585683047    12.000000000000
           O         -1.150459379157    -0.988719151763     0.017611683047    15.994914619560
           H         -4.085988379157    -1.223664151763    -0.857680316953     1.007825032070
           H         -3.112492379157    -2.417123151763     0.016462683047     1.007825032070
           H         -4.085887379157    -1.223909151763     0.890981683047     1.007825032070
           C         -0.002963379157    -0.145369151763     0.017933683047    12.000000000000
           C          1.223238620843    -1.038723151763     0.017778683047    12.000000000000
           H         -0.034098379157     0.491227848237    -0.856447316953     1.007825032070
           H         -0.034192379157     0.490833848237     0.892596683047     1.007825032070
           C          2.523289620843    -0.232288151763     0.017924683047    12.000000000000
           H          1.186439620843    -1.685360151763    -0.854543316953     1.007825032070
           H          1.186423620843    -1.685737151763     0.889832683047     1.007825032070
           C          2.288142620843     1.277304848237    -0.060555316953    12.000000000000
           H          3.092195620843    -0.459438151763     0.917833683047     1.007825032070
           H          3.143520620843    -0.541885151763    -0.821447316953     1.007825032070
           C          3.586626620843     2.082788848237    -0.059052316953    12.000000000000
           H          1.668797620843     1.588446848237     0.777703683047     1.007825032070
           H          1.721743620843     1.506332848237    -0.960448316953     1.007825032070
           H          4.160113620843     1.900725848237     0.845370683047     1.007825032070
           H          3.387442620843     3.148339848237    -0.115275316953     1.007825032070
           H          4.213291620843     1.818255848237    -0.906001316953     1.007825032070

  Charge       = 0
  Multiplicity = 1
  Basis Set: 6-31G*
  Basis Set:

    Orbital Energies (a.u.)
    -----------------------

    Doubly Occupied:

       1A    -20.601396     2A    -20.539862     3A    -11.373377
       4A    -11.279426     5A    -11.231907     6A    -11.222570
       7A    -11.221861     8A    -11.220730     9A    -11.211994
      10A     -1.466849    11A     -1.359875    12A     -1.099031
      13A     -1.037088    14A     -1.001174    15A     -0.930685
      16A     -0.857910    17A     -0.791405    18A     -0.770630
      19A     -0.693494    20A     -0.684639    21A     -0.665171
      22A     -0.645416    23A     -0.602112    24A     -0.588514
      25A     -0.579091    26A     -0.570613    27A     -0.570090
      28A     -0.525127    29A     -0.523795    30A     -0.517645
      31A     -0.503132    32A     -0.473461    33A     -0.464185
      34A     -0.457977    35A     -0.441352    36A     -0.435524

  @DF-RHF Final Energy:  -422.96487778974233

   => Energetics <=

    Nuclear Repulsion Energy =            462.2381637338025939
    One-Electron Energy =               -1492.0879681358910602
    Two-Electron Energy =                 606.8849266123447705
    DFT Exchange-Correlation Energy =       0.0000000000000000
    Empirical Dispersion Energy =           0.0000000000000000
    PCM Polarization Energy =               0.0000000000000000
    EFP Energy =                            0.0000000000000000
    Total Energy =                       -422.9648777897436958

  Mulliken Charges: (a.u.)
   Center  Symbol    Alpha    Beta     Spin     Total
       1     O     4.28447  4.28447  0.00000 -0.56894
       2     C     2.61579  2.61579  0.00000  0.76843
       3     C     3.28781  3.28781  0.00000 -0.57561
       4     O     4.31594  4.31594  0.00000 -0.63188
       5     H     0.39769  0.39769  0.00000  0.20462
       6     H     0.39986  0.39986  0.00000  0.20029
       7     H     0.39769  0.39769  0.00000  0.20462
       8     C     2.99876  2.99876  0.00000  0.00248
       9     C     3.16652  3.16652  0.00000 -0.33305
      10     H     0.40857  0.40857  0.00000  0.18287
      11     H     0.40902  0.40902  0.00000  0.18196
      12     C     3.15919  3.15919  0.00000 -0.31839
      13     H     0.41187  0.41187  0.00000  0.17625
      14     H     0.41165  0.41165  0.00000  0.17670
      15     C     3.16661  3.16661  0.00000 -0.33322
      16     H     0.41774  0.41774  0.00000  0.16451
      17     H     0.41745  0.41745  0.00000  0.16509
      18     C     3.23627  3.23627  0.00000 -0.47254
      19     H     0.41834  0.41834  0.00000  0.16331
      20     H     0.41874  0.41874  0.00000  0.16251
      21     H     0.42136  0.42136  0.00000  0.15728
      22     H     0.41726  0.41726  0.00000  0.16547
      23     H     0.42139  0.42139  0.00000  0.15723

   Total alpha = 36.00000, Total beta = 36.00000, Total charge = -0.00000
