                              Psi4 1.0.54 Driver

  ==> Input File <==

--------------------------------------------------------------------------
set {
	reference rhf
	basis cc-pvtz
}

set_num_threads( 4 )
memory 2 gb

molecule MOL {
0 1

H	 3.889604	 0.356866	 -0.089510
N	 3.091268	 -0.241216	 -0.065538
C	 1.860978	 0.530248	 0.016256
H	 3.192566	 -0.835836	 0.730398
C	 0.644130	 -0.381765	 -0.031064
H	 1.835721	 1.204666	 -0.833114
H	 1.808789	 1.151975	 0.911067
C	 -0.678115	 0.376691	 0.025731
H	 0.693998	 -0.977147	 -0.936845
H	 0.693309	 -1.082142	 0.800523
C	 -0.566134	 1.822981	 -0.448514
H	 -1.055999	 0.364567	 1.045540
H	 -1.419978	 -0.140076	 -0.578805
C	 -1.888649	 2.579609	 -0.384152
H	 0.174920	 2.340903	 0.153889
H	 -0.192323	 1.837764	 -1.468719
H	 -2.271654	 2.612694	 0.630467
H	 -1.774038	 3.601484	 -0.727140
H	 -2.641866	 2.105271	 -1.004639

	symmetry c1
}
set optking {
	frozen_dihedral = ("
		12 8 5 9
	")
}

ee,wfn = optimize('scf', return_wfn=True)
oeprop( wfn, 'DIPOLE', 'QUADRUPOLE', 'MULLIKEN_CHARGES')
f=open( 'psi4out.xyz', 'w' )
f.write( "19  " )
f.write( str(ee) + "\n" )
f.write( MOL.save_string_xyz() )
f.close()
--------------------------------------------------------------------------

    Molecular point group: c1
  Charge       = 0
  Multiplicity = 1
  Basis Set: CC-PVTZ
  Basis Set:
  @DF-RHF Final Energy:  -251.43789601921333
    Total Energy =                       -251.4378960192132695
    Molecular point group: c1
  Basis Set: CC-PVTZ
  Basis Set:
  Basis Set: CC-PVTZ
  Basis Set:
  @DF-RHF Final Energy:  -251.43800079983438
    Total Energy =                       -251.4380007998343558
  Basis Set: CC-PVTZ
  Basis Set:
  Basis Set: CC-PVTZ
  Basis Set:
  @DF-RHF Final Energy:  -251.44125020551402
    Total Energy =                       -251.4412502055141658
  Basis Set: CC-PVTZ
  Basis Set:
  Basis Set: CC-PVTZ
  Basis Set:
  @DF-RHF Final Energy:  -251.44154902510817
    Total Energy =                       -251.4415490251079177
  Basis Set: CC-PVTZ
  Basis Set:
  Basis Set: CC-PVTZ
  Basis Set:
  @DF-RHF Final Energy:  -251.44157363004021
    Total Energy =                       -251.4415736300403523
  Basis Set: CC-PVTZ
  Basis Set:
  Basis Set: CC-PVTZ
  Basis Set:
  @DF-RHF Final Energy:  -251.44158488371548
    Total Energy =                       -251.4415848837156773
  Basis Set: CC-PVTZ
  Basis Set:
  Basis Set: CC-PVTZ
  Basis Set:
  @DF-RHF Final Energy:  -251.44158797826907
    Total Energy =                       -251.4415879782688990
  Basis Set: CC-PVTZ
  Basis Set:
  Charge       = 0
  Multiplicity = 1
  Basis Set: CC-PVTZ
  Basis Set:

    Orbital Energies (a.u.)
    -----------------------

    Doubly Occupied:

       1A    -15.526254     2A    -11.237774     3A    -11.212577
       4A    -11.210883     5A    -11.208144     6A    -11.205864
       7A     -1.178204     8A     -1.072070     9A     -0.996563
      10A     -0.900553    11A     -0.835907    12A     -0.769561
      13A     -0.665127    14A     -0.640290    15A     -0.614674
      16A     -0.591917    17A     -0.572434    18A     -0.550739
      19A     -0.525495    20A     -0.502701    21A     -0.490631
      22A     -0.459192    23A     -0.454058    24A     -0.447998
      25A     -0.383463

  @DF-RHF Final Energy:  -251.44158825183342

   => Energetics <=

    Nuclear Repulsion Energy =            249.7237716964945093
    One-Electron Energy =                -833.8245665282777281
    Two-Electron Energy =                 332.6592065799496822
    DFT Exchange-Correlation Energy =       0.0000000000000000
    Empirical Dispersion Energy =           0.0000000000000000
    PCM Polarization Energy =               0.0000000000000000
    EFP Energy =                            0.0000000000000000
    Total Energy =                       -251.4415882518335366
    Molecular point group: c1
  Basis Set: CC-PVTZ
  Basis Set:

  -Total Gradient:
     Atom            X                  Y                   Z
    ------   -----------------  -----------------  -----------------
       1        0.000001808004    -0.000007536698     0.000002878892
       2        0.000012874623    -0.000008203291     0.000016881607
       3       -0.000004811589     0.000002557760    -0.000009367325
       4        0.000009101926    -0.000004267155    -0.000001806720
       5        0.002453968325     0.004778872546    -0.004066317278
       6       -0.000017031865     0.000004455294     0.000002458170
       7        0.000000155587    -0.000000487282    -0.000002462645
       8        0.003308071998     0.005281846516     0.002257664752
       9       -0.002577002890    -0.004833384024     0.003023867867
      10        0.000002594876     0.000011240102    -0.000006396215
      11       -0.000007682569    -0.000017247022    -0.000039115183
      12       -0.003193131263    -0.005222639818    -0.001187225501
      13        0.000005999125     0.000017415842     0.000002380353
      14       -0.000000137959     0.000000373885     0.000005229642
      15       -0.000003586875    -0.000007272784     0.000002285975
      16        0.000004239206     0.000008743565    -0.000006696609
      17       -0.000003486441    -0.000000166665     0.000000929126
      18        0.000002237691    -0.000005969452     0.000003394584
      19        0.000005820086     0.000001668684     0.000001416508

  **** Optimization is complete! (in 8 steps) ****
    Final optimized geometry and variables:
    Molecular point group: c1

    Geometry (in Angstrom), charge = 0, multiplicity = 1:

    H            3.530358626399    -0.643744971108     0.137639697996
    N            2.680050831578    -1.164978484397     0.108458940110
    C            1.523738273940    -0.285823852642     0.184026012132
    H            2.696747217942    -1.800738473236     0.878368655196
    C            0.241357403113    -1.096262115744     0.067980859354
    H            1.595296152529     0.419795194042    -0.634402493012
    H            1.498342093987     0.300693667546     1.103568753646
    C           -1.081191097370    -0.315290952423     0.187485013792
    H            0.255162210328    -1.676102506455    -0.848017822698
    H            0.252476566450    -1.845097162497     0.857479303224
    C           -1.087877172214     1.115770090431    -0.344100739624
    H           -1.428197225947    -0.337815959015     1.216876462058
    H           -1.837378211521    -0.875424893839    -0.356603170708
    C           -2.468133957502     1.759772143501    -0.261249521281
    H           -0.380213704545     1.724899465817     0.208174820786
    H           -0.753561295909     1.119102485835    -1.377951947242
    H           -2.821486121051     1.795868490779     0.764035416712
    H           -2.451203929496     2.775051881661    -0.640718574037
    H           -3.196226717501     1.201919353333    -0.840568341185

  Mulliken Charges: (a.u.)
   Center  Symbol    Alpha    Beta     Spin     Total
       1     H     0.43021  0.43021  0.00000  0.13958
       2     N     3.69013  3.69013  0.00000 -0.38027
       3     C     3.02848  3.02848  0.00000 -0.05696
       4     H     0.43103  0.43103  0.00000  0.13794
       5     C     3.08882  3.08882  0.00000 -0.17763
       6     H     0.45331  0.45331  0.00000  0.09338
       7     H     0.46663  0.46663  0.00000  0.06675
       8     C     3.09811  3.09811  0.00000 -0.19623
       9     H     0.44662  0.44662  0.00000  0.10676
      10     H     0.45830  0.45830  0.00000  0.08339
      11     C     3.09035  3.09035  0.00000 -0.18069
      12     H     0.45317  0.45317  0.00000  0.09367
      13     H     0.45204  0.45204  0.00000  0.09593
      14     C     3.15019  3.15019  0.00000 -0.30038
      15     H     0.45240  0.45240  0.00000  0.09521
      16     H     0.45189  0.45189  0.00000  0.09623
      17     H     0.45540  0.45540  0.00000  0.08920
      18     H     0.44843  0.44843  0.00000  0.10314
      19     H     0.45451  0.45451  0.00000  0.09099

   Total alpha = 25.00000, Total beta = 25.00000, Total charge = -0.00000

*** Psi4 exiting successfully. Buy a developer a beer!
