  ==> Input File <==

--------------------------------------------------------------------------
set {
	reference rhf
	basis 6-31G*
}

set_num_threads( 4 )
memory 2 gb

molecule MOL {
0 1

O	 0.074228	 1.262779	 -0.000085
C	 0.028650	 0.075053	 -0.000277
C	 -1.233602	 -0.752807	 0.000328
O	 1.109162	 -0.694619	 -0.000298
C	 -2.501530	 0.091881	 0.000126
H	 -1.193807	 -1.406641	 -0.865785
H	 -1.193516	 -1.405779	 0.867015
H	 -2.545121	 0.729328	 -0.874513
H	 -3.377167	 -0.548497	 0.000561
H	 -2.544818	 0.730135	 0.874258
C	 2.193234	 -0.280310	 -0.811917
H	 1.894266	 -0.231796	 -1.849066
H	 2.962707	 -1.024669	 -0.678856
H	 2.552416	 0.689784	 -0.499866

	symmetry c1
}
set optking {
	frozen_dihedral = ("
		11 4 2 3
	")
}

ee = optimize('scf')
oeprop('DIPOLE', 'QUADRUPOLE', 'MULLIKEN_CHARGES')
f=open( 'psi4out.xyz', 'w' )
f.write( "14  " )
f.write( str(ee) + "\n" )
f.write( MOL.save_string_xyz() )
f.close()
--------------------------------------------------------------------------

    Molecular point group: c1
  Charge       = 0
  Multiplicity = 1
  Basis Set: 6-31G*
  Basis Set:
  @DF-RHF Final Energy:  -305.86366463111449
    Total Energy =                       -305.8636646311146023
    Molecular point group: c1
  Basis Set: 6-31G*
  Basis Set:
  Basis Set: 6-31G*
  Basis Set:
  @DF-RHF Final Energy:  -305.86102209204631
    Total Energy =                       -305.8610220920463121
  Basis Set: 6-31G*
  Basis Set:
  Basis Set: 6-31G*
  Basis Set:
  @DF-RHF Final Energy:  -305.86427381401597
    Total Energy =                       -305.8642738140159167
  Basis Set: 6-31G*
  Basis Set:
  Basis Set: 6-31G*
  Basis Set:
  @DF-RHF Final Energy:  -305.86443106201011
    Total Energy =                       -305.8644310620101123
  Basis Set: 6-31G*
  Basis Set:
  Basis Set: 6-31G*
  Basis Set:
  @DF-RHF Final Energy:  -305.86446962883753
    Total Energy =                       -305.8644696288374689
  Basis Set: 6-31G*
  Basis Set:
  Basis Set: 6-31G*
  Basis Set:
  @DF-RHF Final Energy:  -305.86447161604912
    Total Energy =                       -305.8644716160492862
  Basis Set: 6-31G*
  Basis Set:
  Charge       = 0
  Multiplicity = 1
  Basis Set: 6-31G*
  Basis Set:

    Orbital Energies (a.u.)
    -----------------------

    Doubly Occupied:

       1A    -20.597220     2A    -20.549986     3A    -11.374237
       4A    -11.284633     5A    -11.240156     6A    -11.217476
       7A     -1.465829     8A     -1.364725     9A     -1.063869
      10A     -0.978820    11A     -0.882578    12A     -0.767461
      13A     -0.700205    14A     -0.678943    15A     -0.672294
      16A     -0.621053    17A     -0.606009    18A     -0.552376
      19A     -0.539638    20A     -0.520927    21A     -0.510367
      22A     -0.496633    23A     -0.456113    24A     -0.437666

  @DF-RHF Final Energy:  -305.86447181252504

   => Energetics <=

    Nuclear Repulsion Energy =            246.8126036986211886
    One-Electron Energy =                -906.1957199319608662
    Two-Electron Energy =                 353.5186444208143826
    DFT Exchange-Correlation Energy =       0.0000000000000000
    Empirical Dispersion Energy =           0.0000000000000000
    PCM Polarization Energy =               0.0000000000000000
    EFP Energy =                            0.0000000000000000
    Total Energy =                       -305.8644718125253235
    Molecular point group: c1
  Basis Set: 6-31G*
  Basis Set:

  -Total Gradient:
     Atom            X                  Y                   Z
    ------   -----------------  -----------------  -----------------
       1        0.000011392119    -0.000036312382     0.000040189572
       2       -0.001734941171    -0.001269975769     0.007288447022
       3        0.000251453708    -0.000726176365    -0.007124482888
       4        0.004143965349     0.006877346163     0.005580805643
       5       -0.000002823852    -0.000014380645    -0.000005117267
       6       -0.000005731288     0.000007954045    -0.000006698637
       7        0.000002372030     0.000013340821    -0.000005887055
       8        0.000005245941    -0.000000533408    -0.000006689560
       9        0.000001191573     0.000004196671     0.000003591940
      10       -0.000007033000     0.000001308161     0.000006988673
      11       -0.002673813515    -0.004885472670    -0.005773831557
      12       -0.000002069073     0.000008803888     0.000001058930
      13        0.000007101388     0.000007493560     0.000000517833
      14        0.000003689790     0.000012407926     0.000001107351

  **** Optimization is complete! (in 7 steps) ****
    Final optimized geometry and variables:
    Molecular point group: c1

    Geometry (in Angstrom), charge = 0, multiplicity = 1:

    O            0.080476480671     1.300834550242    -0.095184861786
    C            0.049252311974     0.133136696849     0.112615995602
    C           -1.203191095364    -0.707355333016     0.146644966685
    O            1.149520945997    -0.614619874183     0.233063758822
    C           -2.482634006303     0.113969266733     0.242280837940
    H           -1.183509800650    -1.297659668947    -0.766391293726
    H           -1.121096719304    -1.419414265659     0.961209100291
    H           -2.561559616320     0.807980273997    -0.584887041045
    H           -3.349166596238    -0.538382509985     0.228202032396
    H           -2.507699493404     0.690439346218     1.159930906581
    C            2.257681687215    -0.259824294095    -0.574036798339
    H            1.971413947800    -0.252258535989    -1.618111213046
    H            3.005478133785    -1.018685863919    -0.404579466908
    H            2.643408526657     0.711050092797    -0.300425653815

  Mulliken Charges: (a.u.)
   Center  Symbol    Alpha    Beta     Spin     Total
       1     O     4.27545  4.27545  0.00000 -0.55090
       2     C     2.60830  2.60830  0.00000  0.78340
       3     C     3.20584  3.20584  0.00000 -0.41169
       4     O     4.31080  4.31080  0.00000 -0.62159
       5     C     3.24068  3.24068  0.00000 -0.48137
       6     H     0.40198  0.40198  0.00000  0.19605
       7     H     0.40011  0.40011  0.00000  0.19979
       8     H     0.40705  0.40705  0.00000  0.18590
       9     H     0.41749  0.41749  0.00000  0.16503
      10     H     0.41190  0.41190  0.00000  0.17619
      11     C     3.09247  3.09247  0.00000 -0.18494
      12     H     0.41677  0.41677  0.00000  0.16646
      13     H     0.40714  0.40714  0.00000  0.18573
      14     H     0.40403  0.40403  0.00000  0.19194

   Total alpha = 24.00000, Total beta = 24.00000, Total charge = -0.00000
