                              Psi4 1.0.54 Driver

  ==> Input File <==

--------------------------------------------------------------------------
set {
	reference rhf
	basis cc-pvtz
}

set_num_threads( 4 )
memory 2 gb

molecule MOL {
0 1

H	 -4.035662	 -3.144959	 -3.690940
O	 -4.455610	 -3.948526	 -3.446496
C	 -3.550527	 -4.784807	 -2.775129
C	 -3.221896	 -4.315381	 -1.365758
H	 -4.022901	 -5.756899	 -2.731789
H	 -2.635927	 -4.896673	 -3.354304
C	 -2.470598	 -2.987279	 -1.306222
H	 -4.147328	 -4.237695	 -0.802998
H	 -2.625071	 -5.087998	 -0.886947
C	 -2.129193	 -2.564791	 0.121988
H	 -3.069151	 -2.215216	 -1.778086
H	 -1.551219	 -3.067380	 -1.883813
C	 -1.311023	 -1.277304	 0.237018
H	 -3.048897	 -2.457576	 0.691966
H	 -1.572550	 -3.368609	 0.595796
C	 -2.041121	 -0.006551	 -0.194127
H	 -0.999779	 -1.162542	 1.271661
H	 -0.396449	 -1.380764	 -0.342641
C	 -3.489218	 0.042606	 0.286507
H	 -2.022185	 0.066287	 -1.279394
H	 -1.518764	 0.869305	 0.178730
C	 -4.219984	 1.311773	 -0.139038
H	 -4.022855	 -0.824300	 -0.093339
H	 -3.510372	 -0.038577	 1.370031
H	 -4.244251	 1.405725	 -1.219696
H	 -5.244345	 1.313233	 0.215630
H	 -3.732090	 2.196311	 0.257073

	symmetry c1
}
set optking {
	frozen_dihedral = ("
		10 13 16 20
	")
}

ee,wfn = optimize('scf', return_wfn=True)
oeprop( wfn, 'DIPOLE', 'QUADRUPOLE', 'MULLIKEN_CHARGES')
f=open( 'psi4out.xyz', 'w' )
f.write( "27  " )
f.write( str(ee) + "\n" )
f.write( MOL.save_string_xyz() )
f.close()
--------------------------------------------------------------------------

    Molecular point group: c1
  Charge       = 0
  Multiplicity = 1
  Basis Set: CC-PVTZ
  Basis Set:
  @DF-RHF Final Energy:  -388.42269696122912
    Total Energy =                       -388.4226969612288940
    Molecular point group: c1
  Basis Set: CC-PVTZ
  Basis Set:
  Basis Set: CC-PVTZ
  Basis Set:
  @DF-RHF Final Energy:  -388.38538449448629
    Total Energy =                       -388.3853844944860612
  Basis Set: CC-PVTZ
  Basis Set:
  Basis Set: CC-PVTZ
  Basis Set:
  @DF-RHF Final Energy:  -388.42260913105309
    Total Energy =                       -388.4226091310532638
  Basis Set: CC-PVTZ
  Basis Set:
  Basis Set: CC-PVTZ
  Basis Set:
  @DF-RHF Final Energy:  -388.42462926628980
    Total Energy =                       -388.4246292662894575
  Basis Set: CC-PVTZ
  Basis Set:
  Basis Set: CC-PVTZ
  Basis Set:
  @DF-RHF Final Energy:  -388.42474695195574
    Total Energy =                       -388.4247469519557399
  Basis Set: CC-PVTZ
  Basis Set:
  Basis Set: CC-PVTZ
  Basis Set:
  @DF-RHF Final Energy:  -388.42480458996170
    Total Energy =                       -388.4248045899615818
  Basis Set: CC-PVTZ
  Basis Set:
  Basis Set: CC-PVTZ
  Basis Set:
  @DF-RHF Final Energy:  -388.42480593012334
    Total Energy =                       -388.4248059301235116
  Basis Set: CC-PVTZ
  Basis Set:
  Charge       = 0
  Multiplicity = 1
  Basis Set: CC-PVTZ
  Basis Set:

    Orbital Energies (a.u.)
    -----------------------

    Doubly Occupied:

       1A    -20.545480     2A    -11.265038     3A    -11.216550
       4A    -11.214007     5A    -11.213882     6A    -11.213304
       7A    -11.213237     8A    -11.212337     9A    -11.207229
      10A     -1.363340    11A     -1.096183    12A     -1.060643
      13A     -1.011158    14A     -0.950349    15A     -0.888301
      16A     -0.833244    17A     -0.802271    18A     -0.763187
      19A     -0.696365    20A     -0.650591    21A     -0.641523
      22A     -0.615154    23A     -0.601065    24A     -0.588044
      25A     -0.576468    26A     -0.568900    27A     -0.532403
      28A     -0.521463    29A     -0.512413    30A     -0.497136
      31A     -0.488431    32A     -0.478286    33A     -0.470215
      34A     -0.452628    35A     -0.448118    36A     -0.445706
      37A     -0.424885

  @DF-RHF Final Energy:  -388.42480632965697

   => Energetics <=

    Nuclear Repulsion Energy =            470.9816705050751011
    One-Electron Energy =               -1460.2538864560551701
    Two-Electron Energy =                 600.8474096213228677
    DFT Exchange-Correlation Energy =       0.0000000000000000
    Empirical Dispersion Energy =           0.0000000000000000
    PCM Polarization Energy =               0.0000000000000000
    EFP Energy =                            0.0000000000000000
    Total Energy =                       -388.4248063296572582
    Molecular point group: c1
  Basis Set: CC-PVTZ
  Basis Set:

  -Total Gradient:
     Atom            X                  Y                   Z
    ------   -----------------  -----------------  -----------------
       1       -0.000011323639    -0.000001085743    -0.000004493182
       2       -0.000004750883     0.000017843308    -0.000012005906
       3        0.000016074097     0.000019560352     0.000001566019
       4       -0.000011356928    -0.000021013079     0.000028218696
       5        0.000004861986     0.000008149283     0.000023240140
       6        0.000009073155    -0.000008299640    -0.000002532897
       7        0.000004822141     0.000004088953    -0.000025035210
       8       -0.000003291717    -0.000001883163     0.000004329887
       9        0.000000360291    -0.000009374824     0.000002283033
      10       -0.001955020483     0.000131219340     0.002784118569
      11       -0.000005622524     0.000014212172    -0.000004319479
      12        0.000004641520     0.000009728288     0.000002791312
      13        0.003564576073     0.000576539884    -0.003791416697
      14       -0.000009313176    -0.000001521243     0.000001972742
      15        0.000003761473     0.000003616711     0.000002590571
      16       -0.004718705842    -0.003884103833    -0.000027474726
      17        0.000003786728    -0.000020644415     0.000006013879
      18        0.000001324549     0.000008815371    -0.000003100490
      19       -0.000008149976    -0.000019986109     0.000000318212
      20        0.003081006438     0.003170933764     0.001015956725
      21        0.000013566375     0.000009656334     0.000003220508
      22        0.000018511791     0.000011792869    -0.000009771627
      23       -0.000003204904    -0.000016794716    -0.000008697852
      24        0.000006228945    -0.000011651095     0.000009110768
      25       -0.000005902430     0.000002480478    -0.000010926923
      26        0.000005624035    -0.000004881857     0.000009008507
      27       -0.000001577091     0.000012602612     0.000005035421

  **** Optimization is complete! (in 8 steps) ****
    Final optimized geometry and variables:
    Molecular point group: c1

    Geometry (in Angstrom), charge = 0, multiplicity = 1:

    H           -0.087719180823    -1.314894000656    -2.795828240716
    O           -0.355906964936    -2.195484221869    -2.610828787132
    C            0.540068282796    -2.797897468775    -1.714323536457
    C            0.417903681131    -2.273716680619    -0.291430253413
    H            0.310125719649    -3.854672902857    -1.731779663501
    H            1.563271855965    -2.684998595340    -2.067347982587
    C            0.795374276241    -0.803161538488    -0.129775119761
    H           -0.602065946997    -2.428790006170     0.047352721796
    H            1.057370234042    -2.881169385529     0.344602309264
    C            0.710524685516    -0.322610264981     1.318134136352
    H            0.146312325596    -0.193470860159    -0.750586703667
    H            1.808795169277    -0.648823589643    -0.496061659133
    C            1.118561401284     1.137342670757     1.528299172433
    H           -0.294671240214    -0.483232661753     1.693342758890
    H            1.359742584244    -0.944861999605     1.927863287624
    C            0.240289976565     2.206197148699     0.862529338336
    H            1.122840703892     1.323344057038     2.599055711683
    H            2.143910109783     1.275094454349     1.197312512441
    C           -1.266623602191     2.036548466601     1.032529315157
    H            0.495052749161     2.298641728481    -0.190137577978
    H            0.523178583112     3.163990133868     1.292958142901
    C           -2.054729645830     3.219555368529     0.478716657211
    H           -1.601902480827     1.129421731815     0.541768943534
    H           -1.496650676709     1.914385512752     2.087922056165
    H           -1.864100604550     3.354472729887    -0.580971024042
    H           -3.121335350992     3.074517865631     0.605944547198
    H           -1.783368196024     4.141702704082     0.981584494331

  Mulliken Charges: (a.u.)
   Center  Symbol    Alpha    Beta     Spin     Total
       1     H     0.39214  0.39214  0.00000  0.21571
       2     O     4.20575  4.20575  0.00000 -0.41150
       3     C     2.98008  2.98008  0.00000  0.03984
       4     C     3.08918  3.08918  0.00000 -0.17837
       5     H     0.44851  0.44851  0.00000  0.10299
       6     H     0.46946  0.46946  0.00000  0.06108
       7     C     3.10236  3.10236  0.00000 -0.20472
       8     H     0.45060  0.45060  0.00000  0.09880
       9     H     0.45511  0.45511  0.00000  0.08978
      10     C     3.10915  3.10915  0.00000 -0.21830
      11     H     0.45629  0.45629  0.00000  0.08741
      12     H     0.45173  0.45173  0.00000  0.09654
      13     C     3.10347  3.10347  0.00000 -0.20693
      14     H     0.44759  0.44759  0.00000  0.10482
      15     H     0.44289  0.44289  0.00000  0.11423
      16     C     3.10498  3.10498  0.00000 -0.20996
      17     H     0.44719  0.44719  0.00000  0.10562
      18     H     0.44822  0.44822  0.00000  0.10357
      19     C     3.08762  3.08762  0.00000 -0.17525
      20     H     0.45134  0.45134  0.00000  0.09731
      21     H     0.44584  0.44584  0.00000  0.10833
      22     C     3.15033  3.15033  0.00000 -0.30066
      23     H     0.45077  0.45077  0.00000  0.09846
      24     H     0.45183  0.45183  0.00000  0.09634
      25     H     0.45543  0.45543  0.00000  0.08914
      26     H     0.44775  0.44775  0.00000  0.10450
      27     H     0.45440  0.45440  0.00000  0.09119

   Total alpha = 37.00000, Total beta = 37.00000, Total charge = -0.00000

*** Psi4 exiting successfully. Buy a developer a beer!
