                              Psi4 1.0.54 Driver

  ==> Input File <==

--------------------------------------------------------------------------
set {
	reference rhf
	basis cc-pvtz
}

set_num_threads( 4 )
memory 2 gb

molecule MOL {
0 1

H	 2.342730	 0.877684	 -1.045694
C	 2.360424	 0.000000	 -0.411793
C	 1.173749	 0.000000	 0.526870
H	 3.286567	 0.000000	 0.151574
H	 2.342730	 -0.877684	 -1.045694
O	 0.000000	 0.000000	 -0.223739
H	 1.203779	 0.876757	 1.172538
H	 1.203779	 -0.876757	 1.172538
C	 -1.173749	 0.000000	 0.526870
C	 -1.105552	 1.112134	 1.550487
H	 -1.299551	 -0.961635	 1.022776
H	 -2.034210	 0.140786	 -0.126031
H	 -0.259905	 0.968225	 2.211279
H	 -2.010332	 1.131067	 2.147260
H	 -0.995341	 2.071812	 1.061257

	symmetry c1
}
set optking {
	frozen_dihedral = ("
		11 9 6 3
	")
}

ee,wfn = optimize('scf', return_wfn=True)
oeprop( wfn, 'DIPOLE', 'QUADRUPOLE', 'MULLIKEN_CHARGES')
f=open( 'psi4out.xyz', 'w' )
f.write( "15  " )
f.write( str(ee) + "\n" )
f.write( MOL.save_string_xyz() )
f.close()
--------------------------------------------------------------------------

    Molecular point group: c1
  Charge       = 0
  Multiplicity = 1
  Basis Set: CC-PVTZ
  Basis Set:
  @DF-RHF Final Energy:  -232.22188442995105
    Total Energy =                       -232.2218844299510465
    Molecular point group: c1
  Basis Set: CC-PVTZ
  Basis Set:
  Basis Set: CC-PVTZ
  Basis Set:
  @DF-RHF Final Energy:  -231.77548028749095
    Total Energy =                       -231.7754802874908364
  Basis Set: CC-PVTZ
  Basis Set:
  Basis Set: CC-PVTZ
  Basis Set:
  @DF-RHF Final Energy:  -231.94429387648904
    Total Energy =                       -231.9442938764890982
  Basis Set: CC-PVTZ
  Basis Set:
  Basis Set: CC-PVTZ
  Basis Set:
  @DF-RHF Final Energy:  -232.09671525285759
    Total Energy =                       -232.0967152528577628
  Basis Set: CC-PVTZ
  Basis Set:
  @DF-RHF Final Energy:  -232.18992973816626
    Total Energy =                       -232.1899297381663700
  @DF-RHF Final Energy:  -232.15946487061998
    Total Energy =                       -232.1594648706198996
  @DF-RHF Final Energy:  -232.22661452684704
    Total Energy =                       -232.2266145268470154
  @DF-RHF Final Energy:  -232.22633447595913
    Total Energy =                       -232.2263344759593338
  Basis Set: CC-PVTZ
  Basis Set:
  @DF-RHF Final Energy:  -232.22938952114313
    Total Energy =                       -232.2293895211431618
  Basis Set: CC-PVTZ
  Basis Set:
  Basis Set: CC-PVTZ
  Basis Set:
  @DF-RHF Final Energy:  -232.22954807484925
    Total Energy =                       -232.2295480748491627
  Basis Set: CC-PVTZ
  Basis Set:
  Basis Set: CC-PVTZ
  Basis Set:
  @DF-RHF Final Energy:  -232.22955077338597
    Total Energy =                       -232.2295507733859381
  Basis Set: CC-PVTZ
  Basis Set:
  Charge       = 0
  Multiplicity = 1
  Basis Set: CC-PVTZ
  Basis Set:

    Orbital Energies (a.u.)
    -----------------------

    Doubly Occupied:

       1A    -20.543446     2A    -11.266330     3A    -11.265048
       4A    -11.211775     5A    -11.206152     6A     -1.377221
       7A     -1.040961     8A     -0.989391     9A     -0.868902
      10A     -0.804698    11A     -0.676035    12A     -0.656912
      13A     -0.632165    14A     -0.588416    15A     -0.547803
      16A     -0.540429    17A     -0.524913    18A     -0.504595
      19A     -0.489747    20A     -0.454112    21A     -0.410838

  @DF-RHF Final Energy:  -232.22955117864879

   => Energetics <=

    Nuclear Repulsion Energy =            193.3285002475691670
    One-Electron Energy =                -697.9163253739118318
    Two-Electron Energy =                 272.3582739476938741
    DFT Exchange-Correlation Energy =       0.0000000000000000
    Empirical Dispersion Energy =           0.0000000000000000
    PCM Polarization Energy =               0.0000000000000000
    EFP Energy =                            0.0000000000000000
    Total Energy =                       -232.2295511786487623
    Molecular point group: c1
  Basis Set: CC-PVTZ
  Basis Set:

  -Total Gradient:
     Atom            X                  Y                   Z
    ------   -----------------  -----------------  -----------------
       1        0.000000426002     0.000006533440     0.000008452597
       2       -0.000031100339    -0.000011672040    -0.000026587612
       3        0.001853691716     0.001333109243     0.001370295376
       4       -0.000002258991    -0.000004242963    -0.000004327900
       5        0.000019604109     0.000004491512     0.000000011066
       6       -0.003390810283    -0.001488392779    -0.001909531647
       7       -0.000004451967    -0.000008715292    -0.000009705355
       8       -0.000002518836     0.000000275487    -0.000011558138
       9        0.004320265500    -0.001344051976     0.000382105106
      10       -0.000010344351     0.000010755481     0.000009690717
      11       -0.002761176595     0.001514000829     0.000190125896
      12        0.000008984526    -0.000001780958     0.000000261008
      13        0.000001863258    -0.000005531471    -0.000006040404
      14       -0.000002851310    -0.000004413864     0.000008573480
      15        0.000000677561    -0.000000364650    -0.000001764193

  **** Optimization is complete! (in 12 steps) ****
    Final optimized geometry and variables:
    Molecular point group: c1

    Geometry (in Angstrom), charge = 0, multiplicity = 1:

    H            0.698047572479     1.695191365124    -1.990891934815
    C            0.488987535732     0.650124247009    -2.183272992482
    C            0.474786236029    -0.131961582925    -0.887307393572
    H            1.252154840174     0.263261911031    -2.849304302973
    H           -0.470646660433     0.581895559453    -2.680098636111
    O           -0.506020162005     0.406873895663    -0.054900902500
    H            1.451660560197    -0.081098566815    -0.415364477498
    H            0.263691392302    -1.182622403952    -1.086273257291
    C           -0.823827751535    -0.308603409524     1.101707687081
    C            0.348314946205    -0.609611329544     2.021830166949
    H           -1.348983136682    -1.225334368470     0.835012133536
    H           -1.536750859748     0.311142562447     1.629805171852
    H            1.044912130057    -1.316551703131     1.589145054033
    H           -0.024161716528    -1.039071530731     2.945014594555
    H            0.887343378758     0.299154711148     2.263717319272

  Mulliken Charges: (a.u.)
   Center  Symbol    Alpha    Beta     Spin     Total
       1     H     0.45127  0.45127  0.00000  0.09746
       2     C     3.13571  3.13571  0.00000 -0.27143
       3     C     2.96710  2.96710  0.00000  0.06581
       4     H     0.45950  0.45950  0.00000  0.08100
       5     H     0.45163  0.45163  0.00000  0.09674
       6     O     4.18008  4.18008  0.00000 -0.36016
       7     H     0.47006  0.47006  0.00000  0.05988
       8     H     0.47420  0.47420  0.00000  0.05159
       9     C     2.98254  2.98254  0.00000  0.03492
      10     C     3.15558  3.15558  0.00000 -0.31117
      11     H     0.46876  0.46876  0.00000  0.06249
      12     H     0.45235  0.45235  0.00000  0.09530
      13     H     0.45357  0.45357  0.00000  0.09286
      14     H     0.44825  0.44825  0.00000  0.10350
      15     H     0.44940  0.44940  0.00000  0.10120

   Total alpha = 21.00000, Total beta = 21.00000, Total charge =  0.00000

*** Psi4 exiting successfully. Buy a developer a beer!
