  ==> Input File <==

--------------------------------------------------------------------------
set {
	reference rhf
	basis cc-pvtz
}

set_num_threads( 4 )
memory 2 gb

molecule MOL {
0 1

O	 -0.694481	 1.313155	 -0.204815
C	 -0.862519	 0.151932	 -0.046791
C	 -2.171428	 -0.477048	 0.339095
O	 0.085519	 -0.757083	 -0.192238
H	 -2.467997	 -1.191667	 -0.417688
H	 -2.923379	 0.287970	 0.444097
H	 -2.053854	 -1.015120	 1.270901
C	 1.392036	 -0.330828	 -0.560749
C	 2.010718	 0.557652	 0.498371
H	 1.345844	 0.173770	 -1.513147
H	 1.956154	 -1.244471	 -0.673797
H	 3.027036	 0.806985	 0.214853
H	 1.452512	 1.477611	 0.605437
H	 2.038940	 0.049962	 1.454953

	symmetry c1
}
set optking {
	frozen_dihedral = ("
		10 8 4 2
	")
}

ee = optimize('scf')
oeprop('DIPOLE', 'QUADRUPOLE', 'MULLIKEN_CHARGES')
f=open( 'psi4out.xyz', 'w' )
f.write( "14  " )
f.write( str(ee) + "\n" )
f.write( MOL.save_string_xyz() )
f.close()
--------------------------------------------------------------------------

    Molecular point group: c1
  Charge       = 0
  Multiplicity = 1
  Basis Set: CC-PVTZ
  Basis Set:
  @DF-RHF Final Energy:  -305.98827483614866
    Total Energy =                       -305.9882748361488893
    Molecular point group: c1
  Basis Set: CC-PVTZ
  Basis Set:
  Basis Set: CC-PVTZ
  Basis Set:
  @DF-RHF Final Energy:  -305.98950890724666
    Total Energy =                       -305.9895089072468863
  Basis Set: CC-PVTZ
  Basis Set:
  Basis Set: CC-PVTZ
  Basis Set:
  @DF-RHF Final Energy:  -305.98812897102010
    Total Energy =                       -305.9881289710201600
  Basis Set: CC-PVTZ
  Basis Set:
  Basis Set: CC-PVTZ
  Basis Set:
  @DF-RHF Final Energy:  -305.98967233840085
    Total Energy =                       -305.9896723384009647
  Basis Set: CC-PVTZ
  Basis Set:
  Basis Set: CC-PVTZ
  Basis Set:
  @DF-RHF Final Energy:  -305.98968394289858
    Total Energy =                       -305.9896839428988642
  Basis Set: CC-PVTZ
  Basis Set:
  Charge       = 0
  Multiplicity = 1
  Basis Set: CC-PVTZ
  Basis Set:

    Orbital Energies (a.u.)
    -----------------------

    Doubly Occupied:

       1A    -20.594232     2A    -20.532782     3A    -11.367650
       4A    -11.285079     5A    -11.231344     6A    -11.215381
       7A     -1.470088     8A     -1.365633     9A     -1.055519
      10A     -0.999125    11A     -0.887530    12A     -0.760869
      13A     -0.700430    14A     -0.685363    15A     -0.662954
      16A     -0.612273    17A     -0.588955    18A     -0.571211
      19A     -0.556575    20A     -0.531564    21A     -0.516994
      22A     -0.494541    23A     -0.455944    24A     -0.439690

  @DF-RHF Final Energy:  -305.98968474056477

   => Energetics <=

    Nuclear Repulsion Energy =            249.9616369699739948
    One-Electron Energy =                -912.7391849302863420
    Two-Electron Energy =                 356.7878632197475213
    DFT Exchange-Correlation Energy =       0.0000000000000000
    Empirical Dispersion Energy =           0.0000000000000000
    PCM Polarization Energy =               0.0000000000000000
    EFP Energy =                            0.0000000000000000
    Total Energy =                       -305.9896847405648828
    Molecular point group: c1
  Basis Set: CC-PVTZ
  Basis Set:

  -Total Gradient:
     Atom            X                  Y                   Z
    ------   -----------------  -----------------  -----------------
       1        0.000042964805    -0.000038571317    -0.000022979365
       2        0.000763764610     0.000316035543     0.003551056460
       3        0.000007718694     0.000017402712     0.000093805986
       4       -0.001017624965    -0.001345774696    -0.005639382888
       5       -0.000008427763     0.000010249788    -0.000029709073
       6       -0.000007834968    -0.000002976141    -0.000007213912
       7       -0.000012658954    -0.000026053477    -0.000027263099
       8       -0.000510048170     0.004622915218     0.004024950617
       9        0.000015642843    -0.000003295731    -0.000030233376
      10        0.000731099451    -0.003561548337    -0.001930625929
      11        0.000005170294     0.000009712123     0.000008376173
      12        0.000012290867     0.000000412745     0.000008058713
      13       -0.000015963508    -0.000001017987     0.000002583326
      14       -0.000006093236     0.000002509554    -0.000001423632

  **** Optimization is complete! (in 6 steps) ****
    Final optimized geometry and variables:
    Molecular point group: c1

    Geometry (in Angstrom), charge = 0, multiplicity = 1:

    O           -0.725873714716     1.224098492705    -0.280051414869
    C           -0.847925692314     0.069794125637    -0.047264529582
    C           -2.124813041870    -0.578749544957     0.407961699712
    O            0.123978824981    -0.815602921130    -0.174463056155
    H           -2.409339734219    -1.351937437082    -0.293885108134
    H           -2.902488031301     0.164164058730     0.478722178309
    H           -1.969743865433    -1.049603114995     1.370161835580
    C            1.436332045593    -0.372617783628    -0.503342306328
    C            2.093046876723     0.456877290813     0.580867876445
    H            1.408620357422     0.137920512420    -1.455808819191
    H            1.984545439275    -1.292486944549    -0.644723257208
    H            3.126100310762     0.637829159660     0.305817756923
    H            1.601117159099     1.407662869932     0.712815641984
    H            2.085877690298    -0.079888794473     1.522531166467

  Mulliken Charges: (a.u.)
   Center  Symbol    Alpha    Beta     Spin     Total
       1     O     4.19943  4.19943  0.00000 -0.39886
       2     C     2.80110  2.80110  0.00000  0.39780
       3     C     3.13792  3.13792  0.00000 -0.27584
       4     O     4.15642  4.15642  0.00000 -0.31285
       5     H     0.44507  0.44507  0.00000  0.10986
       6     H     0.43837  0.43837  0.00000  0.12327
       7     H     0.44645  0.44645  0.00000  0.10710
       8     C     2.98366  2.98366  0.00000  0.03268
       9     C     3.15433  3.15433  0.00000 -0.30867
      10     H     0.45249  0.45249  0.00000  0.09503
      11     H     0.44536  0.44536  0.00000  0.10927
      12     H     0.45029  0.45029  0.00000  0.09943
      13     H     0.43588  0.43588  0.00000  0.12824
      14     H     0.45323  0.45323  0.00000  0.09354

   Total alpha = 24.00000, Total beta = 24.00000, Total charge = -0.00000
