                              Psi4 1.0.54 Driver

  ==> Input File <==

--------------------------------------------------------------------------
set {
	reference rhf
	basis cc-pvtz
}

set_num_threads( 4 )
memory 2 gb

molecule MOL {
0 1

O	 1.348059	 0.830669	 -0.942373
C	 0.860843	 0.273204	 -0.013120
C	 -0.623368	 -0.117453	 -0.005652
C	 1.712927	 -0.056819	 1.196450
C	 -0.892588	 -1.253841	 -1.002900
C	 -1.473463	 1.100646	 -0.372896
C	 -0.981836	 -0.579025	 1.418506
H	 -0.609333	 -0.970024	 -2.010649
H	 -1.950451	 -1.487353	 -1.013175
H	 -0.360848	 -2.161259	 -0.746463
H	 -1.232203	 1.461623	 -1.364827
H	 -2.524364	 0.834451	 -0.354500
H	 -1.312381	 1.914833	 0.318657
H	 -2.035706	 -0.826342	 1.468082
H	 -0.425078	 -1.458934	 1.716857
H	 -0.788494	 0.205047	 2.140903
H	 1.985109	 -1.105948	 1.164696
H	 2.613732	 0.536122	 1.158486
H	 1.194688	 0.117412	 2.129351

	symmetry c1
}
set optking {
	frozen_dihedral = ("
		1 2 3 5
	")
}

ee,wfn = optimize('scf', return_wfn=True)
oeprop( wfn, 'DIPOLE', 'QUADRUPOLE', 'MULLIKEN_CHARGES')
f=open( 'psi4out.xyz', 'w' )
f.write( "19  " )
f.write( str(ee) + "\n" )
f.write( MOL.save_string_xyz() )
f.close()
--------------------------------------------------------------------------

    Molecular point group: c1
  Charge       = 0
  Multiplicity = 1
  Basis Set: CC-PVTZ
  Basis Set:
  @DF-RHF Final Energy:  -309.16783913333620
    Total Energy =                       -309.1678391333363720
    Molecular point group: c1
  Basis Set: CC-PVTZ
  Basis Set:
  Basis Set: CC-PVTZ
  Basis Set:
  @DF-RHF Final Energy:  -309.07533234396436
    Total Energy =                       -309.0753323439641349
  Basis Set: CC-PVTZ
  Basis Set:
  Basis Set: CC-PVTZ
  Basis Set:
  @DF-RHF Final Energy:  -309.15482600063189
    Total Energy =                       -309.1548260006323403
  Basis Set: CC-PVTZ
  Basis Set:
  Basis Set: CC-PVTZ
  Basis Set:
  @DF-RHF Final Energy:  -309.17145710103881
    Total Energy =                       -309.1714571010389818
  Basis Set: CC-PVTZ
  Basis Set:
  @DF-RHF Final Energy:  -309.03476643223843
    Total Energy =                       -309.0347664322383707
  @DF-RHF Final Energy:  -309.15208170020554
    Total Energy =                       -309.1520817002054287
  @DF-RHF Final Energy:  -309.17116488190186
    Total Energy =                       -309.1711648819023139
  @DF-RHF Final Energy:  -308.24013683402580
    Total Energy =                       -308.2401368340258045
  @DF-RHF Final Energy:  -308.56444339344881
    Total Energy =                       -308.5644433934489825
  @DF-RHF Final Energy:  -308.89217981288618
    Total Energy =                       -308.8921798128862974
  @DF-RHF Final Energy:  -309.09489594520545
    Total Energy =                       -309.0948959452055078
  @DF-RHF Final Energy:  -309.07669313419353
    Total Energy =                       -309.0766931341936470
  @DF-RHF Final Energy:  -308.22387569786190
    Total Energy =                       -308.2238756978618426
  @DF-RHF Final Energy:  -308.59187400037598
    Total Energy =                       -308.5918740003758103
  @DF-RHF Final Energy:  -308.89706913001669
    Total Energy =                       -308.8970691300168596
  @DF-RHF Final Energy:  -309.08993986937668
    Total Energy =                       -309.0899398693766216
  @DF-RHF Final Energy:  -309.16396630830695
    Total Energy =                       -309.1639663083069536
  @DF-RHF Final Energy:  -309.16451229636669
    Total Energy =                       -309.1645122963665244
  @DF-RHF Final Energy:  -309.17215113327262
    Total Energy =                       -309.1721511332724504
  @DF-RHF Final Energy:  -309.17292711456014
    Total Energy =                       -309.1729271145599682
  @DF-RHF Final Energy:  -309.17286546312408
    Total Energy =                       -309.1728654631242534
  @DF-RHF Final Energy:  -309.17313901649680
    Total Energy =                       -309.1731390164970890
  Basis Set: CC-PVTZ
  Basis Set:
  @DF-RHF Final Energy:  -309.17313950005808
    Total Energy =                       -309.1731395000580278
  Basis Set: CC-PVTZ
  Basis Set:
  Basis Set: CC-PVTZ
  Basis Set:
  @DF-RHF Final Energy:  -309.17315362214907
    Total Energy =                       -309.1731536221492433
  Basis Set: CC-PVTZ
  Basis Set:
  Basis Set: CC-PVTZ
  Basis Set:
  @DF-RHF Final Energy:  -309.17315666176796
    Total Energy =                       -309.1731566617679050
  Basis Set: CC-PVTZ
  Basis Set:
  Charge       = 0
  Multiplicity = 1
  Basis Set: CC-PVTZ
  Basis Set:

    Orbital Energies (a.u.)
    -----------------------

    Doubly Occupied:

       1A    -20.536404     2A    -11.318518     3A    -11.245494
       4A    -11.226085     5A    -11.220043     6A    -11.217379
       7A    -11.211110     8A     -1.398337     9A     -1.109125
      10A     -1.004681    11A     -0.943689    12A     -0.938775
      13A     -0.834096    14A     -0.705663    15A     -0.666876
      16A     -0.633705    17A     -0.623936    18A     -0.589564
      19A     -0.586886    20A     -0.572977    21A     -0.552075
      22A     -0.546847    23A     -0.523737    24A     -0.514826
      25A     -0.502988    26A     -0.473029    27A     -0.462788
      28A     -0.393780

  @DF-RHF Final Energy:  -309.17315679842113

   => Energetics <=

    Nuclear Repulsion Energy =            326.8164892893612432
    One-Electron Energy =               -1066.8724653926494739
    Two-Electron Energy =                 430.8828193048668709
    DFT Exchange-Correlation Energy =       0.0000000000000000
    Empirical Dispersion Energy =           0.0000000000000000
    PCM Polarization Energy =               0.0000000000000000
    EFP Energy =                            0.0000000000000000
    Total Energy =                       -309.1731567984213598
    Molecular point group: c1
  Basis Set: CC-PVTZ
  Basis Set:

  -Total Gradient:
     Atom            X                  Y                   Z
    ------   -----------------  -----------------  -----------------
       1       -0.001059557981    -0.000089832404     0.000195380191
       2        0.001507930056     0.000399087770    -0.000300940149
       3       -0.000584800152    -0.000909744580     0.000311053688
       4        0.000023551554    -0.000027476493    -0.000076449523
       5        0.000182017982     0.000739278083    -0.000138824861
       6       -0.000026605187     0.000040692914     0.000024014361
       7       -0.000027926309     0.000015417153     0.000020081704
       8        0.000013114684    -0.000020571140     0.000007110308
       9        0.000017101996     0.000013747053    -0.000052537472
      10       -0.000002603425    -0.000031307826    -0.000018312640
      11       -0.000020639876     0.000020128745     0.000016065681
      12       -0.000022608051    -0.000007586500    -0.000034115642
      13        0.000027554285    -0.000041251018    -0.000014030285
      14        0.000009118831    -0.000012397058    -0.000023772637
      15       -0.000016683760    -0.000052449134     0.000017695088
      16       -0.000006002839     0.000002279673    -0.000008061695
      17       -0.000063449960    -0.000014456686     0.000009433467
      18       -0.000001378956    -0.000002930840     0.000067558505
      19        0.000051867109    -0.000020627711    -0.000001348095

  **** Optimization is complete! (in 26 steps) ****
    Final optimized geometry and variables:
    Molecular point group: c1

    Geometry (in Angstrom), charge = 0, multiplicity = 1:

    O           -0.303181791380     0.705352472389    -1.662289391368
    C           -0.115831914739    -0.171520109059    -0.882091379740
    C            0.103330845710     0.162227426937     0.605012986172
    C           -0.145676336880    -1.612240147281    -1.341912597318
    C           -1.249948658706     0.654170525757     1.145728949873
    C            1.133160322179     1.296311646765     0.695522653194
    C            0.586928095351    -1.031764235826     1.434905748058
    H           -1.593674480280     1.515289568513     0.589811075571
    H           -1.153841260059     0.931640522142     2.189076032100
    H           -2.009896695796    -0.117825300228     1.078240437708
    H            0.813809703378     2.154645888614     0.123538135388
    H            1.264378952589     1.595950029161     1.729079046798
    H            2.098966069285     0.979960836754     0.315965070786
    H            0.723508374899    -0.724058841966     2.464640769695
    H           -0.122582043067    -1.849962485270     1.433295817271
    H            1.539111283375    -1.410043397105     1.081286857809
    H           -0.910546087700    -2.165894447808    -0.809745362967
    H           -0.353020634555    -1.635718260684    -2.400241216311
    H            0.801019568833    -2.100143186803    -1.144803680910

  Mulliken Charges: (a.u.)
   Center  Symbol    Alpha    Beta     Spin     Total
       1     O     4.18129  4.18129  0.00000 -0.36258
       2     C     2.84640  2.84640  0.00000  0.30720
       3     C     3.00575  3.00575  0.00000 -0.01151
       4     C     3.16304  3.16304  0.00000 -0.32608
       5     C     3.15359  3.15359  0.00000 -0.30718
       6     C     3.15352  3.15352  0.00000 -0.30704
       7     C     3.16548  3.16548  0.00000 -0.33097
       8     H     0.43707  0.43707  0.00000  0.12587
       9     H     0.44892  0.44892  0.00000  0.10216
      10     H     0.44961  0.44961  0.00000  0.10077
      11     H     0.43493  0.43493  0.00000  0.13014
      12     H     0.45089  0.45089  0.00000  0.09823
      13     H     0.45029  0.45029  0.00000  0.09942
      14     H     0.44250  0.44250  0.00000  0.11500
      15     H     0.44568  0.44568  0.00000  0.10863
      16     H     0.44533  0.44533  0.00000  0.10934
      17     H     0.44689  0.44689  0.00000  0.10621
      18     H     0.43171  0.43171  0.00000  0.13658
      19     H     0.44710  0.44710  0.00000  0.10580

   Total alpha = 28.00000, Total beta = 28.00000, Total charge = -0.00000

*** Psi4 exiting successfully. Buy a developer a beer!
