  ==> Input File <==

--------------------------------------------------------------------------
set {
	reference rhf
	basis 6-31G*
}

set_num_threads( 1 )
memory 2 gb

molecule MOL {
0 1

O	 0.080733	 -0.162779	 -0.497877
C	 1.122059	 0.121804	 -0.000188
C	 1.433541	 1.420450	 0.702942
O	 2.172624	 -0.688929	 0.000216
C	 0.257611	 2.391915	 0.730986
H	 1.764685	 1.174071	 1.708126
H	 2.295186	 1.859469	 0.207377
C	 0.599996	 3.698649	 1.448331
H	 -0.588729	 1.916217	 1.216706
H	 -0.057798	 2.602231	 -0.286259
C	 -0.572273	 4.678338	 1.479930
H	 0.916136	 3.482138	 2.466788
H	 1.450205	 4.169800	 0.959216
H	 -1.427584	 4.248913	 1.993437
H	 -0.303357	 5.595768	 1.994015
H	 -0.889287	 4.941960	 0.475119
C	 3.452279	 -0.082609	 0.000533
H	 3.583069	 0.529321	 -0.880332
H	 4.163299	 -0.894027	 0.001117
H	 3.582335	 0.529955	 0.881077

	symmetry c1
}
set optking {
	frozen_dihedral = ("
		9 5 8 12,
		1 2 3 6,
		9 5 3 6
	")
}

ee = energy('scf')
oeprop('DIPOLE', 'QUADRUPOLE', 'MULLIKEN_CHARGES')
f=open( 'psi4out.xyz', 'w' )
f.write( "20  " )
f.write( str(ee) + "\n" )
f.write( MOL.save_string_xyz() )
f.close()
--------------------------------------------------------------------------

    Molecular point group: c1

    Geometry (in Angstrom), charge = 0, multiplicity = 1:

       Center              X                  Y                   Z               Mass
    ------------   -----------------  -----------------  -----------------  -----------------
           O         -1.006088896124    -1.571342922060    -0.973488548207    15.994914619560
           C          0.035237103876    -1.286759922060    -0.475799548207    12.000000000000
           C          0.346719103876     0.011886077940     0.227330451793    12.000000000000
           O          1.085802103876    -2.097492922060    -0.475395548207    15.994914619560
           C         -0.829210896124     0.983351077940     0.255374451793    12.000000000000
           H          0.677863103876    -0.234492922060     1.232514451793     1.007825032070
           H          1.208364103876     0.450905077940    -0.268234548207     1.007825032070
           C         -0.486825896124     2.290085077940     0.972719451793    12.000000000000
           H         -1.675550896124     0.507653077940     0.741094451793     1.007825032070
           H         -1.144619896124     1.193667077940    -0.761870548207     1.007825032070
           C         -1.659094896124     3.269774077940     1.004318451793    12.000000000000
           H         -0.170685896124     2.073574077940     1.991176451793     1.007825032070
           H          0.363383103876     2.761236077940     0.483604451793     1.007825032070
           H         -2.514405896124     2.840349077940     1.517825451793     1.007825032070
           H         -1.390178896124     4.187204077940     1.518403451793     1.007825032070
           H         -1.976108896124     3.533396077940    -0.000492548207     1.007825032070
           C          2.365457103876    -1.491172922060    -0.475078548207    12.000000000000
           H          2.496247103876    -0.879242922060    -1.355943548207     1.007825032070
           H          3.076477103876    -2.302590922060    -0.474494548207     1.007825032070
           H          2.495513103876    -0.878608922060     0.405465451793     1.007825032070

  Charge       = 0
  Multiplicity = 1
  Basis Set: 6-31G*
  Basis Set:

    Orbital Energies (a.u.)
    -----------------------

    Doubly Occupied:

       1A    -20.602999     2A    -20.547007     3A    -11.374788
       4A    -11.297469     5A    -11.241625     6A    -11.224330
       7A    -11.223061     8A    -11.213600     9A     -1.467304
      10A     -1.369543    11A     -1.092316    12A     -1.018531
      13A     -0.987729    14A     -0.906491    15A     -0.812518
      16A     -0.765214    17A     -0.701978    18A     -0.692701
      19A     -0.678543    20A     -0.649219    21A     -0.611427
      22A     -0.592002    23A     -0.584656    24A     -0.559349
      25A     -0.543931    26A     -0.525097    27A     -0.506366
      28A     -0.481892    29A     -0.477448    30A     -0.474269
      31A     -0.453082    32A     -0.429836

  @DF-RHF Final Energy:  -383.91576059129812

   => Energetics <=

    Nuclear Repulsion Energy =            386.3699495228178762
    One-Electron Energy =               -1288.3589116156381351
    Two-Electron Energy =                 518.0732015015227034
    DFT Exchange-Correlation Energy =       0.0000000000000000
    Empirical Dispersion Energy =           0.0000000000000000
    PCM Polarization Energy =               0.0000000000000000
    EFP Energy =                            0.0000000000000000
    Total Energy =                       -383.9157605912974986

  Mulliken Charges: (a.u.)
   Center  Symbol    Alpha    Beta     Spin     Total
       1     O     4.26912  4.26912  0.00000 -0.53825
       2     C     2.59263  2.59263  0.00000  0.81475
       3     C     3.24444  3.24444  0.00000 -0.48888
       4     O     4.30101  4.30101  0.00000 -0.60203
       5     C     3.14701  3.14701  0.00000 -0.29403
       6     H     0.39880  0.39880  0.00000  0.20239
       7     H     0.40265  0.40265  0.00000  0.19470
       8     C     3.15419  3.15419  0.00000 -0.30839
       9     H     0.40972  0.40972  0.00000  0.18056
      10     H     0.41106  0.41106  0.00000  0.17789
      11     C     3.23954  3.23954  0.00000 -0.47908
      12     H     0.42357  0.42357  0.00000  0.15285
      13     H     0.42459  0.42459  0.00000  0.15081
      14     H     0.41902  0.41902  0.00000  0.16197
      15     H     0.41855  0.41855  0.00000  0.16290
      16     H     0.41949  0.41949  0.00000  0.16102
      17     C     3.10470  3.10470  0.00000 -0.20940
      18     H     0.41109  0.41109  0.00000  0.17781
      19     H     0.39686  0.39686  0.00000  0.20629
      20     H     0.41196  0.41196  0.00000  0.17608

   Total alpha = 32.00000, Total beta = 32.00000, Total charge =  0.00000
