  ==> Input File <==

--------------------------------------------------------------------------
set {
	reference rhf
	basis 6-31G*
}

set_num_threads( 4 )
memory 2 gb

molecule MOL {
0 1

H	 -0.971450	 -1.231853	 0.248666
N	 -1.172117	 -0.314371	 -0.100254
C	 -0.024542	 0.565565	 0.069209
H	 -1.395476	 -0.416175	 -1.072274
C	 1.271298	 -0.229563	 -0.014192
H	 -0.049409	 1.297310	 -0.731596
H	 -0.046881	 1.125219	 1.006750
H	 1.332152	 -0.753033	 -0.961461
H	 2.134169	 0.422483	 0.080702
H	 1.326077	 -0.968298	 0.781395

	symmetry c1
}
set optking {
	frozen_dihedral = ("
		1 2 3 6
	")
}

ee = optimize('scf')
oeprop('DIPOLE', 'QUADRUPOLE', 'MULLIKEN_CHARGES')
f=open( 'psi4out.xyz', 'w' )
f.write( "10  " )
f.write( str(ee) + "\n" )
f.write( MOL.save_string_xyz() )
f.close()
--------------------------------------------------------------------------

    Molecular point group: c1
  Charge       = 0
  Multiplicity = 1
  Basis Set: 6-31G*
  Basis Set:
  @DF-RHF Final Energy:  -134.24375056817922
    Total Energy =                       -134.2437505681792231
    Molecular point group: c1
  Basis Set: 6-31G*
  Basis Set:
  Basis Set: 6-31G*
  Basis Set:
  @DF-RHF Final Energy:  -134.24511675183095
    Total Energy =                       -134.2451167518308921
  Basis Set: 6-31G*
  Basis Set:
  Basis Set: 6-31G*
  Basis Set:
  @DF-RHF Final Energy:  -134.24532964568203
    Total Energy =                       -134.2453296456820624
  Basis Set: 6-31G*
  Basis Set:
  Basis Set: 6-31G*
  Basis Set:
  @DF-RHF Final Energy:  -134.24533148700391
    Total Energy =                       -134.2453314870038810
  Basis Set: 6-31G*
  Basis Set:
  Charge       = 0
  Multiplicity = 1
  Basis Set: 6-31G*
  Basis Set:

    Orbital Energies (a.u.)
    -----------------------

    Doubly Occupied:

       1A    -15.532901     2A    -11.243120     3A    -11.212570
       4A     -1.176274     5A     -0.988953     6A     -0.832176
       7A     -0.670261     8A     -0.600205     9A     -0.586600
      10A     -0.548761    11A     -0.507023    12A     -0.486025
      13A     -0.381072

  @DF-RHF Final Energy:  -134.24533166900773

   => Energetics <=

    Nuclear Repulsion Energy =             83.1787963894978333
    One-Electron Energy =                -345.3163733826614816
    Two-Electron Energy =                 127.8922453241559651
    DFT Exchange-Correlation Energy =       0.0000000000000000
    Empirical Dispersion Energy =           0.0000000000000000
    PCM Polarization Energy =               0.0000000000000000
    EFP Energy =                            0.0000000000000000
    Total Energy =                       -134.2453316690076690
    Molecular point group: c1
  Basis Set: 6-31G*
  Basis Set:

  -Total Gradient:
     Atom            X                  Y                   Z
    ------   -----------------  -----------------  -----------------
       1        0.001090013694    -0.001046112152    -0.003330849609
       2       -0.000954567003     0.000808973447     0.003724660143
       3       -0.001848755339     0.002296209875     0.001558694581
       4        0.000008456539     0.000008425908    -0.000007923971
       5       -0.000020969490     0.000001728114     0.000012635789
       6        0.001703312859    -0.002088433589    -0.001968808034
       7        0.000018134665    -0.000003888705     0.000009340044
       8       -0.000009595911     0.000010538134     0.000015272152
       9        0.000017078118     0.000014054235     0.000002646129
      10       -0.000003108131    -0.000001495267    -0.000015667226

  **** Optimization is complete! (in 5 steps) ****
    Final optimized geometry and variables:
    Molecular point group: c1

    Geometry (in Angstrom), charge = 0, multiplicity = 1:

    H           -1.054778940972    -1.200474120906     0.288778376252
    N           -1.228219333381    -0.274177503390    -0.053173296030
    C           -0.036723434158     0.559095844680     0.082769767752
    H           -1.465989519921    -0.382092737625    -1.020079770685
    C            1.285015591852    -0.206127288545     0.015021888357
    H           -0.050801320610     1.295114661121    -0.714247093529
    H           -0.092292741761     1.101616688286     1.020956724999
    H            1.388832753091    -0.721966656225    -0.935784029706
    H            2.132401998953     0.463945140541     0.128590026242
    H            1.344736526687    -0.949360836021     0.806205670397

  Mulliken Charges: (a.u.)
   Center  Symbol    Alpha    Beta     Spin     Total
       1     H     0.33460  0.33460  0.00000  0.33079
       2     N     3.91945  3.91945  0.00000 -0.83891
       3     C     3.05949  3.05949  0.00000 -0.11898
       4     H     0.33425  0.33425  0.00000  0.33150
       5     C     3.24796  3.24796  0.00000 -0.49592
       6     H     0.42166  0.42166  0.00000  0.15667
       7     H     0.41721  0.41721  0.00000  0.16557
       8     H     0.42329  0.42329  0.00000  0.15343
       9     H     0.41967  0.41967  0.00000  0.16066
      10     H     0.42241  0.42241  0.00000  0.15518

   Total alpha = 13.00000, Total beta = 13.00000, Total charge =  0.00000
