  ==> Input File <==

--------------------------------------------------------------------------
set {
	reference rhf
	basis 6-31G*
}

set_num_threads( 4 )
memory 2 gb

molecule MOL {
0 1

H	 -0.944757	 -0.000069	 1.678017
O	 -0.042387	 -0.000390	 1.388199
C	 -0.001487	 0.000018	 -0.026623
C	 -1.405997	 -0.249526	 -0.579544
C	 0.549168	 1.338457	 -0.522611
C	 0.937149	 -1.142325	 -0.398694
H	 -1.402159	 -0.296918	 -1.663812
H	 -2.084054	 0.548695	 -0.286306
H	 -1.800348	 -1.183446	 -0.194449
H	 0.630688	 1.356598	 -1.604792
H	 -0.102303	 2.157592	 -0.226748
H	 1.530793	 1.520369	 -0.099294
H	 1.037459	 -1.228068	 -1.475881
H	 0.557251	 -2.080745	 -0.010709
H	 1.919479	 -0.974012	 0.028028

	symmetry c1
}
set optking {
	frozen_dihedral = ("
		4 3 2 1
	")
}

ee = optimize('scf')
oeprop('DIPOLE', 'QUADRUPOLE', 'MULLIKEN_CHARGES')
f=open( 'psi4out.xyz', 'w' )
f.write( "15  " )
f.write( str(ee) + "\n" )
f.write( MOL.save_string_xyz() )
f.close()
--------------------------------------------------------------------------

    Molecular point group: c1
  Charge       = 0
  Multiplicity = 1
  Basis Set: 6-31G*
  Basis Set:
  @DF-RHF Final Energy:  -232.15054328972377
    Total Energy =                       -232.1505432897234869
    Molecular point group: c1
  Basis Set: 6-31G*
  Basis Set:
  Basis Set: 6-31G*
  Basis Set:
  @DF-RHF Final Energy:  -232.15087990748356
    Total Energy =                       -232.1508799074834428
  Basis Set: 6-31G*
  Basis Set:
  Basis Set: 6-31G*
  Basis Set:
  @DF-RHF Final Energy:  -232.15102318906651
    Total Energy =                       -232.1510231890663363
  Basis Set: 6-31G*
  Basis Set:
  Basis Set: 6-31G*
  Basis Set:
  @DF-RHF Final Energy:  -232.15101450088383
    Total Energy =                       -232.1510145008838890
  Basis Set: 6-31G*
  Basis Set:
  Basis Set: 6-31G*
  Basis Set:
  @DF-RHF Final Energy:  -232.15102615564535
    Total Energy =                       -232.1510261556452974
  Basis Set: 6-31G*
  Basis Set:
  Charge       = 0
  Multiplicity = 1
  Basis Set: 6-31G*
  Basis Set:

    Orbital Energies (a.u.)
    -----------------------

    Doubly Occupied:

       1A    -20.546733     2A    -11.282032     3A    -11.218615
       4A    -11.204588     5A    -11.204431     6A     -1.358075
       7A     -1.063799     8A     -0.945669     9A     -0.935315
      10A     -0.775644    11A     -0.669190    12A     -0.622664
      13A     -0.620991    14A     -0.575211    15A     -0.556338
      16A     -0.533269    17A     -0.516748    18A     -0.508689
      19A     -0.501524    20A     -0.456845    21A     -0.422494

  @DF-RHF Final Energy:  -232.15102635004669

   => Energetics <=

    Nuclear Repulsion Energy =            200.2466534204114907
    One-Electron Energy =                -711.7576346951913138
    Two-Electron Energy =                 279.3599549247332448
    DFT Exchange-Correlation Energy =       0.0000000000000000
    Empirical Dispersion Energy =           0.0000000000000000
    PCM Polarization Energy =               0.0000000000000000
    EFP Energy =                            0.0000000000000000
    Total Energy =                       -232.1510263500466067
    Molecular point group: c1
  Basis Set: 6-31G*
  Basis Set:

  -Total Gradient:
     Atom            X                  Y                   Z
    ------   -----------------  -----------------  -----------------
       1       -0.000034232025    -0.001105470205     0.000034907654
       2       -0.000021184332     0.001615053625    -0.000059939460
       3        0.000159231591    -0.001206513737     0.000066921474
       4       -0.000104333499     0.000677492084    -0.000011454400
       5       -0.000009596229    -0.000007182279    -0.000027116694
       6        0.000016496202     0.000011467485     0.000002014003
       7       -0.000000494109     0.000001177982    -0.000018209106
       8       -0.000002420737    -0.000009770533    -0.000003336208
       9        0.000008394938     0.000017220549     0.000004846814
      10       -0.000020296447     0.000010517717     0.000013730197
      11       -0.000000679618     0.000021386454     0.000004747749
      12        0.000005438065    -0.000030489697    -0.000000880633
      13        0.000001942840    -0.000007771590    -0.000007262629
      14       -0.000003992694     0.000020662025     0.000001011468
      15        0.000005726052    -0.000007779881     0.000000019769

  **** Optimization is complete! (in 6 steps) ****
    Final optimized geometry and variables:
    Molecular point group: c1

    Geometry (in Angstrom), charge = 0, multiplicity = 1:

    H           -0.925388962472     0.062736142653     1.701193229439
    O           -0.031783591917     0.041067896445     1.392731893131
    C            0.003110085084    -0.000644937263    -0.025971929242
    C           -1.401048824030    -0.246211667207    -0.578792058539
    C            0.546683665234     1.340507463181    -0.518548718680
    C            0.944053077854    -1.140016306713    -0.409442818369
    H           -1.392360987686    -0.294538296693    -1.662133061730
    H           -2.075351790832     0.555956945583    -0.288749413836
    H           -1.802498199265    -1.183765105069    -0.204327064483
    H            0.637556158336     1.359178795046    -1.600541179412
    H           -0.110261621753     2.149837499199    -0.215940986889
    H            1.524395672553     1.525475597133    -0.087807902428
    H            1.065878104654    -1.205595917288    -1.486380581979
    H            0.558267173982    -2.086586679729    -0.046373062236
    H            1.919263183483    -0.982410853444     0.037651647065

  Mulliken Charges: (a.u.)
   Center  Symbol    Alpha    Beta     Spin     Total
       1     H     0.27957  0.27957  0.00000  0.44086
       2     O     4.38355  4.38355  0.00000 -0.76711
       3     C     2.84458  2.84458  0.00000  0.31084
       4     C     3.26036  3.26036  0.00000 -0.52071
       5     C     3.23170  3.23170  0.00000 -0.46340
       6     C     3.23177  3.23177  0.00000 -0.46354
       7     H     0.41427  0.41427  0.00000  0.17146
       8     H     0.42004  0.42004  0.00000  0.15993
       9     H     0.41617  0.41617  0.00000  0.16767
      10     H     0.42591  0.42591  0.00000  0.14819
      11     H     0.42160  0.42160  0.00000  0.15680
      12     H     0.41324  0.41324  0.00000  0.17352
      13     H     0.42566  0.42566  0.00000  0.14869
      14     H     0.41864  0.41864  0.00000  0.16272
      15     H     0.41295  0.41295  0.00000  0.17410

   Total alpha = 21.00000, Total beta = 21.00000, Total charge =  0.00000
