  ==> Input File <==

--------------------------------------------------------------------------
set {
	reference rhf
	basis 6-31G*
}

set_num_threads( 4 )
memory 2 gb

molecule MOL {
0 1

H	 -3.407059	 -1.043082	 0.000000
O	 -3.119761	 -0.140267	 0.000000
C	 -1.777559	 -0.059267	 0.000000
C	 -1.098892	 1.003560	 0.588906
C	 -1.075916	 -1.087443	 -0.616942
H	 -1.650308	 1.796396	 1.064996
C	 0.279503	 1.033901	 0.558452
H	 -1.621993	 -1.896241	 -1.064062
C	 0.302473	 -1.042902	 -0.639212
H	 0.816044	 1.847772	 1.008827
C	 0.996634	 0.012045	 -0.055387
H	 0.846681	 -1.839425	 -1.117177
C	 2.472049	 0.046052	 -0.087101
O	 3.141852	 0.910207	 0.387618
H	 2.942794	 -0.803421	 -0.593027

	symmetry c1
}
set optking {
	frozen_dihedral = ("
		5 3 2 1
	")
}

ee = optimize('scf')
oeprop('DIPOLE', 'QUADRUPOLE', 'MULLIKEN_CHARGES')
f=open( 'psi4out.xyz', 'w' )
f.write( "15  " )
f.write( str(ee) + "\n" )
f.write( MOL.save_string_xyz() )
f.close()
--------------------------------------------------------------------------

    Molecular point group: c1
  Charge       = 0
  Multiplicity = 1
  Basis Set: 6-31G*
  Basis Set:
  @DF-RHF Final Energy:  -418.28634175130816
    Total Energy =                       -418.2863417513081004
    Molecular point group: c1
  Basis Set: 6-31G*
  Basis Set:
  Basis Set: 6-31G*
  Basis Set:
  @DF-RHF Final Energy:  -418.28819803490615
    Total Energy =                       -418.2881980349058040
  Basis Set: 6-31G*
  Basis Set:
  Basis Set: 6-31G*
  Basis Set:
  @DF-RHF Final Energy:  -418.28833269089131
    Total Energy =                       -418.2883326908913659
  Basis Set: 6-31G*
  Basis Set:
  Basis Set: 6-31G*
  Basis Set:
  @DF-RHF Final Energy:  -418.28720790176533
    Total Energy =                       -418.2872079017653277
  Basis Set: 6-31G*
  Basis Set:
  Basis Set: 6-31G*
  Basis Set:
  @DF-RHF Final Energy:  -418.28836686792687
    Total Energy =                       -418.2883668679269249
  Basis Set: 6-31G*
  Basis Set:
  Charge       = 0
  Multiplicity = 1
  Basis Set: 6-31G*
  Basis Set:

    Orbital Energies (a.u.)
    -----------------------

    Doubly Occupied:

       1A    -20.606927     2A    -20.556866     3A    -11.328678
       4A    -11.321413     5A    -11.262807     6A    -11.253588
       7A    -11.245060     8A    -11.240221     9A    -11.238259
      10A     -1.427116    11A     -1.398071    12A     -1.170642
      13A     -1.042594    14A     -1.036946    15A     -0.892393
      16A     -0.857627    17A     -0.801809    18A     -0.755595
      19A     -0.696753    20A     -0.683646    21A     -0.640549
      22A     -0.624969    23A     -0.616192    24A     -0.607468
      25A     -0.570353    26A     -0.555118    27A     -0.548812
      28A     -0.505151    29A     -0.483742    30A     -0.419186
      31A     -0.356692    32A     -0.329899

  @DF-RHF Final Energy:  -418.28837068984672

   => Energetics <=

    Nuclear Repulsion Energy =            401.2183796947977044
    One-Electron Energy =               -1364.8632183697370692
    Two-Electron Energy =                 545.3564679850923085
    DFT Exchange-Correlation Energy =       0.0000000000000000
    Empirical Dispersion Energy =           0.0000000000000000
    PCM Polarization Energy =               0.0000000000000000
    EFP Energy =                            0.0000000000000000
    Total Energy =                       -418.2883706898470564
    Molecular point group: c1
  Basis Set: 6-31G*
  Basis Set:

  -Total Gradient:
     Atom            X                  Y                   Z
    ------   -----------------  -----------------  -----------------
       1        0.000036108403    -0.000102247420     0.003063756685
       2       -0.000037693849     0.000780557907    -0.004892307434
       3        0.000130540702    -0.001667835037     0.003870152075
       4       -0.000312805588    -0.000116006175    -0.000030688829
       5        0.000177301751     0.001139508283    -0.002022679382
       6       -0.000005638240    -0.000016713603    -0.000006498320
       7        0.000348474966    -0.000172718670    -0.000103258738
       8        0.000004657638    -0.000009133660     0.000002770684
       9       -0.000280266748    -0.000177693896    -0.000032035652
      10       -0.000022782106     0.000016808255     0.000005219778
      11       -0.000012434937     0.000342719891     0.000225060350
      12        0.000012864100     0.000016466110    -0.000007076734
      13        0.000026096419     0.000017840824    -0.000166547790
      14       -0.000048391716    -0.000014812686     0.000056971523
      15       -0.000016030792    -0.000036740122     0.000037161783

  **** Optimization is complete! (in 6 steps) ****
    Final optimized geometry and variables:
    Molecular point group: c1

    Geometry (in Angstrom), charge = 0, multiplicity = 1:

    H           -3.470653086672    -1.031650758311    -0.008778132425
    O           -3.118106252765    -0.152395106341     0.007395390635
    C           -1.768693832055    -0.171074724893    -0.015602935440
    C           -1.102302309938     0.904172006683     0.566009952457
    C           -1.058689223783    -1.184919637698    -0.641393089879
    H           -1.679422476624     1.678469423932     1.035148118938
    C            0.272515982731     0.950119113845     0.530252268990
    H           -1.582021730187    -2.000714426818    -1.108765938577
    C            0.323774829293    -1.131194135834    -0.661279467507
    H            0.802324596175     1.770398574825     0.976946598386
    C            1.002228829600    -0.069983099319    -0.080878767009
    H            0.875012930779    -1.920656351189    -1.142738870966
    C            2.478022192301    -0.023183593437    -0.114114235739
    O            3.140178737808     0.846645597211     0.360136395098
    H            2.955858603945    -0.868985055061    -0.619585660129

  Mulliken Charges: (a.u.)
   Center  Symbol    Alpha    Beta     Spin     Total
       1     H     0.26933  0.26933  0.00000  0.46135
       2     O     4.37512  4.37512  0.00000 -0.75024
       3     C     2.79099  2.79099  0.00000  0.41802
       4     C     3.12506  3.12506  0.00000 -0.25012
       5     C     3.14325  3.14325  0.00000 -0.28649
       6     H     0.38562  0.38562  0.00000  0.22876
       7     C     3.08025  3.08025  0.00000 -0.16050
       8     H     0.39709  0.39709  0.00000  0.20583
       9     C     3.09335  3.09335  0.00000 -0.18671
      10     H     0.37473  0.37473  0.00000  0.25054
      11     C     3.06611  3.06611  0.00000 -0.13223
      12     H     0.38995  0.38995  0.00000  0.22010
      13     C     2.83071  2.83071  0.00000  0.33857
      14     O     4.25336  4.25336  0.00000 -0.50671
      15     H     0.42509  0.42509  0.00000  0.14982

   Total alpha = 32.00000, Total beta = 32.00000, Total charge = -0.00000
