  ==> Input File <==

--------------------------------------------------------------------------
set {
	reference rhf
	basis 6-31G*
}

set_num_threads( 4 )
memory 2 gb

molecule MOL {
0 1

H	 3.463771	 0.168298	 -0.756243
C	 2.752674	 -0.045734	 0.033351
C	 1.322923	 0.120767	 -0.479465
H	 2.934561	 -1.059086	 0.377456
H	 2.958358	 0.631174	 0.856809
C	 0.306652	 -0.176050	 0.621399
H	 1.144658	 -0.551717	 -1.312180
H	 1.166477	 1.131798	 -0.836680
N	 -1.068537	 -0.011044	 0.085269
H	 0.372515	 -1.192590	 0.973735
H	 0.391664	 0.520566	 1.441230
O	 -1.369386	 1.061760	 -0.338942
O	 -1.790308	 -0.959394	 0.146114

	symmetry c1
}
set optking {
	frozen_dihedral = ("
		12 9 6 3
	")
}

ee = optimize('scf')
oeprop('DIPOLE', 'QUADRUPOLE', 'MULLIKEN_CHARGES')
f=open( 'psi4out.xyz', 'w' )
f.write( "13  " )
f.write( str(ee) + "\n" )
f.write( MOL.save_string_xyz() )
f.close()
--------------------------------------------------------------------------

    Molecular point group: c1
  Charge       = 0
  Multiplicity = 1
  Basis Set: 6-31G*
  Basis Set:
  @DF-RHF Final Energy:  -321.73528280072742
    Total Energy =                       -321.7352828007273615
    Molecular point group: c1
  Basis Set: 6-31G*
  Basis Set:
  Basis Set: 6-31G*
  Basis Set:
  @DF-RHF Final Energy:  -321.73122299658723
    Total Energy =                       -321.7312229965874053
  Basis Set: 6-31G*
  Basis Set:
  Basis Set: 6-31G*
  Basis Set:
  @DF-RHF Final Energy:  -321.73491728553188
    Total Energy =                       -321.7349172855319921
  Basis Set: 6-31G*
  Basis Set:
  Basis Set: 6-31G*
  Basis Set:
  @DF-RHF Final Energy:  -321.73551427771088
    Total Energy =                       -321.7355142777108767
  Basis Set: 6-31G*
  Basis Set:
  Basis Set: 6-31G*
  Basis Set:
  @DF-RHF Final Energy:  -321.73551669642097
    Total Energy =                       -321.7355166964212003
  Basis Set: 6-31G*
  Basis Set:
  Basis Set: 6-31G*
  Basis Set:
  @DF-RHF Final Energy:  -321.73551850586529
    Total Energy =                       -321.7355185058653433
  Basis Set: 6-31G*
  Basis Set:
  Charge       = 0
  Multiplicity = 1
  Basis Set: 6-31G*
  Basis Set:

    Orbital Energies (a.u.)
    -----------------------

    Doubly Occupied:

       1A    -20.603089     2A    -20.598996     3A    -15.847440
       4A    -11.299643     5A    -11.254928     6A    -11.239223
       7A     -1.631040     8A     -1.416413     9A     -1.134550
      10A     -1.028192    11A     -0.884336    12A     -0.831297
      13A     -0.759419    14A     -0.737370    15A     -0.723907
      16A     -0.668973    17A     -0.604956    18A     -0.586129
      19A     -0.550715    20A     -0.522386    21A     -0.512578
      22A     -0.484273    23A     -0.473454    24A     -0.448533

  @DF-RHF Final Energy:  -321.73551853141339

   => Energetics <=

    Nuclear Repulsion Energy =            247.2605165948480135
    One-Electron Energy =                -928.3083944576694648
    Two-Electron Energy =                 359.3123593314080040
    DFT Exchange-Correlation Energy =       0.0000000000000000
    Empirical Dispersion Energy =           0.0000000000000000
    PCM Polarization Energy =               0.0000000000000000
    EFP Energy =                            0.0000000000000000
    Total Energy =                       -321.7355185314134474
    Molecular point group: c1
  Basis Set: 6-31G*
  Basis Set:

  -Total Gradient:
     Atom            X                  Y                   Z
    ------   -----------------  -----------------  -----------------
       1        0.000000484740     0.000004768480     0.000003165257
       2        0.000002865692     0.000013534319     0.000002524323
       3       -0.000012316545     0.000175433746     0.000052935065
       4        0.000002001013    -0.000003829515    -0.000006774432
       5       -0.000001666953    -0.000004319673     0.000004544677
       6        0.000020835641    -0.000275027446    -0.000150826275
       7       -0.000000936872    -0.000002303656     0.000005211302
       8        0.000002543394    -0.000003325035    -0.000015872823
       9       -0.000109191293     0.000171875896     0.000310716898
      10       -0.000004209247     0.000001022863     0.000001151325
      11        0.000000798988    -0.000000798320     0.000001691766
      12        0.000091586370    -0.000077202617    -0.000213364833
      13        0.000007205069     0.000000170958     0.000004897750

  **** Optimization is complete! (in 7 steps) ****
    Final optimized geometry and variables:
    Molecular point group: c1

    Geometry (in Angstrom), charge = 0, multiplicity = 1:

    H            3.476788978934     0.167529484549    -0.763290961636
    C            2.761198742240    -0.046116445622     0.022331368741
    C            1.334315408094     0.127130409420    -0.497099843757
    H            2.939436276173    -1.060431663006     0.365708880096
    H            2.965577495454     0.628553932879     0.848162224312
    C            0.316030641212    -0.168887245785     0.599238937076
    H            1.160596268436    -0.543971010936    -1.332615060349
    H            1.182465968758     1.136823427626    -0.855658630521
    N           -1.070910109992    -0.012876471784     0.085911623250
    H            0.383796483451    -1.178405208076     0.969609779471
    H            0.399929701937     0.534449418877     1.416067574625
    O           -1.375188110840     1.063054193809    -0.331891703693
    O           -1.785127306804    -0.965978989270     0.122467224557

  Mulliken Charges: (a.u.)
   Center  Symbol    Alpha    Beta     Spin     Total
       1     H     0.40740  0.40740  0.00000  0.18520
       2     C     3.24866  3.24866  0.00000 -0.49731
       3     C     3.17217  3.17217  0.00000 -0.34434
       4     H     0.41512  0.41512  0.00000  0.16976
       5     H     0.41517  0.41517  0.00000  0.16966
       6     C     3.08581  3.08581  0.00000 -0.17161
       7     H     0.40460  0.40460  0.00000  0.19079
       8     H     0.39399  0.39399  0.00000  0.21201
       9     N     3.22250  3.22250  0.00000  0.55499
      10     H     0.38628  0.38628  0.00000  0.22743
      11     H     0.38856  0.38856  0.00000  0.22288
      12     O     4.23135  4.23135  0.00000 -0.46270
      13     O     4.22838  4.22838  0.00000 -0.45676

   Total alpha = 24.00000, Total beta = 24.00000, Total charge = -0.00000
