  ==> Input File <==

--------------------------------------------------------------------------
set {
	reference rhf
	basis 6-31G*
}

set_num_threads( 4 )
memory 2 gb

molecule MOL {
0 1

H	 -1.570523	 -1.456917	 -0.230224
O	 -2.310168	 -0.871793	 -0.309793
C	 -2.026376	 0.340750	 0.341611
C	 -0.673256	 0.843270	 -0.132153
H	 -2.792215	 1.080697	 0.115987
H	 -2.013526	 0.200402	 1.421792
C	 0.486613	 -0.083066	 0.235839
H	 -0.715586	 0.970948	 -1.210718
H	 -0.508072	 1.829858	 0.297090
C	 1.840406	 0.433480	 -0.254303
H	 0.300215	 -1.068318	 -0.178947
H	 0.519509	 -0.203625	 1.318070
C	 3.000220	 -0.489290	 0.118523
H	 1.809207	 0.553576	 -1.335192
H	 2.021860	 1.424500	 0.157276
H	 2.864959	 -1.479103	 -0.307933
H	 3.946603	 -0.099227	 -0.243630
H	 3.080049	 -0.602997	 1.196117

	symmetry c1
}
set optking {
	frozen_dihedral = ("
		1 2 3 4
	")
}

ee = optimize('scf')
oeprop('DIPOLE', 'QUADRUPOLE', 'MULLIKEN_CHARGES')
f=open( 'psi4out.xyz', 'w' )
f.write( "18  " )
f.write( str(ee) + "\n" )
f.write( MOL.save_string_xyz() )
f.close()
--------------------------------------------------------------------------

    Molecular point group: c1
  Charge       = 0
  Multiplicity = 1
  Basis Set: 6-31G*
  Basis Set:
  @DF-RHF Final Energy:  -271.17587253031741
    Total Energy =                       -271.1758725303172923
    Molecular point group: c1
  Basis Set: 6-31G*
  Basis Set:
  Basis Set: 6-31G*
  Basis Set:
  @DF-RHF Final Energy:  -271.17767333402912
    Total Energy =                       -271.1776733340291230
  Basis Set: 6-31G*
  Basis Set:
  Basis Set: 6-31G*
  Basis Set:
  @DF-RHF Final Energy:  -271.17860262325257
    Total Energy =                       -271.1786026232521749
  Basis Set: 6-31G*
  Basis Set:
  Basis Set: 6-31G*
  Basis Set:
  @DF-RHF Final Energy:  -271.17865635907953
    Total Energy =                       -271.1786563590793548
  Basis Set: 6-31G*
  Basis Set:
  Basis Set: 6-31G*
  Basis Set:
  @DF-RHF Final Energy:  -271.17866407648995
    Total Energy =                       -271.1786640764898948
  Basis Set: 6-31G*
  Basis Set:
  Charge       = 0
  Multiplicity = 1
  Basis Set: 6-31G*
  Basis Set:

    Orbital Energies (a.u.)
    -----------------------

    Doubly Occupied:

       1A    -20.550958     2A    -11.266847     3A    -11.225252
       4A    -11.222435     5A    -11.219509     6A    -11.214039
       7A     -1.358427     8A     -1.085799     9A     -1.014128
      10A     -0.923580    11A     -0.832782    12A     -0.796320
      13A     -0.685707    14A     -0.653451    15A     -0.616941
      16A     -0.611401    17A     -0.577192    18A     -0.564383
      19A     -0.530908    20A     -0.510570    21A     -0.495979
      22A     -0.478312    23A     -0.472648    24A     -0.451919
      25A     -0.428073

  @DF-RHF Final Energy:  -271.17866430484059

   => Energetics <=

    Nuclear Repulsion Energy =            248.6871020649852824
    One-Electron Energy =                -860.1564091164663068
    Two-Electron Energy =                 340.2906427466401738
    DFT Exchange-Correlation Energy =       0.0000000000000000
    Empirical Dispersion Energy =           0.0000000000000000
    PCM Polarization Energy =               0.0000000000000000
    EFP Energy =                            0.0000000000000000
    Total Energy =                       -271.1786643048408223
    Molecular point group: c1
  Basis Set: 6-31G*
  Basis Set:

  -Total Gradient:
     Atom            X                  Y                   Z
    ------   -----------------  -----------------  -----------------
       1        0.000709695644     0.000629924551    -0.001794260004
       2       -0.000615808693    -0.001048924995     0.002615710097
       3       -0.000669048913     0.001092373693    -0.001762362846
       4        0.000601845205    -0.000670542609     0.000952659672
       5        0.000001200702    -0.000005176139    -0.000001954416
       6       -0.000004093720    -0.000004347139    -0.000002109326
       7       -0.000003704359     0.000002457968    -0.000013177489
       8       -0.000021737030    -0.000003181432    -0.000001899210
       9        0.000015929563     0.000007845717    -0.000007852925
      10       -0.000002642803     0.000011836556     0.000017769923
      11        0.000011534144    -0.000017356846     0.000012874523
      12       -0.000019227426    -0.000003304020    -0.000004075577
      13       -0.000012804345    -0.000003929741    -0.000015030138
      14        0.000007186156     0.000004199622     0.000004067458
      15        0.000009071572     0.000006518557     0.000004618135
      16       -0.000000044665    -0.000006088044     0.000003494437
      17       -0.000005174019     0.000000836978    -0.000005527357
      18       -0.000002177016     0.000006857325    -0.000002944958

  **** Optimization is complete! (in 6 steps) ****
    Final optimized geometry and variables:
    Molecular point group: c1

    Geometry (in Angstrom), charge = 0, multiplicity = 1:

    H           -1.765985166483    -1.505713394096    -0.187917355721
    O           -2.454482030122    -0.859281185187    -0.242892996659
    C           -2.025586570148     0.345468467466     0.336555660318
    C           -0.666772968211     0.821407676415    -0.167490402973
    H           -2.785655149129     1.075621882997     0.091004680829
    H           -2.001808391594     0.254028126296     1.422266138038
    C            0.500749519284    -0.096890309232     0.204557446521
    H           -0.714755692478     0.935030525663    -1.247752715526
    H           -0.484193040520     1.811439976773     0.245871239337
    C            1.857936771242     0.450210999235    -0.242413815738
    H            0.362672713993    -1.080002781139    -0.243959532181
    H            0.512084924364    -0.249544900663     1.282850794761
    C            3.022053548484    -0.471619773463     0.118075301330
    H            1.843092833953     0.610805459407    -1.317966546006
    H            2.016416030955     1.426531351311     0.210061908560
    H            2.910640048708    -1.445987701933    -0.349284478448
    H            3.968865250190    -0.054554958939    -0.210205518714
    H            3.082952953327    -0.625465031847     1.191735367720

  Mulliken Charges: (a.u.)
   Center  Symbol    Alpha    Beta     Spin     Total
       1     H     0.27896  0.27896  0.00000  0.44208
       2     O     4.37396  4.37396  0.00000 -0.74792
       3     C     2.98920  2.98920  0.00000  0.02160
       4     C     3.17013  3.17013  0.00000 -0.34027
       5     H     0.41516  0.41516  0.00000  0.16969
       6     H     0.43220  0.43220  0.00000  0.13560
       7     C     3.16050  3.16050  0.00000 -0.32099
       8     H     0.41485  0.41485  0.00000  0.17031
       9     H     0.42151  0.42151  0.00000  0.15698
      10     C     3.15047  3.15047  0.00000 -0.30094
      11     H     0.42990  0.42990  0.00000  0.14021
      12     H     0.42132  0.42132  0.00000  0.15736
      13     C     3.23994  3.23994  0.00000 -0.47989
      14     H     0.42045  0.42045  0.00000  0.15911
      15     H     0.42130  0.42130  0.00000  0.15740
      16     H     0.42136  0.42136  0.00000  0.15727
      17     H     0.41766  0.41766  0.00000  0.16467
      18     H     0.42113  0.42113  0.00000  0.15774

   Total alpha = 25.00000, Total beta = 25.00000, Total charge = -0.00000
