  ==> Input File <==

--------------------------------------------------------------------------
set {
	reference rhf
	basis 6-31G*
}

set_num_threads( 4 )
memory 2 gb

molecule MOL {
0 1

O	 -2.324561	 1.361987	 -0.277663
C	 -2.105885	 0.203427	 -0.092314
C	 -0.889235	 -0.467034	 -0.705952
C	 -3.002843	 -0.643787	 0.782369
C	 0.379448	 -0.143569	 0.099626
H	 -0.781422	 -0.090588	 -1.717371
H	 -1.031446	 -1.542684	 -0.758670
C	 1.631333	 -0.777471	 -0.511575
H	 0.482768	 0.934507	 0.149241
H	 0.263088	 -0.495696	 1.123449
C	 2.915987	 -0.544314	 0.291766
H	 1.766672	 -0.399098	 -1.523130
H	 1.471257	 -1.849544	 -0.605828
C	 3.373361	 0.914346	 0.347591
H	 3.708709	 -1.142521	 -0.150311
H	 2.780642	 -0.921148	 1.303579
H	 3.506512	 1.320010	 -0.651625
H	 4.322697	 0.999599	 0.867103
H	 2.660624	 1.545032	 0.868198
H	 -3.496776	 -1.398703	 0.176238
H	 -3.747991	 -0.022874	 1.259869
H	 -2.421560	 -1.168010	 1.535432

	symmetry c1
}
set optking {
	frozen_dihedral = ("
		6 3 5 8
	")
}

ee = optimize('scf')
oeprop('DIPOLE', 'QUADRUPOLE', 'MULLIKEN_CHARGES')
f=open( 'psi4out.xyz', 'w' )
f.write( "22  " )
f.write( str(ee) + "\n" )
f.write( MOL.save_string_xyz() )
f.close()
--------------------------------------------------------------------------

    Molecular point group: c1
  Charge       = 0
  Multiplicity = 1
  Basis Set: 6-31G*
  Basis Set:
  @DF-RHF Final Energy:  -348.09833232173042
    Total Energy =                       -348.0983323217304815
    Molecular point group: c1
  Basis Set: 6-31G*
  Basis Set:
  Basis Set: 6-31G*
  Basis Set:
  @DF-RHF Final Energy:  -348.09815260760053
    Total Energy =                       -348.0981526076005821
  Basis Set: 6-31G*
  Basis Set:
  Basis Set: 6-31G*
  Basis Set:
  @DF-RHF Final Energy:  -348.09833304815828
    Total Energy =                       -348.0983330481583380
  Basis Set: 6-31G*
  Basis Set:
  Basis Set: 6-31G*
  Basis Set:
  @DF-RHF Final Energy:  -348.09833045143910
    Total Energy =                       -348.0983304514395513
  Basis Set: 6-31G*
  Basis Set:
  Basis Set: 6-31G*
  Basis Set:
  @DF-RHF Final Energy:  -348.09833374760746
    Total Energy =                       -348.0983337476075121
  Basis Set: 6-31G*
  Basis Set:
  Charge       = 0
  Multiplicity = 1
  Basis Set: 6-31G*
  Basis Set:

    Orbital Energies (a.u.)
    -----------------------

    Doubly Occupied:

       1A    -20.547363     2A    -11.324500     3A    -11.229576
       4A    -11.229000     5A    -11.228224     6A    -11.222394
       7A    -11.220654     8A    -11.211079     9A     -1.393137
      10A     -1.095668    11A     -1.044255    12A     -0.999488
      13A     -0.937685    14A     -0.857643    15A     -0.786448
      16A     -0.732938    17A     -0.662773    18A     -0.643703
      19A     -0.625953    20A     -0.620669    21A     -0.596719
      22A     -0.583137    23A     -0.562820    24A     -0.541129
      25A     -0.534528    26A     -0.519476    27A     -0.497770
      28A     -0.488067    29A     -0.470730    30A     -0.464161
      31A     -0.459789    32A     -0.396224

  @DF-RHF Final Energy:  -348.09833401197761

   => Energetics <=

    Nuclear Repulsion Energy =            372.9603928392964463
    One-Electron Energy =               -1210.6620508294072351
    Two-Electron Energy =                 489.6033239781331758
    DFT Exchange-Correlation Energy =       0.0000000000000000
    Empirical Dispersion Energy =           0.0000000000000000
    PCM Polarization Energy =               0.0000000000000000
    EFP Energy =                            0.0000000000000000
    Total Energy =                       -348.0983340119776130
    Molecular point group: c1
  Basis Set: 6-31G*
  Basis Set:

  -Total Gradient:
     Atom            X                  Y                   Z
    ------   -----------------  -----------------  -----------------
       1        0.000008958918    -0.000008024831     0.000018479340
       2       -0.000027158289    -0.000005310417    -0.000037085763
       3        0.000018053305     0.000003267248     0.000023780704
       4        0.000007429466     0.000007869961     0.000011495865
       5        0.000001601096     0.000003199182    -0.000008273252
       6        0.000003254680    -0.000004751211    -0.000000087089
       7       -0.000000668073    -0.000001609275    -0.000002062232
       8        0.000002455357    -0.000005713795     0.000003904805
       9       -0.000005350028     0.000004089192    -0.000001512814
      10        0.000000913462     0.000000052520     0.000000063379
      11       -0.000013599368    -0.000002445226     0.000009229504
      12        0.000005762612     0.000005235368     0.000005572438
      13        0.000001178674    -0.000002287830    -0.000006926188
      14        0.000003716878     0.000006028269    -0.000009045265
      15       -0.000006939655     0.000000408996    -0.000004002773
      16       -0.000003324976    -0.000006891583     0.000002001766
      17        0.000004485146     0.000007717121    -0.000003290261
      18       -0.000003071141    -0.000001477389     0.000001092999
      19        0.000002292241    -0.000002767779    -0.000001190389
      20        0.000001403299     0.000001265023    -0.000003989173
      21       -0.000002786763     0.000000724808     0.000002606372
      22        0.000001393156     0.000001421647    -0.000000761973

  **** Optimization is complete! (in 6 steps) ****
    Final optimized geometry and variables:
    Molecular point group: c1

    Geometry (in Angstrom), charge = 0, multiplicity = 1:

    O           -2.326728452520     1.360749613546    -0.281385117761
    C           -2.105414076168     0.203520108342    -0.091316771252
    C           -0.889065539496    -0.467688281349    -0.704867492516
    C           -3.002259368106    -0.643201940001     0.784149336526
    C            0.380184217271    -0.142486584580     0.098846307912
    H           -0.782455101368    -0.093175526384    -1.717158639707
    H           -1.031193804605    -1.543465775008    -0.755459494160
    C            1.631752763584    -0.777199125728    -0.512190426776
    H            0.483471349397     0.935692234640     0.146499935138
    H            0.264893913164    -0.492619477493     1.123489470478
    C            2.916470838286    -0.545075533649     0.291202762732
    H            1.767292096880    -0.398939281782    -1.523811734916
    H            1.470749055159    -1.849155557233    -0.606549700503
    C            3.372845591573     0.913792226593     0.350558974386
    H            3.709586173574    -1.141613795153    -0.152451414887
    H            2.781930616296    -0.924339613492     1.302222393006
    H            3.505880868304     1.321775880490    -0.647689962697
    H            4.322032526515     0.998387290906     0.870438515226
    H            2.659570278090     1.542825324737     0.872429569621
    H           -3.494753969314    -1.399767419887     0.178950260764
    H           -3.748512096454    -0.022167482403     1.259729510012
    H           -2.421081379629    -1.165326452528     1.538715675644

  Mulliken Charges: (a.u.)
   Center  Symbol    Alpha    Beta     Spin     Total
       1     O     4.26243  4.26243  0.00000 -0.52486
       2     C     2.73717  2.73717  0.00000  0.52565
       3     C     3.19958  3.19958  0.00000 -0.39916
       4     C     3.28951  3.28951  0.00000 -0.57901
       5     C     3.16409  3.16409  0.00000 -0.32817
       6     H     0.40117  0.40117  0.00000  0.19767
       7     H     0.41699  0.41699  0.00000  0.16602
       8     C     3.15258  3.15258  0.00000 -0.30516
       9     H     0.40360  0.40360  0.00000  0.19281
      10     H     0.42139  0.42139  0.00000  0.15722
      11     C     3.15332  3.15332  0.00000 -0.30664
      12     H     0.42059  0.42059  0.00000  0.15882
      13     H     0.42194  0.42194  0.00000  0.15612
      14     C     3.24207  3.24207  0.00000 -0.48414
      15     H     0.41955  0.41955  0.00000  0.16090
      16     H     0.42301  0.42301  0.00000  0.15397
      17     H     0.42074  0.42074  0.00000  0.15852
      18     H     0.41825  0.41825  0.00000  0.16349
      19     H     0.41831  0.41831  0.00000  0.16338
      20     H     0.40686  0.40686  0.00000  0.18628
      21     H     0.39710  0.39710  0.00000  0.20581
      22     H     0.40975  0.40975  0.00000  0.18050

   Total alpha = 32.00000, Total beta = 32.00000, Total charge =  0.00000
