  ==> Input File <==

--------------------------------------------------------------------------
set {
	reference rhf
	basis 6-31G*
}

set_num_threads( 1 )
memory 2 gb

molecule MOL {
0 1

H	 -2.202823	 -1.015365	 0.671801
O	 -2.347518	 -0.290803	 0.079804
C	 -1.184022	 0.487508	 -0.006784
C	 0.062599	 -0.378592	 0.031606
H	 -1.176523	 1.099369	 -0.904519
H	 -1.187323	 1.153111	 0.844927
O	 1.171513	 0.459272	 -0.058250
H	 0.050699	 -1.089204	 -0.797170
H	 0.078739	 -0.954914	 0.954740
C	 2.397842	 -0.198080	 -0.002151
H	 2.508049	 -0.905315	 -0.822092
H	 3.173794	 0.550865	 -0.078850
H	 2.517602	 -0.735921	 0.936026

	symmetry c1
}
set optking {
	frozen_dihedral = ("
		8 4 3 5,
		10 7 4 8,
		4 7 10 13
	")
}

ee = energy('scf')
oeprop('DIPOLE', 'QUADRUPOLE', 'MULLIKEN_CHARGES')
f=open( 'psi4out.xyz', 'w' )
f.write( "13  " )
f.write( str(ee) + "\n" )
f.write( MOL.save_string_xyz() )
f.close()
--------------------------------------------------------------------------

    Molecular point group: c1

    Geometry (in Angstrom), charge = 0, multiplicity = 1:

       Center              X                  Y                   Z               Mass
    ------------   -----------------  -----------------  -----------------  -----------------
           H         -2.206749000524    -1.011584164289     0.653024907271     1.007825032070
           O         -2.351444000524    -0.287022164289     0.061027907271    15.994914619560
           C         -1.187948000524     0.491288835711    -0.025560092729    12.000000000000
           C          0.058672999476    -0.374811164289     0.012829907271    12.000000000000
           H         -1.180449000524     1.103149835711    -0.923295092729     1.007825032070
           H         -1.191249000524     1.156891835711     0.826150907271     1.007825032070
           O          1.167586999476     0.463052835711    -0.077026092729    15.994914619560
           H          0.046772999476    -1.085423164289    -0.815946092729     1.007825032070
           H          0.074812999476    -0.951133164289     0.935963907271     1.007825032070
           C          2.393915999476    -0.194299164289    -0.020927092729    12.000000000000
           H          2.504122999476    -0.901534164289    -0.840868092729     1.007825032070
           H          3.169867999476     0.554645835711    -0.097626092729     1.007825032070
           H          2.513675999476    -0.732140164289     0.917249907271     1.007825032070

  Charge       = 0
  Multiplicity = 1
  Basis Set: 6-31G*
  Basis Set:

    Orbital Energies (a.u.)
    -----------------------

    Doubly Occupied:

       1A    -20.566898     2A    -20.557646     3A    -11.277946
       4A    -11.273377     5A    -11.268910     6A     -1.393023
       7A     -1.364727     8A     -1.021131     9A     -0.915097
      10A     -0.849771    11A     -0.700439    12A     -0.680115
      13A     -0.669245    14A     -0.632752    15A     -0.602045
      16A     -0.578598    17A     -0.547432    18A     -0.495419
      19A     -0.474843    20A     -0.438284    21A     -0.426369

  @DF-RHF Final Energy:  -267.94702756102083

   => Energetics <=

    Nuclear Repulsion Energy =            190.5053051735494307
    One-Electron Energy =                -743.4364096331860310
    Two-Electron Energy =                 284.9840768986150579
    DFT Exchange-Correlation Energy =       0.0000000000000000
    Empirical Dispersion Energy =           0.0000000000000000
    PCM Polarization Energy =               0.0000000000000000
    EFP Energy =                            0.0000000000000000
    Total Energy =                       -267.9470275610215140

  Mulliken Charges: (a.u.)
   Center  Symbol    Alpha    Beta     Spin     Total
       1     H     0.28151  0.28151  0.00000  0.43697
       2     O     4.37408  4.37408  0.00000 -0.74816
       3     C     2.99197  2.99197  0.00000  0.01607
       4     C     3.00782  3.00782  0.00000 -0.01563
       5     H     0.40885  0.40885  0.00000  0.18231
       6     H     0.42170  0.42170  0.00000  0.15659
       7     O     4.30587  4.30587  0.00000 -0.61175
       8     H     0.42419  0.42419  0.00000  0.15161
       9     H     0.43711  0.43711  0.00000  0.12578
      10     C     3.08111  3.08111  0.00000 -0.16222
      11     H     0.42768  0.42768  0.00000  0.14465
      12     H     0.40951  0.40951  0.00000  0.18098
      13     H     0.42861  0.42861  0.00000  0.14279

   Total alpha = 21.00000, Total beta = 21.00000, Total charge =  0.00000
