  ==> Input File <==

--------------------------------------------------------------------------
set {
	reference rhf
	basis 6-31G*
}

set_num_threads( 1 )
memory 2 gb

molecule MOL {
0 1

O	 1.685212	 0.526710	 0.965188
C	 1.122059	 0.121804	 -0.000188
C	 -0.170150	 -0.657997	 -0.000612
O	 1.570776	 0.309066	 -1.234919
C	 -1.412532	 0.227344	 -0.000452
H	 -0.153702	 -1.313099	 -0.867402
H	 -0.153924	 -1.313811	 0.865644
C	 -2.706999	 -0.587347	 -0.000541
H	 -1.388000	 0.879466	 -0.868000
H	 -1.387972	 0.879138	 0.867341
C	 -3.956778	 0.291888	 0.000910
H	 -2.726114	 -1.239230	 -0.871609
H	 -2.725217	 -1.240844	 0.869333
H	 -3.985213	 0.933254	 -0.875158
H	 -4.860123	 -0.309979	 0.000519
H	 -3.984618	 0.931166	 0.878514
C	 2.781260	 1.030086	 -1.376337
H	 2.679517	 2.026648	 -0.971368
H	 2.975661	 1.075334	 -2.436578
H	 3.588196	 0.521195	 -0.868998

	symmetry c1
}
set optking {
	frozen_dihedral = ("
		9 5 8 12,
		9 5 3 6,
		1 2 4 17
	")
}

ee = energy('scf')
oeprop('DIPOLE', 'QUADRUPOLE', 'MULLIKEN_CHARGES')
f=open( 'psi4out.xyz', 'w' )
f.write( "20  " )
f.write( str(ee) + "\n" )
f.write( MOL.save_string_xyz() )
f.close()
--------------------------------------------------------------------------

    Molecular point group: c1

    Geometry (in Angstrom), charge = 0, multiplicity = 1:

       Center              X                  Y                   Z               Mass
    ------------   -----------------  -----------------  -----------------  -----------------
           O          1.790780542414     0.351654859431     1.181860913780    15.994914619560
           C          1.227627542414    -0.053251140569     0.216484913780    12.000000000000
           C         -0.064581457586    -0.833052140569     0.216060913780    12.000000000000
           O          1.676344542414     0.134010859431    -1.018246086220    15.994914619560
           C         -1.306963457586     0.052288859431     0.216220913780    12.000000000000
           H         -0.048133457586    -1.488154140569    -0.650729086220     1.007825032070
           H         -0.048355457586    -1.488866140569     1.082316913780     1.007825032070
           C         -2.601430457586    -0.762402140569     0.216131913780    12.000000000000
           H         -1.282431457586     0.704410859431    -0.651327086220     1.007825032070
           H         -1.282403457586     0.704082859431     1.084013913780     1.007825032070
           C         -3.851209457586     0.116832859431     0.217582913780    12.000000000000
           H         -2.620545457586    -1.414285140569    -0.654936086220     1.007825032070
           H         -2.619648457586    -1.415899140569     1.086005913780     1.007825032070
           H         -3.879644457586     0.758198859431    -0.658485086220     1.007825032070
           H         -4.754554457586    -0.485034140569     0.217191913780     1.007825032070
           H         -3.879049457586     0.756110859431     1.095186913780     1.007825032070
           C          2.886828542414     0.855030859431    -1.159664086220    12.000000000000
           H          2.785085542414     1.851592859431    -0.754695086220     1.007825032070
           H          3.081229542414     0.900278859431    -2.219905086220     1.007825032070
           H          3.693764542414     0.346139859431    -0.652325086220     1.007825032070

  Charge       = 0
  Multiplicity = 1
  Basis Set: 6-31G*
  Basis Set:

    Orbital Energies (a.u.)
    -----------------------

    Doubly Occupied:

       1A    -20.604315     2A    -20.543400     3A    -11.371013
       4A    -11.280311     5A    -11.233430     6A    -11.229877
       7A    -11.224825     8A    -11.214450     9A     -1.468737
      10A     -1.361391    11A     -1.093427    12A     -1.025494
      13A     -0.968338    14A     -0.890049    15A     -0.808614
      16A     -0.772961    17A     -0.693544    18A     -0.679526
      19A     -0.673250    20A     -0.646416    21A     -0.599740
      22A     -0.591601    23A     -0.573165    24A     -0.554993
      25A     -0.534070    26A     -0.520797    27A     -0.507701
      28A     -0.484003    29A     -0.481818    30A     -0.475225
      31A     -0.453617    32A     -0.430074

  @DF-RHF Final Energy:  -383.93939788780887

   => Energetics <=

    Nuclear Repulsion Energy =            382.1954273305399852
    One-Electron Energy =               -1280.2893618769592194
    Two-Electron Energy =                 514.1545366586101409
    DFT Exchange-Correlation Energy =       0.0000000000000000
    Empirical Dispersion Energy =           0.0000000000000000
    PCM Polarization Energy =               0.0000000000000000
    EFP Energy =                            0.0000000000000000
    Total Energy =                       -383.9393978878090365

  Mulliken Charges: (a.u.)
   Center  Symbol    Alpha    Beta     Spin     Total
       1     O     4.28481  4.28481  0.00000 -0.56962
       2     C     2.61694  2.61694  0.00000  0.76613
       3     C     3.19604  3.19604  0.00000 -0.39207
       4     O     4.30227  4.30227  0.00000 -0.60454
       5     C     3.16207  3.16207  0.00000 -0.32414
       6     H     0.40370  0.40370  0.00000  0.19261
       7     H     0.40156  0.40156  0.00000  0.19688
       8     C     3.15365  3.15365  0.00000 -0.30730
       9     H     0.41316  0.41316  0.00000  0.17367
      10     H     0.40900  0.40900  0.00000  0.18199
      11     C     3.24044  3.24044  0.00000 -0.48088
      12     H     0.42036  0.42036  0.00000  0.15929
      13     H     0.41951  0.41951  0.00000  0.16097
      14     H     0.42033  0.42033  0.00000  0.15934
      15     H     0.41733  0.41733  0.00000  0.16534
      16     H     0.41941  0.41941  0.00000  0.16118
      17     C     3.09284  3.09284  0.00000 -0.18569
      18     H     0.40911  0.40911  0.00000  0.18179
      19     H     0.40877  0.40877  0.00000  0.18246
      20     H     0.40870  0.40870  0.00000  0.18259

   Total alpha = 32.00000, Total beta = 32.00000, Total charge = -0.00000
