  ==> Input File <==

--------------------------------------------------------------------------
set {
	reference rhf
	basis 6-31G*
}

set_num_threads( 4 )
memory 2 gb

molecule MOL {
0 1

O	 0.451807	 0.686399	 -0.927619
C	 0.028650	 0.075053	 -0.000277
C	 -1.233602	 -0.752807	 0.000328
O	 0.626659	 0.041926	 1.183441
C	 -2.501530	 0.091881	 0.000126
H	 -1.193807	 -1.406641	 -0.865785
H	 -1.193516	 -1.405779	 0.867015
H	 -2.545121	 0.729328	 -0.874513
H	 -3.377167	 -0.548497	 0.000561
H	 -2.544818	 0.730135	 0.874258
C	 1.826747	 0.781696	 1.318043
H	 2.574304	 0.421852	 0.625883
H	 2.154361	 0.629988	 2.334663
H	 1.648540	 1.831477	 1.134540

	symmetry c1
}
set optking {
	frozen_dihedral = ("
		4 2 3 6
	")
}

ee = optimize('scf')
oeprop('DIPOLE', 'QUADRUPOLE', 'MULLIKEN_CHARGES')
f=open( 'psi4out.xyz', 'w' )
f.write( "14  " )
f.write( str(ee) + "\n" )
f.write( MOL.save_string_xyz() )
f.close()
--------------------------------------------------------------------------

    Molecular point group: c1
  Charge       = 0
  Multiplicity = 1
  Basis Set: 6-31G*
  Basis Set:
  @DF-RHF Final Energy:  -305.86953185558298
    Total Energy =                       -305.8695318555829772
    Molecular point group: c1
  Basis Set: 6-31G*
  Basis Set:
  Basis Set: 6-31G*
  Basis Set:
  @DF-RHF Final Energy:  -305.87008157804712
    Total Energy =                       -305.8700815780468929
  Basis Set: 6-31G*
  Basis Set:
  Basis Set: 6-31G*
  Basis Set:
  @DF-RHF Final Energy:  -305.86841300177593
    Total Energy =                       -305.8684130017757070
  Basis Set: 6-31G*
  Basis Set:
  Basis Set: 6-31G*
  Basis Set:
  @DF-RHF Final Energy:  -305.87027470492819
    Total Energy =                       -305.8702747049280219
  Basis Set: 6-31G*
  Basis Set:
  Basis Set: 6-31G*
  Basis Set:
  @DF-RHF Final Energy:  -305.87028239212600
    Total Energy =                       -305.8702823921259437
  Basis Set: 6-31G*
  Basis Set:
  Charge       = 0
  Multiplicity = 1
  Basis Set: 6-31G*
  Basis Set:

    Orbital Energies (a.u.)
    -----------------------

    Doubly Occupied:

       1A    -20.606744     2A    -20.543010     3A    -11.372138
       4A    -11.281423     5A    -11.237135     6A    -11.225372
       7A     -1.470346     8A     -1.362230     9A     -1.065694
      10A     -0.979311    11A     -0.881428    12A     -0.773138
      13A     -0.698441    14A     -0.679667    15A     -0.672935
      16A     -0.616740    17A     -0.600711    18A     -0.563387
      19A     -0.540633    20A     -0.519230    21A     -0.509038
      22A     -0.502806    23A     -0.455188    24A     -0.435530

  @DF-RHF Final Energy:  -305.87028268656388

   => Energetics <=

    Nuclear Repulsion Energy =            247.5775670202730510
    One-Electron Energy =                -907.7111491173184277
    Two-Electron Energy =                 354.2632994104816362
    DFT Exchange-Correlation Energy =       0.0000000000000000
    Empirical Dispersion Energy =           0.0000000000000000
    PCM Polarization Energy =               0.0000000000000000
    EFP Energy =                            0.0000000000000000
    Total Energy =                       -305.8702826865637689
    Molecular point group: c1
  Basis Set: 6-31G*
  Basis Set:

  -Total Gradient:
     Atom            X                  Y                   Z
    ------   -----------------  -----------------  -----------------
       1       -0.000011140952    -0.000025882822     0.000048150164
       2        0.000081773449    -0.000125304557    -0.000230696961
       3        0.000087136099    -0.000133518836     0.000181040386
       4       -0.000053910324     0.000138334447     0.000109204405
       5        0.000021603010    -0.000002082915    -0.000005491478
       6       -0.000101376890     0.000147396619    -0.000104276236
       7       -0.000002348799    -0.000001172249    -0.000002613231
       8        0.000002999960     0.000010947419     0.000009211989
       9        0.000000791782    -0.000006817613    -0.000002281200
      10       -0.000007010102     0.000000679295    -0.000003644581
      11       -0.000041697637    -0.000008321444    -0.000002481278
      12        0.000008230967     0.000001557020    -0.000001190515
      13        0.000005766743     0.000001035140     0.000002167664
      14        0.000009182693     0.000003150497     0.000002900871

  **** Optimization is complete! (in 6 steps) ****
    Final optimized geometry and variables:
    Molecular point group: c1

    Geometry (in Angstrom), charge = 0, multiplicity = 1:

    O            0.502697173237     0.541902756488    -1.175761035773
    C            0.133917010849    -0.109367668881    -0.250970250714
    C           -1.119863559160    -0.950648995935    -0.254964217557
    O            0.773468299711    -0.152210006763     0.908638757927
    C           -2.369725148977    -0.064360282847    -0.302348593104
    H           -1.083244004752    -1.574325625374    -1.140955112609
    H           -1.133718277255    -1.590959682757     0.616830021301
    H           -2.349922384532     0.576538006666    -1.175239875822
    H           -3.262455265132    -0.678024944500    -0.347170927654
    H           -2.438849148435     0.562345575296     0.580887789567
    C            1.951395317477     0.626675249867     1.020136471563
    H            2.684241514835     0.311992627946     0.291342367400
    H            2.321494135179     0.460237156769     2.019705507296
    H            1.729259562904     1.673539005995     0.871522364625

  Mulliken Charges: (a.u.)
   Center  Symbol    Alpha    Beta     Spin     Total
       1     O     4.28625  4.28625  0.00000 -0.57249
       2     C     2.61297  2.61297  0.00000  0.77405
       3     C     3.19897  3.19897  0.00000 -0.39794
       4     O     4.30231  4.30231  0.00000 -0.60462
       5     C     3.24956  3.24956  0.00000 -0.49912
       6     H     0.40016  0.40016  0.00000  0.19968
       7     H     0.40114  0.40114  0.00000  0.19772
       8     H     0.40337  0.40337  0.00000  0.19326
       9     H     0.41273  0.41273  0.00000  0.17454
      10     H     0.41384  0.41384  0.00000  0.17232
      11     C     3.09349  3.09349  0.00000 -0.18699
      12     H     0.40821  0.40821  0.00000  0.18357
      13     H     0.40839  0.40839  0.00000  0.18321
      14     H     0.40860  0.40860  0.00000  0.18280

   Total alpha = 24.00000, Total beta = 24.00000, Total charge = -0.00000
