  ==> Input File <==

--------------------------------------------------------------------------
set {
	reference rhf
	basis 6-31G*
}

set_num_threads( 4 )
memory 2 gb

molecule MOL {
0 1

H	 -4.283146	 -0.087178	 -1.228178
O	 -3.452007	 0.283848	 -0.965577
C	 -3.181085	 -0.079926	 0.364119
C	 -1.765924	 0.277073	 0.805136
H	 -3.327791	 -1.152017	 0.410903
H	 -3.905698	 0.375695	 1.036898
C	 -0.677594	 -0.417312	 -0.014550
H	 -1.637766	 1.358238	 0.744969
H	 -1.659588	 0.017670	 1.857098
C	 0.738335	 -0.034840	 0.421385
H	 -0.814977	 -0.178223	 -1.064632
H	 -0.802730	 -1.495410	 0.071702
C	 1.822265	 -0.738362	 -0.399735
H	 0.853533	 1.043532	 0.342250
H	 0.871597	 -0.279636	 1.474438
C	 3.258060	 -0.455774	 0.057203
H	 1.718003	 -0.459167	 -1.447053
H	 1.651028	 -1.811884	 -0.354513
C	 3.709143	 0.994797	 -0.123830
H	 3.930637	 -1.101717	 -0.501982
H	 3.365259	 -0.739518	 1.102287
H	 3.601178	 1.310569	 -1.158127
H	 4.753787	 1.110486	 0.148516
H	 3.135362	 1.678896	 0.492569

	symmetry c1
}
set optking {
	frozen_dihedral = ("
		1 2 3 5
	")
}

ee = optimize('scf')
oeprop('DIPOLE', 'QUADRUPOLE', 'MULLIKEN_CHARGES')
f=open( 'psi4out.xyz', 'w' )
f.write( "24  " )
f.write( str(ee) + "\n" )
f.write( MOL.save_string_xyz() )
f.close()
--------------------------------------------------------------------------

    Molecular point group: c1
  Charge       = 0
  Multiplicity = 1
  Basis Set: 6-31G*
  Basis Set:
  @DF-RHF Final Energy:  -349.24580959537576
    Total Energy =                       -349.2458095953753627
    Molecular point group: c1
  Basis Set: 6-31G*
  Basis Set:
  Basis Set: 6-31G*
  Basis Set:
  @DF-RHF Final Energy:  -349.24730054045773
    Total Energy =                       -349.2473005404575588
  Basis Set: 6-31G*
  Basis Set:
  Basis Set: 6-31G*
  Basis Set:
  @DF-RHF Final Energy:  -349.24766665062515
    Total Energy =                       -349.2476666506249217
  Basis Set: 6-31G*
  Basis Set:
  Basis Set: 6-31G*
  Basis Set:
  @DF-RHF Final Energy:  -349.24767282967218
    Total Energy =                       -349.2476728296717852
  Basis Set: 6-31G*
  Basis Set:
  Basis Set: 6-31G*
  Basis Set:
  @DF-RHF Final Energy:  -349.24767415440130
    Total Energy =                       -349.2476741544013521
  Basis Set: 6-31G*
  Basis Set:
  Charge       = 0
  Multiplicity = 1
  Basis Set: 6-31G*
  Basis Set:

    Orbital Energies (a.u.)
    -----------------------

    Doubly Occupied:

       1A    -20.552869     2A    -11.267864     3A    -11.211780
       4A    -11.211538     5A    -11.208867     6A    -11.208069
       7A    -11.206347     8A    -11.204611     9A     -1.359548
      10A     -1.085034    11A     -1.045822    12A     -0.983884
      13A     -0.911967    14A     -0.843324    15A     -0.788124
      16A     -0.773105    17A     -0.705299    18A     -0.641709
      19A     -0.633568    20A     -0.609161    21A     -0.588615
      22A     -0.575458    23A     -0.556115    24A     -0.532699
      25A     -0.517284    26A     -0.503443    27A     -0.492389
      28A     -0.476370    29A     -0.466011    30A     -0.455562
      31A     -0.449166    32A     -0.442134    33A     -0.422700

  @DF-RHF Final Energy:  -349.24767393023780

   => Energetics <=

    Nuclear Repulsion Energy =            384.6964813850918858
    One-Electron Energy =               -1236.0274416854658739
    Two-Electron Energy =                 502.0832863701367614
    DFT Exchange-Correlation Energy =       0.0000000000000000
    Empirical Dispersion Energy =           0.0000000000000000
    PCM Polarization Energy =               0.0000000000000000
    EFP Energy =                            0.0000000000000000
    Total Energy =                       -349.2476739302372835
    Molecular point group: c1
  Basis Set: 6-31G*
  Basis Set:

  -Total Gradient:
     Atom            X                  Y                   Z
    ------   -----------------  -----------------  -----------------
       1        0.000296770036    -0.000475031794    -0.000186275265
       2       -0.000487876506     0.000571524808     0.000283926241
       3        0.000729596538    -0.000186868030    -0.000224319425
       4       -0.000029038803    -0.000018202606     0.000093748762
       5       -0.000520411218     0.000106845928     0.000080335095
       6        0.000028616040    -0.000010278263     0.000010271145
       7       -0.000029017307    -0.000031867102    -0.000025870806
       8       -0.000037223668     0.000012064416    -0.000008102835
       9        0.000019922724     0.000016619244    -0.000015929007
      10       -0.000004435554    -0.000013012953     0.000008403968
      11        0.000011896794     0.000001299492    -0.000004241789
      12        0.000000048789     0.000008331389    -0.000002007363
      13        0.000010840702     0.000027128263    -0.000012358643
      14       -0.000025658327    -0.000032012492    -0.000010596215
      15        0.000003733357     0.000007231021     0.000010633199
      16       -0.000012606284     0.000004391015     0.000028341748
      17       -0.000001326426     0.000023348701     0.000001752523
      18        0.000012661968    -0.000001736139    -0.000018437334
      19        0.000018518950     0.000000252219    -0.000012463071
      20       -0.000003679896    -0.000016882704     0.000012441086
      21       -0.000010329823     0.000017574517     0.000008727915
      22       -0.000006411283     0.000008036022    -0.000005695356
      23        0.000001319838    -0.000006742004    -0.000010007695
      24        0.000034089363    -0.000012012949    -0.000002276875

  **** Optimization is complete! (in 6 steps) ****
    Final optimized geometry and variables:
    Molecular point group: c1

    Geometry (in Angstrom), charge = 0, multiplicity = 1:

    H           -4.206569359816     0.004897440774    -1.268926334186
    O           -3.387098425880     0.347442527991    -0.942318939006
    C           -3.179220648734    -0.096205106607     0.375139370053
    C           -1.768724593495     0.275155232542     0.799522898557
    H           -3.318929016213    -1.174275957142     0.442345103386
    H           -3.898929190749     0.367747979040     1.047342420848
    C           -0.680062668868    -0.423378460221    -0.016466859503
    H           -1.660625985258     1.353253556179     0.713182267088
    H           -1.655121865234     0.029812068055     1.853867534239
    C            0.733723817362    -0.032664055770     0.419230499738
    H           -0.817491469566    -0.186889254930    -1.066526855554
    H           -0.799918973592    -1.502078933725     0.076806541182
    C            1.821890807320    -0.732400352964    -0.399492156921
    H            0.842161197453     1.045791077465     0.336421673602
    H            0.868201612879    -0.273801843742     1.473150209187
    C            3.256064417809    -0.441182294403     0.057208883156
    H            1.716577564250    -0.456165120275    -1.447431631036
    H            1.656670837846    -1.806968129850    -0.351803501168
    C            3.702295385402     1.009417832497    -0.135153365620
    H            3.931914887784    -1.089404215734    -0.495483588122
    H            3.362536004261    -0.715818066122     1.104858684080
    H            3.593685172321     1.316560911348    -1.171928038796
    H            4.746452709643     1.130848791862     0.136845428619
    H            3.125558263430     1.696298589265     0.475181687296

  Mulliken Charges: (a.u.)
   Center  Symbol    Alpha    Beta     Spin     Total
       1     H     0.28053  0.28053  0.00000  0.43894
       2     O     4.36977  4.36977  0.00000 -0.73954
       3     C     2.99739  2.99739  0.00000  0.00522
       4     C     3.16020  3.16020  0.00000 -0.32040
       5     H     0.43291  0.43291  0.00000  0.13418
       6     H     0.42879  0.42879  0.00000  0.14241
       7     C     3.15392  3.15392  0.00000 -0.30783
       8     H     0.41488  0.41488  0.00000  0.17024
       9     H     0.42414  0.42414  0.00000  0.15173
      10     C     3.15403  3.15403  0.00000 -0.30807
      11     H     0.40792  0.40792  0.00000  0.18417
      12     H     0.42779  0.42779  0.00000  0.14443
      13     C     3.15209  3.15209  0.00000 -0.30417
      14     H     0.42104  0.42104  0.00000  0.15792
      15     H     0.42652  0.42652  0.00000  0.14696
      16     C     3.15211  3.15211  0.00000 -0.30423
      17     H     0.42350  0.42350  0.00000  0.15299
      18     H     0.42337  0.42337  0.00000  0.15326
      19     C     3.24091  3.24091  0.00000 -0.48182
      20     H     0.42179  0.42179  0.00000  0.15642
      21     H     0.42417  0.42417  0.00000  0.15165
      22     H     0.42208  0.42208  0.00000  0.15583
      23     H     0.42016  0.42016  0.00000  0.15969
      24     H     0.41999  0.41999  0.00000  0.16003

   Total alpha = 33.00000, Total beta = 33.00000, Total charge =  0.00000
