  ==> Input File <==

--------------------------------------------------------------------------
set {
	reference rhf
	basis 6-31G*
}

set_num_threads( 4 )
memory 2 gb

molecule MOL {
0 1

O	 3.225979	 0.970355	 -0.599647
C	 2.701189	 0.057885	 -0.047330
C	 1.245376	 -0.013843	 0.345420
O	 3.347903	 -1.046386	 0.304773
C	 0.903874	 0.866067	 1.545940
H	 0.665504	 0.252352	 -0.532123
H	 1.016286	 -1.057131	 0.547324
C	 -0.545791	 0.724566	 2.022327
H	 1.110859	 1.903429	 1.300674
H	 1.572175	 0.612429	 2.361700
C	 -1.601931	 1.226899	 1.033721
H	 -0.650035	 1.277760	 2.952828
H	 -0.746924	 -0.317380	 2.267081
C	 -3.022495	 1.165965	 1.598771
H	 -1.370178	 2.253387	 0.753664
H	 -1.563750	 0.643905	 0.116315
C	 -4.086813	 1.660617	 0.617610
H	 -3.072620	 1.758405	 2.510767
H	 -3.250974	 0.141619	 1.888964
C	 -5.502197	 1.600090	 1.190957
H	 -3.859465	 2.683754	 0.325812
H	 -4.041172	 1.066804	 -0.292930
H	 -6.233686	 1.956887	 0.472468
H	 -5.589924	 2.212480	 2.083973
H	 -5.772698	 0.583143	 1.460998
C	 4.728119	 -1.109107	 -0.004993
H	 4.882018	 -1.033965	 -1.071845
H	 5.068212	 -2.067527	 0.355250
H	 5.265056	 -0.311663	 0.488280

	symmetry c1
}
set optking {
	frozen_dihedral = ("
		6 3 2 1
	")
}

ee = optimize('scf')
oeprop('DIPOLE', 'QUADRUPOLE', 'MULLIKEN_CHARGES')
f=open( 'psi4out.xyz', 'w' )
f.write( "29  " )
f.write( str(ee) + "\n" )
f.write( MOL.save_string_xyz() )
f.close()
--------------------------------------------------------------------------

    Molecular point group: c1
  Charge       = 0
  Multiplicity = 1
  Basis Set: 6-31G*
  Basis Set:
  @DF-RHF Final Energy:  -501.04173210218460
    Total Energy =                       -501.0417321021852786
    Molecular point group: c1
  Basis Set: 6-31G*
  Basis Set:
  Basis Set: 6-31G*
  Basis Set:
  @DF-RHF Final Energy:  -501.04202383461472
    Total Energy =                       -501.0420238346146107
  Basis Set: 6-31G*
  Basis Set:
  Basis Set: 6-31G*
  Basis Set:
  @DF-RHF Final Energy:  -501.04173916849754
    Total Energy =                       -501.0417391684972017
  Basis Set: 6-31G*
  Basis Set:
  Basis Set: 6-31G*
  Basis Set:
  @DF-RHF Final Energy:  -501.04254683483498
    Total Energy =                       -501.0425468348344111
  Basis Set: 6-31G*
  Basis Set:
  Charge       = 0
  Multiplicity = 1
  Basis Set: 6-31G*
  Basis Set:

    Orbital Energies (a.u.)
    -----------------------

    Doubly Occupied:

       1A    -20.605179     2A    -20.541458     3A    -11.370511
       4A    -11.280313     5A    -11.232550     6A    -11.227974
       7A    -11.220826     8A    -11.216937     9A    -11.216086
      10A    -11.215192    11A    -11.209210    12A     -1.468702
      13A     -1.360609    14A     -1.100176    15A     -1.067692
      16A     -1.019150    17A     -0.976284    18A     -0.930271
      19A     -0.863279    20A     -0.799295    21A     -0.791001
      22A     -0.770138    23A     -0.698573    24A     -0.678805
      25A     -0.672313    26A     -0.652003    27A     -0.627173
      28A     -0.604036    29A     -0.595120    30A     -0.579403
      31A     -0.571446    32A     -0.545384    33A     -0.541974
      34A     -0.529490    35A     -0.519553    36A     -0.511689
      37A     -0.496506    38A     -0.481316    39A     -0.470663
      40A     -0.463747    41A     -0.462154    42A     -0.452176
      43A     -0.445129    44A     -0.428663

  @DF-RHF Final Energy:  -501.04254710893827

   => Energetics <=

    Nuclear Repulsion Energy =            611.0652869989111196
    One-Electron Energy =               -1893.1953761488857708
    Two-Electron Energy =                 781.0875420410358174
    DFT Exchange-Correlation Energy =       0.0000000000000000
    Empirical Dispersion Energy =           0.0000000000000000
    PCM Polarization Energy =               0.0000000000000000
    EFP Energy =                            0.0000000000000000
    Total Energy =                       -501.0425471089387202
    Molecular point group: c1
  Basis Set: 6-31G*
  Basis Set:

  -Total Gradient:
     Atom            X                  Y                   Z
    ------   -----------------  -----------------  -----------------
       1       -0.000098421522    -0.000188100437     0.000084268728
       2        0.000011465235     0.000340185527    -0.000103557702
       3       -0.000078558791     0.000044010710     0.000063882403
       4        0.000086100640    -0.000189156525    -0.000007911127
       5        0.000084235955    -0.000069130613    -0.000006785608
       6       -0.000040450960    -0.000006848259    -0.000050383386
       7        0.000044587457     0.000046520748    -0.000004375478
       8       -0.000021619558    -0.000011542028     0.000025405405
       9       -0.000040939021     0.000021313156     0.000043320863
      10        0.000009320726    -0.000021826880     0.000002297193
      11        0.000031180564     0.000046662930    -0.000056286972
      12        0.000056536307     0.000032279944    -0.000038281162
      13       -0.000015382493     0.000007968453     0.000066799426
      14       -0.000011909518    -0.000053890090    -0.000006417590
      15       -0.000027436062     0.000010480105     0.000025668861
      16        0.000058137928    -0.000003325925    -0.000066150173
      17        0.000008690579    -0.000014736234    -0.000019641949
      18        0.000005808729     0.000007046497    -0.000011272447
      19       -0.000010459308    -0.000010012502     0.000015052969
      20        0.000010706788    -0.000007254831     0.000012738643
      21        0.000006026514    -0.000000870568     0.000001873302
      22       -0.000001263042     0.000000655672    -0.000001696965
      23        0.000009319551     0.000000870498    -0.000002242254
      24       -0.000001760351     0.000001130955     0.000002269772
      25       -0.000002292437    -0.000001085505     0.000000336144
      26       -0.000111384853     0.000021166870     0.000064895791
      27       -0.000005007016     0.000003552282    -0.000017004106
      28        0.000025345224    -0.000006716525    -0.000010829039
      29        0.000019422729     0.000000652573    -0.000005973540

  **** Optimization is complete! (in 5 steps) ****
    Final optimized geometry and variables:
    Molecular point group: c1

    Geometry (in Angstrom), charge = 0, multiplicity = 1:

    O            2.992730647535     0.448177692343    -1.255053929643
    C            2.510336324350    -0.516148105814    -0.752129963565
    C            1.055956983293    -0.634239187947    -0.368489533814
    O            3.208659327071    -1.600293280688    -0.444599509630
    C            0.738830011539     0.273498710941     0.830450905858
    H            0.476234412441    -0.333843512945    -1.232744856036
    H            0.822526025507    -1.665979399239    -0.137291501613
    C           -0.711124813396     0.173787111756     1.315386663164
    H            0.970891552988     1.299824348650     0.564004425872
    H            1.398801419545     0.006845551601     1.652329513919
    C           -1.758386512025     0.673188794014     0.316324264451
    H           -0.798921299407     0.752993580689     2.231740598698
    H           -0.930884786289    -0.857271674117     1.586899685734
    C           -3.179335934676     0.644997337464     0.883197115641
    H           -1.510465898922     1.689682744091     0.015481807469
    H           -1.729226935397     0.071077826971    -0.588675765244
    C           -4.236435648756     1.132751482267    -0.109109502670
    H           -3.220854149485     1.258539236013     1.781598855489
    H           -3.422436355307    -0.369213594048     1.196272030284
    C           -5.652323162013     1.105653274578     0.465488054178
    H           -3.994221308661     2.145513460053    -0.423957367610
    H           -4.199525354670     0.517876607672    -1.005894415221
    H           -6.378621965982     1.456559541371    -0.261072582618
    H           -5.731045576557     1.739462952142     1.344297566323
    H           -5.937484879553     0.099123610437     0.758537362881
    C            4.593418714347    -1.575258622116    -0.740237488157
    H            4.752450450819    -1.437966165644    -1.800045560183
    H            4.980142592569    -2.531613540814    -0.424315001917
    H            5.082281034188    -0.776376212170    -0.201480227155

  Mulliken Charges: (a.u.)
   Center  Symbol    Alpha    Beta     Spin     Total
       1     O     4.28719  4.28719  0.00000 -0.57438
       2     C     2.61261  2.61261  0.00000  0.77477
       3     C     3.20020  3.20020  0.00000 -0.40039
       4     O     4.30278  4.30278  0.00000 -0.60556
       5     C     3.16544  3.16544  0.00000 -0.33088
       6     H     0.39921  0.39921  0.00000  0.20157
       7     H     0.40255  0.40255  0.00000  0.19489
       8     C     3.15468  3.15468  0.00000 -0.30935
       9     H     0.40577  0.40577  0.00000  0.18846
      10     H     0.41421  0.41421  0.00000  0.17158
      11     C     3.15541  3.15541  0.00000 -0.31083
      12     H     0.41826  0.41826  0.00000  0.16348
      13     H     0.42212  0.42212  0.00000  0.15576
      14     C     3.15060  3.15060  0.00000 -0.30119
      15     H     0.42082  0.42082  0.00000  0.15836
      16     H     0.42255  0.42255  0.00000  0.15490
      17     C     3.15159  3.15159  0.00000 -0.30318
      18     H     0.42347  0.42347  0.00000  0.15306
      19     H     0.42396  0.42396  0.00000  0.15209
      20     C     3.23942  3.23942  0.00000 -0.47884
      21     H     0.42227  0.42227  0.00000  0.15545
      22     H     0.42308  0.42308  0.00000  0.15383
      23     H     0.41898  0.41898  0.00000  0.16203
      24     H     0.42163  0.42163  0.00000  0.15675
      25     H     0.42189  0.42189  0.00000  0.15623
      26     C     3.09334  3.09334  0.00000 -0.18667
      27     H     0.40845  0.40845  0.00000  0.18310
      28     H     0.40863  0.40863  0.00000  0.18274
      29     H     0.40888  0.40888  0.00000  0.18223

   Total alpha = 44.00000, Total beta = 44.00000, Total charge =  0.00000
