  ==> Input File <==

--------------------------------------------------------------------------
set {
	reference rhf
	basis cc-pvtz
}

set_num_threads( 4 )
memory 2 gb

molecule MOL {
0 1

H	 2.680112	 -0.779825	 -0.152906
O	 1.990971	 -0.217927	 -0.455246
C	 1.135873	 0.113391	 0.608264
C	 0.027642	 1.012027	 0.090274
H	 1.684931	 0.639290	 1.385266
H	 0.721501	 -0.785724	 1.055867
C	 -1.138737	 0.285728	 -0.581921
H	 0.464661	 1.708096	 -0.618252
H	 -0.340737	 1.603071	 0.925246
C	 -1.933983	 -0.631436	 0.343653
H	 -0.763151	 -0.285569	 -1.422081
H	 -1.808359	 1.035291	 -0.992333
H	 -2.789188	 -1.049673	 -0.174718
H	 -1.335629	 -1.461368	 0.700418
H	 -2.305435	 -0.092167	 1.209725

	symmetry c1
}
set optking {
	frozen_dihedral = ("
		2 3 4 8
	")
}

ee = optimize('scf')
oeprop('DIPOLE', 'QUADRUPOLE', 'MULLIKEN_CHARGES')
f=open( 'psi4out.xyz', 'w' )
f.write( "15  " )
f.write( str(ee) + "\n" )
f.write( MOL.save_string_xyz() )
f.close()
--------------------------------------------------------------------------

    Molecular point group: c1
  Charge       = 0
  Multiplicity = 1
  Basis Set: CC-PVTZ
  Basis Set:
  @DF-RHF Final Energy:  -232.23558711869123
    Total Energy =                       -232.2355871186908303
    Molecular point group: c1
  Basis Set: CC-PVTZ
  Basis Set:
  Basis Set: CC-PVTZ
  Basis Set:
  @DF-RHF Final Energy:  -232.23589797629765
    Total Energy =                       -232.2358979762974514
  Basis Set: CC-PVTZ
  Basis Set:
  Basis Set: CC-PVTZ
  Basis Set:
  @DF-RHF Final Energy:  -232.23612550174565
    Total Energy =                       -232.2361255017457893
  Basis Set: CC-PVTZ
  Basis Set:
  Basis Set: CC-PVTZ
  Basis Set:
  @DF-RHF Final Energy:  -232.23615064745900
    Total Energy =                       -232.2361506474589987
  Basis Set: CC-PVTZ
  Basis Set:
  Basis Set: CC-PVTZ
  Basis Set:
  @DF-RHF Final Energy:  -232.23615366663054
    Total Energy =                       -232.2361536666306847
  Basis Set: CC-PVTZ
  Basis Set:
  Charge       = 0
  Multiplicity = 1
  Basis Set: CC-PVTZ
  Basis Set:

    Orbital Energies (a.u.)
    -----------------------

    Doubly Occupied:

       1A    -20.546034     2A    -11.265318     3A    -11.210445
       4A    -11.209633     5A    -11.205494     6A     -1.363464
       7A     -1.066515     8A     -0.971787     9A     -0.869015
      10A     -0.779029    11A     -0.707810    12A     -0.648580
      13A     -0.606655    14A     -0.580914    15A     -0.563278
      16A     -0.536526    17A     -0.510185    18A     -0.476375
      19A     -0.472096    20A     -0.453810    21A     -0.431922

  @DF-RHF Final Energy:  -232.23615406373281

   => Energetics <=

    Nuclear Repulsion Energy =            190.2731199198642855
    One-Electron Energy =                -692.0687780040300368
    Two-Electron Energy =                 269.5595040204327120
    DFT Exchange-Correlation Energy =       0.0000000000000000
    Empirical Dispersion Energy =           0.0000000000000000
    PCM Polarization Energy =               0.0000000000000000
    EFP Energy =                            0.0000000000000000
    Total Energy =                       -232.2361540637330677
    Molecular point group: c1
  Basis Set: CC-PVTZ
  Basis Set:

  -Total Gradient:
     Atom            X                  Y                   Z
    ------   -----------------  -----------------  -----------------
       1        0.000007415659     0.000004908573     0.000001432204
       2        0.001532913620     0.002303504531     0.000623345973
       3       -0.002117539902    -0.003447189090    -0.001395958965
       4        0.001241889638     0.003427976077     0.003580330934
       5        0.000003249448    -0.000003938030     0.000006267028
       6       -0.000012703800    -0.000004514072    -0.000005092785
       7       -0.000028800655    -0.000011259465    -0.000017193737
       8       -0.000657737245    -0.002279304414    -0.002797145821
       9       -0.000002136666    -0.000001426120    -0.000000075687
      10        0.000025937940     0.000001238098    -0.000005672462
      11       -0.000002469023     0.000002566939     0.000017588710
      12       -0.000005687977     0.000009223492    -0.000012869326
      13        0.000001679421     0.000005572333    -0.000003619813
      14        0.000003340972    -0.000009182210     0.000015612822
      15        0.000010648568     0.000001823358    -0.000006949077

  **** Optimization is complete! (in 6 steps) ****
    Final optimized geometry and variables:
    Molecular point group: c1

    Geometry (in Angstrom), charge = 0, multiplicity = 1:

    H            2.598530024282    -0.851789813565    -0.285618624199
    O            1.926076871802    -0.236649194350    -0.512607617819
    C            1.101084842321     0.010631595926     0.598262160476
    C           -0.051334168992     0.896431800932     0.150752147626
    H            1.670087179389     0.518638792783     1.372755410388
    H            0.737769728501    -0.921421765858     1.020568517632
    C           -1.179643333720     0.151836634012    -0.569230905413
    H            0.362659596356     1.627393795975    -0.534335202150
    H           -0.450760129583     1.430252384788     1.007614369000
    C           -2.058648290886    -0.698633559424     0.344389949537
    H           -0.750263226527    -0.468238409424    -1.349119735016
    H           -1.807327263793     0.881307374665    -1.071286831062
    H           -2.848001659947    -1.181375606741    -0.220397092089
    H           -1.495202347871    -1.478951266150     0.843012736082
    H           -2.527147401742    -0.089652196032     1.111019030874

  Mulliken Charges: (a.u.)
   Center  Symbol    Alpha    Beta     Spin     Total
       1     H     0.39521  0.39521  0.00000  0.20958
       2     O     4.20012  4.20012  0.00000 -0.40024
       3     C     2.96924  2.96924  0.00000  0.06152
       4     C     3.09355  3.09355  0.00000 -0.18709
       5     H     0.46716  0.46716  0.00000  0.06568
       6     H     0.47390  0.47390  0.00000  0.05219
       7     C     3.09215  3.09215  0.00000 -0.18430
       8     H     0.44618  0.44618  0.00000  0.10763
       9     H     0.45317  0.45317  0.00000  0.09367
      10     C     3.15082  3.15082  0.00000 -0.30165
      11     H     0.44801  0.44801  0.00000  0.10398
      12     H     0.45007  0.45007  0.00000  0.09987
      13     H     0.44742  0.44742  0.00000  0.10515
      14     H     0.45667  0.45667  0.00000  0.08665
      15     H     0.45632  0.45632  0.00000  0.08736

   Total alpha = 21.00000, Total beta = 21.00000, Total charge = -0.00000
