  ==> Input File <==

--------------------------------------------------------------------------
set {
	reference rhf
	basis 6-31G*
}

set_num_threads( 4 )
memory 2 gb

molecule MOL {
0 1

O	 3.225979	 0.970355	 -0.599647
C	 2.701189	 0.057885	 -0.047330
C	 1.245376	 -0.013843	 0.345420
O	 3.347903	 -1.046386	 0.304773
C	 0.455112	 1.231400	 -0.050772
H	 0.838542	 -0.913825	 -0.103701
H	 1.208210	 -0.175333	 1.419774
C	 -0.998893	 1.219485	 0.433193
H	 0.482531	 1.345121	 -1.130325
H	 0.957290	 2.103070	 0.354729
C	 -1.883438	 0.145884	 -0.207175
H	 -1.431207	 2.195402	 0.224832
H	 -1.019646	 1.105716	 1.516076
C	 -3.347647	 0.245583	 0.225435
H	 -1.822183	 0.231698	 -1.291012
H	 -1.510341	 -0.844814	 0.042401
C	 -4.239992	 -0.825570	 -0.404234
H	 -3.732888	 1.230466	 -0.033079
H	 -3.408585	 0.170602	 1.310038
C	 -5.693648	 -0.378757	 -0.555706
H	 -3.842643	 -1.096844	 -1.380024
H	 -4.201771	 -1.728245	 0.201982
H	 -6.300675	 -1.158935	 -1.004535
H	 -5.769145	 0.502753	 -1.186131
H	 -6.130747	 -0.132951	 0.408036
C	 4.728119	 -1.109107	 -0.004993
H	 4.882018	 -1.033965	 -1.071845
H	 5.068212	 -2.067527	 0.355250
H	 5.265056	 -0.311663	 0.488280

	symmetry c1
}
set optking {
	frozen_dihedral = ("
		21 17 14 11
	")
}

ee = optimize('scf')
oeprop('DIPOLE', 'QUADRUPOLE', 'MULLIKEN_CHARGES')
f=open( 'psi4out.xyz', 'w' )
f.write( "29  " )
f.write( str(ee) + "\n" )
f.write( MOL.save_string_xyz() )
f.close()
--------------------------------------------------------------------------

    Molecular point group: c1
  Charge       = 0
  Multiplicity = 1
  Basis Set: 6-31G*
  Basis Set:
  @DF-RHF Final Energy:  -501.04153669148650
    Total Energy =                       -501.0415366914867263
    Molecular point group: c1
  Basis Set: 6-31G*
  Basis Set:
  Basis Set: 6-31G*
  Basis Set:
  @DF-RHF Final Energy:  -501.04173670966122
    Total Energy =                       -501.0417367096614498
  Basis Set: 6-31G*
  Basis Set:
  Basis Set: 6-31G*
  Basis Set:
  @DF-RHF Final Energy:  -501.04179894092545
    Total Energy =                       -501.0417989409259008
  Basis Set: 6-31G*
  Basis Set:
  Charge       = 0
  Multiplicity = 1
  Basis Set: 6-31G*
  Basis Set:

    Orbital Energies (a.u.)
    -----------------------

    Doubly Occupied:

       1A    -20.603357     2A    -20.545177     3A    -11.371990
       4A    -11.280652     5A    -11.234711     6A    -11.219104
       7A    -11.217572     8A    -11.216213     9A    -11.215640
      10A    -11.214315    11A    -11.209377    12A     -1.469051
      13A     -1.362493    14A     -1.097800    15A     -1.066042
      16A     -1.019323    17A     -0.977281    18A     -0.928556
      19A     -0.861735    20A     -0.799921    21A     -0.790667
      22A     -0.763853    23A     -0.700667    24A     -0.682287
      25A     -0.672161    26A     -0.646819    27A     -0.630484
      28A     -0.603689    29A     -0.596057    30A     -0.581183
      31A     -0.566569    32A     -0.550978    33A     -0.531076
      34A     -0.528051    35A     -0.516614    36A     -0.515127
      37A     -0.494934    38A     -0.478303    39A     -0.470409
      40A     -0.461336    41A     -0.456931    42A     -0.455738
      43A     -0.440829    44A     -0.435273

  @DF-RHF Final Energy:  -501.04179855046220

   => Energetics <=

    Nuclear Repulsion Energy =            610.2285106487478288
    One-Electron Energy =               -1891.5799267734232672
    Two-Electron Energy =                 780.3096175742132345
    DFT Exchange-Correlation Energy =       0.0000000000000000
    Empirical Dispersion Energy =           0.0000000000000000
    PCM Polarization Energy =               0.0000000000000000
    EFP Energy =                            0.0000000000000000
    Total Energy =                       -501.0417985504620901
    Molecular point group: c1
  Basis Set: 6-31G*
  Basis Set:

  -Total Gradient:
     Atom            X                  Y                   Z
    ------   -----------------  -----------------  -----------------
       1        0.000014621347     0.000032074483     0.000075946097
       2       -0.000046689868    -0.000093877674    -0.000204659939
       3       -0.000000610831     0.000029815797     0.000054704362
       4        0.000018612687     0.000025303938     0.000057481124
       5        0.000014550400    -0.000004549314     0.000058245407
       6       -0.000024281025    -0.000011815839    -0.000011729398
       7       -0.000016003988     0.000001562877     0.000001848848
       8        0.000021596473    -0.000007150336     0.000061248833
       9       -0.000012313195     0.000005988841     0.000012599719
      10        0.000015469194    -0.000001024913     0.000006640678
      11       -0.000573520856     0.001860465437    -0.002520302923
      12        0.000019677676    -0.000011351586    -0.000035114731
      13       -0.000010283249     0.000056628853     0.000014287419
      14        0.001385910124    -0.003266513010     0.003849735599
      15       -0.000064777879     0.000010522286    -0.000013275593
      16        0.000057859069    -0.000016556897    -0.000023918463
      17       -0.003211243873     0.004373251927    -0.003237352611
      18        0.000027986359     0.000023330632    -0.000034124304
      19       -0.000035755595     0.000006576495    -0.000029657595
      20       -0.000013570791     0.000012638831    -0.000013056098
      21        0.002358720970    -0.002984783130     0.001916789537
      22        0.000009901764    -0.000032297457    -0.000006453050
      23        0.000022009906    -0.000000069083    -0.000018708301
      24        0.000019003916     0.000018803032     0.000028467772
      25        0.000021536814    -0.000027244613     0.000006751707
      26        0.000000514227    -0.000000500824     0.000002287556
      27       -0.000002134393     0.000000479275     0.000000436333
      28        0.000000846535     0.000000636748     0.000001008266
      29        0.000002368073    -0.000000344776    -0.000000126250

  **** Optimization is complete! (in 4 steps) ****
    Final optimized geometry and variables:
    Molecular point group: c1

    Geometry (in Angstrom), charge = 0, multiplicity = 1:

    O            3.233588380136     0.941930959344    -0.518203313545
    C            2.700281217153     0.021963589693     0.013132285710
    C            1.242042420182    -0.048327774779     0.396993680773
    O            3.338629893090    -1.092541565399     0.347822943930
    C            0.461505546945     1.209340438749     0.021328793864
    H            0.831876449653    -0.936710901490    -0.071768036815
    H            1.198227730057    -0.230641431008     1.467756885066
    C           -0.995147723368     1.196285965038     0.497171828234
    H            0.495439126942     1.344129175086    -1.055608039584
    H            0.966634814799     2.069824885392     0.446576916330
    C           -1.880923931470     0.137837500858    -0.165743263399
    H           -1.422011446140     2.177573962405     0.302653059585
    H           -1.022350924192     1.064855634408     1.577871432148
    C           -3.348623079230     0.240608334580     0.255121117831
    H           -1.816603508860     0.240845355215    -1.247502705962
    H           -1.512388421562    -0.858890510737     0.068623733059
    C           -4.236638867708    -0.853321104889    -0.356355312989
    H           -3.721714553890     1.217558026117    -0.048534864979
    H           -3.428997339411     0.213016557637     1.339504486650
    C           -5.702642276284    -0.447034280214    -0.486491922232
    H           -3.838238915989    -1.151073713182    -1.323605035885
    H           -4.168558367844    -1.747483596659     0.260456794793
    H           -6.303555227610    -1.259119557061    -0.883965575226
    H           -5.814923324920     0.405604337790    -1.150024141807
    H           -6.117787974892    -0.170014577818     0.478660741310
    C            4.720220460102    -1.157444101749     0.044710877837
    H            4.880683009465    -1.063017884212    -1.019643976615
    H            5.052719663848    -2.124481104023     0.388626734613
    H            5.258871483414    -0.372634975801     0.556050072499

  Mulliken Charges: (a.u.)
   Center  Symbol    Alpha    Beta     Spin     Total
       1     O     4.28597  4.28597  0.00000 -0.57194
       2     C     2.60484  2.60484  0.00000  0.79033
       3     C     3.20973  3.20973  0.00000 -0.41947
       4     O     4.30746  4.30746  0.00000 -0.61491
       5     C     3.15374  3.15374  0.00000 -0.30748
       6     H     0.39877  0.39877  0.00000  0.20247
       7     H     0.40123  0.40123  0.00000  0.19753
       8     C     3.15699  3.15699  0.00000 -0.31399
       9     H     0.41313  0.41313  0.00000  0.17374
      10     H     0.40873  0.40873  0.00000  0.18254
      11     C     3.15634  3.15634  0.00000 -0.31268
      12     H     0.41822  0.41822  0.00000  0.16355
      13     H     0.42379  0.42379  0.00000  0.15242
      14     C     3.15142  3.15142  0.00000 -0.30284
      15     H     0.42207  0.42207  0.00000  0.15585
      16     H     0.42363  0.42363  0.00000  0.15273
      17     C     3.15333  3.15333  0.00000 -0.30665
      18     H     0.42325  0.42325  0.00000  0.15350
      19     H     0.42194  0.42194  0.00000  0.15611
      20     C     3.23934  3.23934  0.00000 -0.47868
      21     H     0.42200  0.42200  0.00000  0.15600
      22     H     0.42249  0.42249  0.00000  0.15503
      23     H     0.41966  0.41966  0.00000  0.16068
      24     H     0.42131  0.42131  0.00000  0.15737
      25     H     0.42148  0.42148  0.00000  0.15705
      26     C     3.09240  3.09240  0.00000 -0.18481
      27     H     0.40910  0.40910  0.00000  0.18181
      28     H     0.40852  0.40852  0.00000  0.18297
      29     H     0.40912  0.40912  0.00000  0.18176

   Total alpha = 44.00000, Total beta = 44.00000, Total charge = -0.00000
