                              Psi4 1.0.54 Driver

  ==> Input File <==

--------------------------------------------------------------------------
set {
	reference rhf
	basis cc-pvtz
}

set_num_threads( 4 )
memory 2 gb

molecule MOL {
0 1

H	 -1.088256	 -1.364742	 0.152233
O	 -1.432053	 -0.565244	 -0.200812
C	 -0.727158	 0.534527	 0.310686
C	 0.680222	 0.664433	 -0.252229
H	 -1.306802	 1.408001	 0.044211
H	 -0.690821	 0.490158	 1.397609
C	 1.712046	 1.140638	 0.765914
H	 0.981179	 -0.296058	 -0.657338
H	 0.645094	 1.362363	 -1.084280
H	 1.818707	 0.436663	 1.583940
H	 2.687958	 1.248355	 0.308153
H	 1.436523	 2.103975	 1.184275

	symmetry c1
}
set optking {
	frozen_dihedral = ("
		8 4 3 2
	")
}

ee,wfn = optimize('scf', return_wfn=True)
oeprop( wfn, 'DIPOLE', 'QUADRUPOLE', 'MULLIKEN_CHARGES')
f=open( 'psi4out.xyz', 'w' )
f.write( "12  " )
f.write( str(ee) + "\n" )
f.write( MOL.save_string_xyz() )
f.close()
--------------------------------------------------------------------------

    Molecular point group: c1
  Charge       = 0
  Multiplicity = 1
  Basis Set: CC-PVTZ
  Basis Set:
  @DF-RHF Final Energy:  -193.18586378870114
    Total Energy =                       -193.1858637887010843
    Molecular point group: c1
  Basis Set: CC-PVTZ
  Basis Set:
  Basis Set: CC-PVTZ
  Basis Set:
  @DF-RHF Final Energy:  -193.18633232152771
    Total Energy =                       -193.1863323215277433
  Basis Set: CC-PVTZ
  Basis Set:
  Basis Set: CC-PVTZ
  Basis Set:
  @DF-RHF Final Energy:  -193.18638940603904
    Total Energy =                       -193.1863894060390692
  Basis Set: CC-PVTZ
  Basis Set:
  Basis Set: CC-PVTZ
  Basis Set:
  @DF-RHF Final Energy:  -193.18639537985428
    Total Energy =                       -193.1863953798542184
  Basis Set: CC-PVTZ
  Basis Set:
  Charge       = 0
  Multiplicity = 1
  Basis Set: CC-PVTZ
  Basis Set:

    Orbital Energies (a.u.)
    -----------------------

    Doubly Occupied:

       1A    -20.545504     2A    -11.266101     3A    -11.217772
       4A    -11.214881     5A     -1.363832     6A     -1.052292
       7A     -0.920146     8A     -0.820075     9A     -0.694433
      10A     -0.637755    11A     -0.598173    12A     -0.576797
      13A     -0.562396    14A     -0.508616    15A     -0.491619
      16A     -0.465169    17A     -0.431611

  @DF-RHF Final Energy:  -193.18639570717022

   => Energetics <=

    Nuclear Repulsion Energy =            131.0341635323194396
    One-Electron Energy =                -521.7067796059707234
    Two-Electron Energy =                 197.4862203664810636
    DFT Exchange-Correlation Energy =       0.0000000000000000
    Empirical Dispersion Energy =           0.0000000000000000
    PCM Polarization Energy =               0.0000000000000000
    EFP Energy =                            0.0000000000000000
    Total Energy =                       -193.1863957071702202
    Molecular point group: c1
  Basis Set: CC-PVTZ
  Basis Set:

  -Total Gradient:
     Atom            X                  Y                   Z
    ------   -----------------  -----------------  -----------------
       1       -0.000030416617     0.000011971811    -0.000018395527
       2        0.001167502635    -0.002132258428     0.002801922937
       3       -0.001914423033     0.003113445363    -0.004728448497
       4        0.002385833944    -0.002120887504     0.006115874975
       5        0.000016298039     0.000009585709     0.000004494146
       6       -0.000008871312    -0.000007374746     0.000005293665
       7       -0.000011021575    -0.000030193800    -0.000027652279
       8       -0.001587698252     0.001128517148    -0.004145159715
       9       -0.000003844505     0.000008754649    -0.000014592089
      10        0.000001704845     0.000007937854    -0.000005035922
      11       -0.000007892378    -0.000004729920     0.000016260160
      12       -0.000007171793     0.000015231863    -0.000004561852

  **** Optimization is complete! (in 5 steps) ****
    Final optimized geometry and variables:
    Molecular point group: c1

    Geometry (in Angstrom), charge = 0, multiplicity = 1:

    H           -1.064539882685    -1.757585412847    -0.110215118821
    O           -1.471062156693    -0.956063143272    -0.384355406578
    C           -0.757989065162     0.136533717786     0.129463542145
    C            0.680133430190     0.227778931655    -0.395930551782
    H           -1.321776553177     1.018033649585    -0.141714894805
    H           -0.747326315512     0.087510889044     1.216440441870
    C            1.674989932625     0.735072118202     0.640444412303
    H            0.972602326494    -0.746216111837    -0.775588513469
    H            0.701750840026     0.879027671273    -1.264133975953
    H            1.731731264585     0.065850367443     1.492479468046
    H            2.669146478002     0.822612699399     0.218917240910
    H            1.388431325473     1.713996043804     1.010929709357

  Mulliken Charges: (a.u.)
   Center  Symbol    Alpha    Beta     Spin     Total
       1     H     0.39454  0.39454  0.00000  0.21091
       2     O     4.20266  4.20266  0.00000 -0.40532
       3     C     2.96801  2.96801  0.00000  0.06398
       4     C     3.09058  3.09058  0.00000 -0.18116
       5     H     0.45371  0.45371  0.00000  0.09257
       6     H     0.47314  0.47314  0.00000  0.05371
       7     C     3.15144  3.15144  0.00000 -0.30288
       8     H     0.45533  0.45533  0.00000  0.08934
       9     H     0.45292  0.45292  0.00000  0.09415
      10     H     0.45632  0.45632  0.00000  0.08736
      11     H     0.44768  0.44768  0.00000  0.10463
      12     H     0.45365  0.45365  0.00000  0.09270

   Total alpha = 17.00000, Total beta = 17.00000, Total charge =  0.00000

*** Psi4 exiting successfully. Buy a developer a beer!
