                              Psi4 1.0.54 Driver

  ==> Input File <==

--------------------------------------------------------------------------
set {
	reference rhf
	basis cc-pvtz
}

set_num_threads( 4 )
memory 2 gb

molecule MOL {
0 1

O	 2.868453	 1.353349	 -0.000734
C	 2.841259	 0.166180	 -0.000295
C	 1.542794	 -0.614730	 -0.000853
C	 4.113372	 -0.651103	 0.000743
C	 0.288398	 0.247429	 0.000314
H	 1.557171	 -1.273139	 -0.866508
H	 1.557484	 -1.274998	 0.863344
C	 -0.993089	 -0.581367	 -0.000217
H	 0.305153	 0.900562	 -0.864701
H	 0.305567	 0.898805	 0.866656
C	 -2.258482	 0.271340	 0.000669
H	 -1.002280	 -1.233920	 -0.870484
H	 -1.002061	 -1.235367	 0.868958
C	 -2.973772	 0.295184	 1.348455
H	 -2.940769	 -0.099135	 -0.760479
H	 -2.005470	 1.288391	 -0.288674
C	 -4.237264	 1.149191	 1.341439
H	 -3.228115	 -0.720917	 1.637916
H	 -2.292925	 0.666576	 2.109661
H	 -4.953479	 0.782174	 0.613858
H	 -4.720275	 1.144632	 2.311852
H	 -4.011354	 2.179949	 1.089351
H	 4.145311	 -1.294584	 -0.871587
H	 4.970080	 0.004978	 -0.000091
H	 4.145223	 -1.291980	 0.874988

	symmetry c1
}
set optking {
	frozen_dihedral = ("
		15 11 8 12
	")
}

ee,wfn = optimize('scf', return_wfn=True)
oeprop( wfn, 'DIPOLE', 'QUADRUPOLE', 'MULLIKEN_CHARGES')
f=open( 'psi4out.xyz', 'w' )
f.write( "25  " )
f.write( str(ee) + "\n" )
f.write( MOL.save_string_xyz() )
f.close()
--------------------------------------------------------------------------

    Molecular point group: c1
  Charge       = 0
  Multiplicity = 1
  Basis Set: CC-PVTZ
  Basis Set:
  @DF-RHF Final Energy:  -387.26969461476375
    Total Energy =                       -387.2696946147639210
    Molecular point group: c1
  Basis Set: CC-PVTZ
  Basis Set:
  Basis Set: CC-PVTZ
  Basis Set:
  @DF-RHF Final Energy:  -387.26994351440021
    Total Energy =                       -387.2699435144005520
  Basis Set: CC-PVTZ
  Basis Set:
  Basis Set: CC-PVTZ
  Basis Set:
  @DF-RHF Final Energy:  -387.27003599875894
    Total Energy =                       -387.2700359987587717
  Basis Set: CC-PVTZ
  Basis Set:
  Basis Set: CC-PVTZ
  Basis Set:
  @DF-RHF Final Energy:  -387.27003167810335
    Total Energy =                       -387.2700316781031233
  Basis Set: CC-PVTZ
  Basis Set:
  Basis Set: CC-PVTZ
  Basis Set:
  @DF-RHF Final Energy:  -387.27003310965893
    Total Energy =                       -387.2700331096591526
  Basis Set: CC-PVTZ
  Basis Set:
  Charge       = 0
  Multiplicity = 1
  Basis Set: CC-PVTZ
  Basis Set:

    Orbital Energies (a.u.)
    -----------------------

    Doubly Occupied:

       1A    -20.538994     2A    -11.320658     3A    -11.230081
       4A    -11.226656     5A    -11.215541     6A    -11.214573
       7A    -11.213605     8A    -11.211225     9A    -11.205871
      10A     -1.399040    11A     -1.094120    12A     -1.056812
      13A     -1.014998    14A     -0.969128    15A     -0.891257
      16A     -0.820946    17A     -0.787917    18A     -0.731716
      19A     -0.654414    20A     -0.654072    21A     -0.637071
      22A     -0.621423    23A     -0.603976    24A     -0.582013
      25A     -0.565916    26A     -0.564896    27A     -0.543460
      28A     -0.527545    29A     -0.507347    30A     -0.493817
      31A     -0.487555    32A     -0.482137    33A     -0.464192
      34A     -0.455617    35A     -0.449205    36A     -0.401709

  @DF-RHF Final Energy:  -387.27003721980111

   => Energetics <=

    Nuclear Repulsion Energy =            442.3845802465240240
    One-Electron Energy =               -1401.6302339055523589
    Two-Electron Energy =                 571.9756164392269966
    DFT Exchange-Correlation Energy =       0.0000000000000000
    Empirical Dispersion Energy =           0.0000000000000000
    PCM Polarization Energy =               0.0000000000000000
    EFP Energy =                            0.0000000000000000
    Total Energy =                       -387.2700372198013383
    Molecular point group: c1
  Basis Set: CC-PVTZ
  Basis Set:

  -Total Gradient:
     Atom            X                  Y                   Z
    ------   -----------------  -----------------  -----------------
       1       -0.000003362990    -0.000000739955    -0.000024856568
       2        0.000002873712    -0.000016201561     0.000074095515
       3        0.000008497515     0.000002178698    -0.000007325887
       4        0.000008260634    -0.000000131920    -0.000033341250
       5       -0.000003578863     0.000001005047    -0.000010546230
       6        0.000000839276     0.000003608530    -0.000001847319
       7        0.000003029159     0.000004705079    -0.000011366026
       8        0.001724911956     0.002749713288    -0.002174446625
       9       -0.000009951633    -0.000005612882     0.000009464462
      10       -0.000009969039    -0.000008263273    -0.000005077325
      11       -0.001564349225    -0.002527232288     0.002548588263
      12       -0.001183372217    -0.001886517026     0.001410864491
      13        0.000003418045     0.000004655855    -0.000002198231
      14        0.000011231170     0.000004832126    -0.000001426998
      15        0.001033329258     0.001665196955    -0.001769438800
      16       -0.000002490965    -0.000002288855     0.000007506658
      17       -0.000024781707     0.000010107286     0.000002564082
      18        0.000011931064     0.000006340982    -0.000009021879
      19       -0.000003077124    -0.000008430402    -0.000015830872
      20        0.000006506192     0.000005791562     0.000009619354
      21       -0.000009354905     0.000005486247    -0.000001786770
      22       -0.000001059600    -0.000010188441    -0.000000244069
      23        0.000004886384    -0.000004363503     0.000007289433
      24       -0.000000053725    -0.000001907745    -0.000000555816
      25       -0.000004312373     0.000008256196    -0.000000681592

  **** Optimization is complete! (in 6 steps) ****
    Final optimized geometry and variables:
    Molecular point group: c1

    Geometry (in Angstrom), charge = 0, multiplicity = 1:

    O            2.721107447737     1.181270247768    -0.304420655288
    C            2.705995593163    -0.006052779205    -0.296072554545
    C            1.415545092304    -0.800245479366    -0.308036592152
    C            3.986178526579    -0.810360204182    -0.272540375551
    C            0.153098085068     0.048962551841    -0.336772667221
    H            1.449616278370    -1.468350597241    -1.165720329428
    H            1.423336401320    -1.450406659731     0.563859429524
    C           -1.121040792950    -0.791386291120    -0.354170736030
    H            0.177795541996     0.694750030862    -1.206851575118
    H            0.147543633698     0.708314262048     0.524064889811
    C           -2.411438216439     0.047775894948    -0.318373309314
    H           -1.123643970678    -1.438919450276    -1.225797409174
    H           -1.112736177651    -1.465311598692     0.499317205569
    C           -3.090398561431     0.078156812487     1.048350763685
    H           -3.111227377691    -0.314888451589    -1.064749381697
    H           -2.180978083145     1.067158391522    -0.616678817636
    C           -4.329967746654     0.965093889441     1.083165790795
    H           -3.362824711311    -0.934173833498     1.333950478855
    H           -2.379140478482     0.423465342660     1.794141411146
    H           -5.071947510098     0.627918277617     0.366827115684
    H           -4.790940761784     0.958195569206     2.064240435597
    H           -4.082350448702     1.993173025487     0.841133892879
    H            4.036349928101    -1.458793553393    -1.140303241729
    H            4.836334608315    -0.145788256741    -0.265894585805
    H            4.012379723283    -1.445437705028     0.606111604076

  Mulliken Charges: (a.u.)
   Center  Symbol    Alpha    Beta     Spin     Total
       1     O     4.17066  4.17066  0.00000 -0.34132
       2     C     2.86209  2.86209  0.00000  0.27582
       3     C     3.11542  3.11542  0.00000 -0.23085
       4     C     3.15122  3.15122  0.00000 -0.30245
       5     C     3.08117  3.08117  0.00000 -0.16234
       6     H     0.44534  0.44534  0.00000  0.10931
       7     H     0.44495  0.44495  0.00000  0.11010
       8     C     3.10147  3.10147  0.00000 -0.20293
       9     H     0.44552  0.44552  0.00000  0.10896
      10     H     0.44535  0.44535  0.00000  0.10929
      11     C     3.09704  3.09704  0.00000 -0.19408
      12     H     0.44768  0.44768  0.00000  0.10464
      13     H     0.45644  0.45644  0.00000  0.08711
      14     C     3.08097  3.08097  0.00000 -0.16193
      15     H     0.44759  0.44759  0.00000  0.10482
      16     H     0.45322  0.45322  0.00000  0.09356
      17     C     3.15088  3.15088  0.00000 -0.30176
      18     H     0.45489  0.45489  0.00000  0.09023
      19     H     0.45420  0.45420  0.00000  0.09160
      20     H     0.45529  0.45529  0.00000  0.08942
      21     H     0.44873  0.44873  0.00000  0.10255
      22     H     0.45381  0.45381  0.00000  0.09238
      23     H     0.45034  0.45034  0.00000  0.09932
      24     H     0.43535  0.43535  0.00000  0.12931
      25     H     0.45038  0.45038  0.00000  0.09923

   Total alpha = 36.00000, Total beta = 36.00000, Total charge = -0.00000

*** Psi4 exiting successfully. Buy a developer a beer!
