  ==> Input File <==

--------------------------------------------------------------------------
set {
	reference rhf
	basis 6-31G*
}

set_num_threads( 4 )
memory 2 gb

molecule MOL {
0 1

O	 -1.276010	 1.052711	 -0.768302
C	 -1.204840	 0.067374	 -0.106123
C	 -2.388195	 -0.672128	 0.458071
O	 -0.067104	 -0.527208	 0.221609
H	 -2.388023	 -1.694060	 0.097175
H	 -3.300579	 -0.174919	 0.164318
H	 -2.315377	 -0.706351	 1.539059
C	 1.170111	 0.034140	 -0.238951
C	 0.806635	 0.958234	 -1.387656
C	 2.119120	 -1.081112	 -0.649123
H	 1.600794	 0.599780	 0.574111
H	 0.117834	 1.727351	 -1.057111
H	 1.697856	 1.440093	 -1.776074
H	 0.338117	 0.402847	 -2.193069
H	 3.048989	 -0.662114	 -1.020336
H	 2.349390	 -1.719046	 0.194673
H	 1.677708	 -1.684271	 -1.436120

	symmetry c1
}
set optking {
	frozen_dihedral = ("
		11 8 4 2
	")
}

ee = optimize('scf')
oeprop('DIPOLE', 'QUADRUPOLE', 'MULLIKEN_CHARGES')
f=open( 'psi4out.xyz', 'w' )
f.write( "17  " )
f.write( str(ee) + "\n" )
f.write( MOL.save_string_xyz() )
f.close()
--------------------------------------------------------------------------

    Molecular point group: c1
  Charge       = 0
  Multiplicity = 1
  Basis Set: 6-31G*
  Basis Set:
  @DF-RHF Final Energy:  -344.84728604006051
    Total Energy =                       -344.8472860400605100
    Molecular point group: c1
  Basis Set: 6-31G*
  Basis Set:
  Basis Set: 6-31G*
  Basis Set:
  @DF-RHF Final Energy:  -344.88972169350978
    Total Energy =                       -344.8897216935094434
  Basis Set: 6-31G*
  Basis Set:
  Basis Set: 6-31G*
  Basis Set:
  @DF-RHF Final Energy:  -344.89939125734139
    Total Energy =                       -344.8993912573416765
  Basis Set: 6-31G*
  Basis Set:
  Basis Set: 6-31G*
  Basis Set:
  @DF-RHF Final Energy:  -344.89928056305519
    Total Energy =                       -344.8992805630551288
  Basis Set: 6-31G*
  Basis Set:
  @DF-RHF Final Energy:  -344.90400896724532
    Total Energy =                       -344.9040089672453746
  @DF-RHF Final Energy:  -344.90446676881356
    Total Energy =                       -344.9044667688137906
  @DF-RHF Final Energy:  -344.90452037217244
    Total Energy =                       -344.9045203721724420
  Basis Set: 6-31G*
  Basis Set:
  @DF-RHF Final Energy:  -344.90453338545910
    Total Energy =                       -344.9045333854591604
  Basis Set: 6-31G*
  Basis Set:
  Basis Set: 6-31G*
  Basis Set:
  @DF-RHF Final Energy:  -344.90453605791231
    Total Energy =                       -344.9045360579124235
  Basis Set: 6-31G*
  Basis Set:
  Basis Set: 6-31G*
  Basis Set:
  @DF-RHF Final Energy:  -344.90453741474408
    Total Energy =                       -344.9045374147440270
  Basis Set: 6-31G*
  Basis Set:
  Charge       = 0
  Multiplicity = 1
  Basis Set: 6-31G*
  Basis Set:

    Orbital Energies (a.u.)
    -----------------------

    Doubly Occupied:

       1A    -20.596574     2A    -20.539936     3A    -11.374936
       4A    -11.297115     5A    -11.229915     6A    -11.219674
       7A    -11.213195     8A     -1.459241     9A     -1.361322
      10A     -1.080344    11A     -1.002677    12A     -0.946116
      13A     -0.860409    14A     -0.746376    15A     -0.687762
      16A     -0.679062    17A     -0.656055    18A     -0.613479
      19A     -0.585476    20A     -0.579088    21A     -0.555266
      22A     -0.546838    23A     -0.542416    24A     -0.515940
      25A     -0.502775    26A     -0.485701    27A     -0.441378
      28A     -0.427884

  @DF-RHF Final Energy:  -344.90453759997683

   => Energetics <=

    Nuclear Repulsion Energy =            323.4494506084056411
    One-Electron Energy =               -1111.2140817260951735
    Two-Electron Energy =                 442.8600935177130395
    DFT Exchange-Correlation Energy =       0.0000000000000000
    Empirical Dispersion Energy =           0.0000000000000000
    PCM Polarization Energy =               0.0000000000000000
    EFP Energy =                            0.0000000000000000
    Total Energy =                       -344.9045375999764929
    Molecular point group: c1
  Basis Set: 6-31G*
  Basis Set:

  -Total Gradient:
     Atom            X                  Y                   Z
    ------   -----------------  -----------------  -----------------
       1       -0.000016734370    -0.000001874661     0.000018028427
       2       -0.000456660062    -0.002567122279    -0.003826357664
       3        0.000000334792    -0.000016310698    -0.000021472995
       4        0.001176418842     0.003164900780     0.006170987075
       5        0.000004634116     0.000002644518     0.000014773102
       6        0.000001420221     0.000003496902     0.000002644090
       7       -0.000003513791     0.000009930730     0.000007368546
       8       -0.002950911373     0.003311044830    -0.003740269622
       9        0.000001642129     0.000014134764     0.000014205746
      10       -0.000011294105    -0.000002697359    -0.000001064849
      11        0.002252230666    -0.003901989310     0.001377368821
      12        0.000014526909    -0.000006373754    -0.000009603469
      13        0.000000821129    -0.000004669156     0.000002459513
      14       -0.000005749579     0.000000663454    -0.000005120368
      15       -0.000006313589     0.000004303408    -0.000000138339
      16       -0.000000392697     0.000000049361     0.000002429006
      17       -0.000000459240    -0.000010131534    -0.000006237021

  **** Optimization is complete! (in 11 steps) ****
    Final optimized geometry and variables:
    Molecular point group: c1

    Geometry (in Angstrom), charge = 0, multiplicity = 1:

    O           -1.393113358145     1.147941228590    -0.157869197988
    C           -1.144411865368     0.091325121729     0.324460534991
    C           -2.187886815278    -0.867802388222     0.838007610623
    O            0.068172020275    -0.405376972630     0.515244352172
    H           -2.115229177723    -1.808891257594     0.305146524939
    H           -3.170075965881    -0.440023916129     0.702518621823
    H           -2.012894461760    -1.071560849511     1.888010223017
    C            1.302758988779     0.132639434046     0.006316133120
    C            1.197017258928     1.015240906648    -1.229712600450
    C            2.165107153602    -1.095240487233    -0.257433534501
    H            1.747622158675     0.679407685746     0.829303043108
    H            0.694726267369     1.947973357650    -1.033882377799
    H            2.205668634730     1.223888113843    -1.573234548903
    H            0.670451707097     0.503872113504    -2.028055961912
    H            3.174489819055    -0.796661215719    -0.520291920571
    H            2.211004258607    -1.724235870421     0.623675885425
    H            1.755159302633    -1.680193697235    -1.074312445381

  Mulliken Charges: (a.u.)
   Center  Symbol    Alpha    Beta     Spin     Total
       1     O     4.28296  4.28296  0.00000 -0.56592
       2     C     2.61720  2.61720  0.00000  0.76561
       3     C     3.28021  3.28021  0.00000 -0.56042
       4     O     4.32216  4.32216  0.00000 -0.64432
       5     H     0.40276  0.40276  0.00000  0.19449
       6     H     0.39828  0.39828  0.00000  0.20344
       7     H     0.40113  0.40113  0.00000  0.19774
       8     C     2.91356  2.91356  0.00000  0.17288
       9     C     3.25344  3.25344  0.00000 -0.50688
      10     C     3.24200  3.24200  0.00000 -0.48400
      11     H     0.41333  0.41333  0.00000  0.17333
      12     H     0.39130  0.39130  0.00000  0.21741
      13     H     0.42064  0.42064  0.00000  0.15872
      14     H     0.41573  0.41573  0.00000  0.16853
      15     H     0.41871  0.41871  0.00000  0.16259
      16     H     0.41031  0.41031  0.00000  0.17938
      17     H     0.41629  0.41629  0.00000  0.16742

   Total alpha = 28.00000, Total beta = 28.00000, Total charge = -0.00000
