  ==> Input File <==

--------------------------------------------------------------------------
set {
	reference rhf
	basis 6-31G*
}

set_num_threads( 4 )
memory 2 gb

molecule MOL {
0 1

H	 2.061615	 -0.171539	 -1.055021
O	 2.064459	 -0.086912	 -0.111827
C	 0.745630	 0.005118	 0.354752
H	 0.739005	 0.037656	 1.444976
C	 -0.064159	 -1.194875	 -0.122754
C	 -0.046302	 1.193543	 -0.190431
H	 0.197384	 -1.376065	 -1.160690
H	 0.162855	 -2.097978	 0.431858
C	 -1.535782	 -0.752177	 0.006642
H	 0.154512	 1.271315	 -1.255561
H	 0.226209	 2.140461	 0.267302
C	 -1.509193	 0.801505	 0.065617
H	 -2.127797	 -1.112194	 -0.826847
H	 -1.986849	 -1.158408	 0.905561
H	 -2.183670	 1.254107	 -0.651985
H	 -1.821727	 1.144320	 1.047089

	symmetry c1
}
set optking {
	frozen_dihedral = ("
		1 2 3 6
	")
}

ee = optimize('scf')
oeprop('DIPOLE', 'QUADRUPOLE', 'MULLIKEN_CHARGES')
f=open( 'psi4out.xyz', 'w' )
f.write( "16  " )
f.write( str(ee) + "\n" )
f.write( MOL.save_string_xyz() )
f.close()
--------------------------------------------------------------------------

    Molecular point group: c1
  Charge       = 0
  Multiplicity = 1
  Basis Set: 6-31G*
  Basis Set:
  @DF-RHF Final Energy:  -270.01201731604715
    Total Energy =                       -270.0120173160473200
    Molecular point group: c1
  Basis Set: 6-31G*
  Basis Set:
  Basis Set: 6-31G*
  Basis Set:
  @DF-RHF Final Energy:  -270.01397644817911
    Total Energy =                       -270.0139764481795055
  Basis Set: 6-31G*
  Basis Set:
  Basis Set: 6-31G*
  Basis Set:
  @DF-RHF Final Energy:  -270.01426892908592
    Total Energy =                       -270.0142689290859153
  Basis Set: 6-31G*
  Basis Set:
  Basis Set: 6-31G*
  Basis Set:
  @DF-RHF Final Energy:  -270.01427599114663
    Total Energy =                       -270.0142759911466328
  Basis Set: 6-31G*
  Basis Set:
  @DF-RHF Final Energy:  -270.01427728531735
    Total Energy =                       -270.0142772853173483
  Basis Set: 6-31G*
  Basis Set:
  @DF-RHF Final Energy:  -270.01427838629661
    Total Energy =                       -270.0142783862966667
  Basis Set: 6-31G*
  Basis Set:
  Basis Set: 6-31G*
  Basis Set:
  @DF-RHF Final Energy:  -270.01427954907234
    Total Energy =                       -270.0142795490722847
  Basis Set: 6-31G*
  Basis Set:
  Basis Set: 6-31G*
  Basis Set:
  @DF-RHF Final Energy:  -270.01428055985627
    Total Energy =                       -270.0142805598563314
  Basis Set: 6-31G*
  Basis Set:
  Charge       = 0
  Multiplicity = 1
  Basis Set: 6-31G*
  Basis Set:

    Orbital Energies (a.u.)
    -----------------------

    Doubly Occupied:

       1A    -20.552463     2A    -11.268986     3A    -11.219171
       4A    -11.218645     5A    -11.214313     6A    -11.214079
       7A     -1.362115     8A     -1.115136     9A     -0.969002
      10A     -0.948744    11A     -0.803823    12A     -0.783171
      13A     -0.681390    14A     -0.661787    15A     -0.607689
      16A     -0.584506    17A     -0.578463    18A     -0.548699
      19A     -0.504794    20A     -0.484942    21A     -0.473438
      22A     -0.460115    23A     -0.455003    24A     -0.411188

  @DF-RHF Final Energy:  -270.01428080384920

   => Energetics <=

    Nuclear Repulsion Energy =            254.9839936802742955
    One-Electron Energy =                -871.7532235890696484
    Two-Electron Energy =                 346.7549491049460926
    DFT Exchange-Correlation Energy =       0.0000000000000000
    Empirical Dispersion Energy =           0.0000000000000000
    PCM Polarization Energy =               0.0000000000000000
    EFP Energy =                            0.0000000000000000
    Total Energy =                       -270.0142808038492035
    Molecular point group: c1
  Basis Set: 6-31G*
  Basis Set:

  -Total Gradient:
     Atom            X                  Y                   Z
    ------   -----------------  -----------------  -----------------
       1        0.000003576945    -0.000019055625    -0.000000133806
       2       -0.000004880920     0.000031024761     0.000001815812
       3        0.000008161247    -0.000015861649    -0.000013182393
       4        0.000000255394    -0.000002380991    -0.000000725128
       5       -0.000007107907     0.000004163159     0.000006869042
       6       -0.000009525225     0.000013556546     0.000011193148
       7        0.000000583706    -0.000009364625     0.000001070917
       8       -0.000001218897     0.000002483547     0.000007429129
       9        0.000002291773    -0.000005757940     0.000001319505
      10        0.000000995101    -0.000008791315    -0.000001958926
      11       -0.000000832112     0.000003793107    -0.000007481014
      12        0.000004171665     0.000005993725    -0.000005793069
      13        0.000010790510     0.000006348824    -0.000010886332
      14       -0.000010897205    -0.000005667993    -0.000008364208
      15       -0.000008323356     0.000006394077     0.000011787073
      16        0.000011959280    -0.000006877608     0.000007040250

  **** Optimization is complete! (in 9 steps) ****
    Final optimized geometry and variables:
    Molecular point group: c1

    Geometry (in Angstrom), charge = 0, multiplicity = 1:

    H            2.159397943499    -0.072042562775    -0.983810121846
    O            2.098279831475    -0.041253401554    -0.038390228968
    C            0.750406901058    -0.005103336569     0.337072464057
    H            0.760612431709     0.025118469945     1.421133844762
    C           -0.081502509348    -1.201022751022    -0.131747529148
    C           -0.038945161812     1.192113223789    -0.192878785453
    H            0.141496298145    -1.386505775655    -1.181518862454
    H            0.151655732647    -2.110500364346     0.409924340772
    C           -1.544123478404    -0.745250191028     0.034050676630
    H            0.145288335640     1.286093420105    -1.262676227725
    H            0.254259669514     2.127811003125     0.269351917643
    C           -1.503787889247     0.810266744898     0.068211585860
    H           -2.167872783751    -1.114775722557    -0.771669076548
    H           -1.965590526242    -1.133123872480     0.955044896517
    H           -2.176570604174     1.254585448697    -0.656054900502
    H           -1.813758237060     1.170769175580     1.043741572588

  Mulliken Charges: (a.u.)
   Center  Symbol    Alpha    Beta     Spin     Total
       1     H     0.28484  0.28484  0.00000  0.43033
       2     O     4.37505  4.37505  0.00000 -0.75010
       3     C     2.90642  2.90642  0.00000  0.18716
       4     H     0.41630  0.41630  0.00000  0.16740
       5     C     3.17145  3.17145  0.00000 -0.34290
       6     C     3.17038  3.17038  0.00000 -0.34076
       7     H     0.42742  0.42742  0.00000  0.14517
       8     H     0.41049  0.41049  0.00000  0.17901
       9     C     3.16885  3.16885  0.00000 -0.33771
      10     H     0.42813  0.42813  0.00000  0.14374
      11     H     0.41082  0.41082  0.00000  0.17837
      12     C     3.16961  3.16961  0.00000 -0.33923
      13     H     0.41479  0.41479  0.00000  0.17042
      14     H     0.41528  0.41528  0.00000  0.16944
      15     H     0.41427  0.41427  0.00000  0.17146
      16     H     0.41590  0.41590  0.00000  0.16821

   Total alpha = 24.00000, Total beta = 24.00000, Total charge =  0.00000
