  ==> Input File <==

--------------------------------------------------------------------------
set {
	reference rhf
	basis 6-31G*
}

set_num_threads( 4 )
memory 2 gb

molecule MOL {
0 1

O	 0.690035	 -1.107774	 -2.176341
C	 0.074222	 -1.151290	 -1.161326
C	 -1.322786	 -1.689997	 -1.017344
O	 0.550821	 -0.724572	 0.000672
H	 -1.328101	 -2.508380	 -0.306777
H	 -1.680019	 -2.030792	 -1.977623
H	 -1.975421	 -0.915633	 -0.631328
C	 1.863949	 -0.193559	 -0.000319
H	 2.028859	 0.409284	 -0.881648
H	 2.526261	 -1.045082	 -0.000003
H	 2.029520	 0.410555	 0.880008

	symmetry c1
}
set optking {
	frozen_dihedral = ("
		2 4 8 9
	")
}

ee = optimize('scf')
oeprop('DIPOLE', 'QUADRUPOLE', 'MULLIKEN_CHARGES')
f=open( 'psi4out.xyz', 'w' )
f.write( "11  " )
f.write( str(ee) + "\n" )
f.write( MOL.save_string_xyz() )
f.close()
--------------------------------------------------------------------------

    Molecular point group: c1
  Charge       = 0
  Multiplicity = 1
  Basis Set: 6-31G*
  Basis Set:
  @DF-RHF Final Energy:  -266.83442289877485
    Total Energy =                       -266.8344228987747897
    Molecular point group: c1
  Basis Set: 6-31G*
  Basis Set:
  Basis Set: 6-31G*
  Basis Set:
  @DF-RHF Final Energy:  -266.83554608355610
    Total Energy =                       -266.8355460835559825
  Basis Set: 6-31G*
  Basis Set:
  Basis Set: 6-31G*
  Basis Set:
  @DF-RHF Final Energy:  -266.83568533311063
    Total Energy =                       -266.8356853331104617
  Basis Set: 6-31G*
  Basis Set:
  Basis Set: 6-31G*
  Basis Set:
  @DF-RHF Final Energy:  -266.83551778035161
    Total Energy =                       -266.8355177803515517
  Basis Set: 6-31G*
  Basis Set:
  Basis Set: 6-31G*
  Basis Set:
  @DF-RHF Final Energy:  -266.83583156127344
    Total Energy =                       -266.8358315612732667
  Basis Set: 6-31G*
  Basis Set:
  Charge       = 0
  Multiplicity = 1
  Basis Set: 6-31G*
  Basis Set:

    Orbital Energies (a.u.)
    -----------------------

    Doubly Occupied:

       1A    -20.605633     2A    -20.546332     3A    -11.376852
       4A    -11.281773     5A    -11.234534     6A     -1.470483
       7A     -1.364703     8A     -1.035981     9A     -0.953128
      10A     -0.778114    11A     -0.696222    12A     -0.680264
      13A     -0.677162    14A     -0.595832    15A     -0.591780
      16A     -0.560883    17A     -0.526065    18A     -0.522335
      19A     -0.457026    20A     -0.442243

  @DF-RHF Final Energy:  -266.83583176680560

   => Energetics <=

    Nuclear Repulsion Energy =            183.1960251765552812
    One-Electron Energy =                -727.2690208040395419
    Two-Electron Energy =                 277.2371638606787201
    DFT Exchange-Correlation Energy =       0.0000000000000000
    Empirical Dispersion Energy =           0.0000000000000000
    PCM Polarization Energy =               0.0000000000000000
    EFP Energy =                            0.0000000000000000
    Total Energy =                       -266.8358317668055406
    Molecular point group: c1
  Basis Set: 6-31G*
  Basis Set:

  -Total Gradient:
     Atom            X                  Y                   Z
    ------   -----------------  -----------------  -----------------
       1       -0.000017090454     0.000001801496     0.000008199978
       2       -0.000469499085     0.001218273504    -0.000264815294
       3        0.000000391609     0.000003265506     0.000009406413
       4        0.000901653366    -0.002054304813     0.000167189373
       5        0.000002446180    -0.000000439579    -0.000000387798
       6        0.000003459164    -0.000000420021    -0.000002514167
       7        0.000004752183     0.000000821288    -0.000001286146
       8       -0.000883147012     0.002106607914     0.000869654748
       9        0.000504632439    -0.001253166385    -0.000793913077
      10       -0.000019442122    -0.000012916619    -0.000000329887
      11       -0.000028156268    -0.000009522290     0.000008795862

  **** Optimization is complete! (in 6 steps) ****
    Final optimized geometry and variables:
    Molecular point group: c1

    Geometry (in Angstrom), charge = 0, multiplicity = 1:

    O            0.291903534332    -0.159042278793    -1.320397210761
    C           -0.315624237052    -0.189406799804    -0.299985495642
    C           -1.720017981163    -0.705636015971    -0.144586473808
    O            0.172370719685     0.232915353208     0.859223069606
    H           -1.732281861284    -1.522745010499     0.567396562156
    H           -2.089696925116    -1.042696101200    -1.101388972639
    H           -2.357580273584     0.079314723053     0.245289455054
    C            1.480876313677     0.776305714143     0.862706452067
    H            1.643351869151     1.390581000361    -0.008884549075
    H            2.211079271911    -0.022010536163     0.871095529728
    H            1.562261177042     1.358918952637     1.767004609459

  Mulliken Charges: (a.u.)
   Center  Symbol    Alpha    Beta     Spin     Total
       1     O     4.28201  4.28201  0.00000 -0.56402
       2     C     2.62236  2.62236  0.00000  0.75528
       3     C     3.28180  3.28180  0.00000 -0.56361
       4     O     4.29993  4.29993  0.00000 -0.59987
       5     H     0.39983  0.39983  0.00000  0.20034
       6     H     0.39664  0.39664  0.00000  0.20672
       7     H     0.40008  0.40008  0.00000  0.19984
       8     C     3.09401  3.09401  0.00000 -0.18803
       9     H     0.40251  0.40251  0.00000  0.19498
      10     H     0.41209  0.41209  0.00000  0.17581
      11     H     0.40873  0.40873  0.00000  0.18255

   Total alpha = 20.00000, Total beta = 20.00000, Total charge =  0.00000
