  ==> Input File <==

--------------------------------------------------------------------------
set {
	reference rhf
	basis 6-31G*
}

set_num_threads( 4 )
memory 2 gb

molecule MOL {
0 1

H	 3.729471	 -0.928294	 -0.070608
O	 2.826016	 -1.159218	 0.122261
C	 2.077727	 -0.067559	 -0.035091
C	 0.624473	 -0.343591	 0.253101
O	 2.542965	 0.974826	 -0.363729
C	 -0.265902	 0.883932	 0.072916
H	 0.324016	 -1.163849	 -0.390541
H	 0.565024	 -0.726111	 1.268924
C	 -1.728698	 0.646073	 0.462102
H	 -0.209144	 1.219470	 -0.958188
H	 0.135059	 1.692851	 0.673903
C	 -1.973372	 -0.591433	 1.330244
H	 -2.309149	 0.547870	 -0.452334
H	 -2.116866	 1.526586	 0.972180
C	 -3.458104	 -0.835595	 1.599379
H	 -1.547495	 -1.463691	 0.838472
H	 -1.455046	 -0.492024	 2.280422
H	 -3.606118	 -1.715799	 2.217155
H	 -4.004858	 -0.985395	 0.672854
H	 -3.907049	 0.009118	 2.114301

	symmetry c1
}
set optking {
	frozen_dihedral = ("
		12 9 6 10
	")
}

ee = optimize('scf')
oeprop('DIPOLE', 'QUADRUPOLE', 'MULLIKEN_CHARGES')
f=open( 'psi4out.xyz', 'w' )
f.write( "20  " )
f.write( str(ee) + "\n" )
f.write( MOL.save_string_xyz() )
f.close()
--------------------------------------------------------------------------

    Molecular point group: c1
  Charge       = 0
  Multiplicity = 1
  Basis Set: 6-31G*
  Basis Set:
  @DF-RHF Final Energy:  -383.93991669734947
    Total Energy =                       -383.9399166973496449
    Molecular point group: c1
  Basis Set: 6-31G*
  Basis Set:
  Basis Set: 6-31G*
  Basis Set:
  @DF-RHF Final Energy:  -383.94038069468434
    Total Energy =                       -383.9403806946838813
  Basis Set: 6-31G*
  Basis Set:
  Basis Set: 6-31G*
  Basis Set:
  @DF-RHF Final Energy:  -383.94195118149503
    Total Energy =                       -383.9419511814949715
  Basis Set: 6-31G*
  Basis Set:
  Basis Set: 6-31G*
  Basis Set:
  @DF-RHF Final Energy:  -383.94201615984673
    Total Energy =                       -383.9420161598469008
  Basis Set: 6-31G*
  Basis Set:
  @DF-RHF Final Energy:  -383.94183966832463
    Total Energy =                       -383.9418396683246328
  @DF-RHF Final Energy:  -383.94206059561833
    Total Energy =                       -383.9420605956185000
  Basis Set: 6-31G*
  Basis Set:
  @DF-RHF Final Energy:  -383.94205132220327
    Total Energy =                       -383.9420513222033833
  Basis Set: 6-31G*
  Basis Set:
  Basis Set: 6-31G*
  Basis Set:
  @DF-RHF Final Energy:  -383.94206921066325
    Total Energy =                       -383.9420692106633624
  Basis Set: 6-31G*
  Basis Set:
  Basis Set: 6-31G*
  Basis Set:
  @DF-RHF Final Energy:  -383.94207031965885
    Total Energy =                       -383.9420703196584554
  Basis Set: 6-31G*
  Basis Set:
  Charge       = 0
  Multiplicity = 1
  Basis Set: 6-31G*
  Basis Set:

    Orbital Energies (a.u.)
    -----------------------

    Doubly Occupied:

       1A    -20.612215     2A    -20.551449     3A    -11.380819
       4A    -11.239927     5A    -11.223183     6A    -11.221569
       7A    -11.220413     8A    -11.212763     9A     -1.474333
      10A     -1.365377    11A     -1.093790    12A     -1.040494
      13A     -0.959877    14A     -0.870255    15A     -0.821489
      16A     -0.767921    17A     -0.699369    18A     -0.688335
      19A     -0.669420    20A     -0.637208    21A     -0.595769
      22A     -0.594160    23A     -0.580231    24A     -0.549452
      25A     -0.539943    26A     -0.517622    27A     -0.499379
      28A     -0.478768    29A     -0.470360    30A     -0.460543
      31A     -0.455155    32A     -0.443829

  @DF-RHF Final Energy:  -383.94207052122732

   => Energetics <=

    Nuclear Repulsion Energy =            376.9663072640283303
    One-Electron Energy =               -1269.9459182484013127
    Two-Electron Energy =                 509.0375404631456036
    DFT Exchange-Correlation Energy =       0.0000000000000000
    Empirical Dispersion Energy =           0.0000000000000000
    PCM Polarization Energy =               0.0000000000000000
    EFP Energy =                            0.0000000000000000
    Total Energy =                       -383.9420705212274356
    Molecular point group: c1
  Basis Set: 6-31G*
  Basis Set:

  -Total Gradient:
     Atom            X                  Y                   Z
    ------   -----------------  -----------------  -----------------
       1       -0.000004035307     0.000003792682     0.000002805116
       2       -0.000005731914    -0.000011025569     0.000000281063
       3        0.000006654366    -0.000002547286    -0.000017059899
       4       -0.000010727119    -0.000012789356    -0.000033133527
       5       -0.000007446320     0.000008090505     0.000017213833
       6       -0.000872331630     0.005250325552     0.000390301258
       7        0.000004583790    -0.000001278714     0.000012848811
       8        0.000000802620     0.000007389035     0.000011553048
       9        0.000563168114     0.002174849434     0.004449655749
      10        0.000608862416    -0.005124294143    -0.001538398157
      11        0.000002721892     0.000000590704    -0.000000241935
      12       -0.000295324725    -0.002290418468    -0.003313852431
      13       -0.000005615216     0.000007160530     0.000003066272
      14        0.000006324819    -0.000003589057     0.000012015137
      15        0.000003749644     0.000001152706     0.000005619124
      16        0.000007398523    -0.000003551255    -0.000002806336
      17       -0.000007690492    -0.000003654124     0.000001311871
      18       -0.000000194352     0.000000726546     0.000001730656
      19        0.000003937755    -0.000002886896    -0.000000315862
      20        0.000000893133     0.000001957174    -0.000002593789

  **** Optimization is complete! (in 10 steps) ****
    Final optimized geometry and variables:
    Molecular point group: c1

    Geometry (in Angstrom), charge = 0, multiplicity = 1:

    H            3.666219341926    -0.757936526559    -0.600635072181
    O            2.783839599130    -1.017383982414    -0.354002642765
    C            1.987382374254     0.042346958702    -0.493646115481
    C            0.563095532729    -0.282109275808    -0.120819890936
    O            2.395682735059     1.093060502243    -0.868495048079
    C           -0.372540591012     0.918772562334    -0.276298986736
    H            0.255085213281    -1.115751669676    -0.745051209001
    H            0.581550473990    -0.662485234879     0.894929408502
    C           -1.862307437199     0.644680561865     0.048208571009
    H           -0.291949254722     1.238406440775    -1.308586248516
    H            0.005221387714     1.729424569162     0.335121797401
    C           -2.182014771333    -0.574399819454     0.920751813671
    H           -2.403088168028     0.522324006317    -0.887576183539
    H           -2.283118935721     1.530677318688     0.515025654496
    C           -3.680890776530    -0.705759524157     1.190865708640
    H           -1.829408428892    -1.481398064548     0.438787715233
    H           -1.656174668097    -0.505313615329     1.870794109821
    H           -3.894363505162    -1.577371473356     1.801656908448
    H           -4.238659577937    -0.806376164246     0.264062827096
    H           -4.063630955584     0.166437448832     1.712902681802

  Mulliken Charges: (a.u.)
   Center  Symbol    Alpha    Beta     Spin     Total
       1     H     0.26789  0.26789  0.00000  0.46422
       2     O     4.35173  4.35173  0.00000 -0.70346
       3     C     2.62190  2.62190  0.00000  0.75621
       4     C     3.21545  3.21545  0.00000 -0.43091
       5     O     4.27930  4.27930  0.00000 -0.55860
       6     C     3.15580  3.15580  0.00000 -0.31160
       7     H     0.39864  0.39864  0.00000  0.20272
       8     H     0.39684  0.39684  0.00000  0.20632
       9     C     3.15592  3.15592  0.00000 -0.31183
      10     H     0.40859  0.40859  0.00000  0.18282
      11     H     0.40909  0.40909  0.00000  0.18182
      12     C     3.15728  3.15728  0.00000 -0.31455
      13     H     0.42085  0.42085  0.00000  0.15830
      14     H     0.41761  0.41761  0.00000  0.16477
      15     C     3.23912  3.23912  0.00000 -0.47824
      16     H     0.42160  0.42160  0.00000  0.15679
      17     H     0.42264  0.42264  0.00000  0.15472
      18     H     0.41822  0.41822  0.00000  0.16357
      19     H     0.42098  0.42098  0.00000  0.15805
      20     H     0.42056  0.42056  0.00000  0.15889

   Total alpha = 32.00000, Total beta = 32.00000, Total charge = -0.00000
