  ==> Input File <==

--------------------------------------------------------------------------
set {
	reference rhf
	basis 6-31G*
}

set_num_threads( 1 )
memory 2 gb

molecule MOL {
0 1

H	 3.729471	 -0.928294	 -0.070608
O	 2.826016	 -1.159218	 0.122261
C	 2.077727	 -0.067559	 -0.035091
C	 0.624473	 -0.343591	 0.253101
O	 2.542965	 0.974826	 -0.363729
C	 -0.265902	 0.883932	 0.072916
H	 0.324016	 -1.163849	 -0.390541
H	 0.565024	 -0.726111	 1.268924
C	 -1.728698	 0.646073	 0.462102
H	 -0.209144	 1.219470	 -0.958188
H	 0.135059	 1.692851	 0.673903
C	 -2.104131	 1.103284	 1.874535
H	 -1.931083	 -0.419136	 0.377659
H	 -2.381046	 1.134813	 -0.260208
C	 -3.544044	 0.747075	 2.243647
H	 -1.424356	 0.646807	 2.591179
H	 -1.972101	 2.178017	 1.968867
H	 -3.787070	 1.082233	 3.247102
H	 -3.704342	 -0.326537	 2.205051
H	 -4.249859	 1.210636	 1.560147

	symmetry c1
}
set optking {
	frozen_dihedral = ("
		16 12 9 6,
		7 4 6 10,
		5 3 4 7,
		1 2 3 5
	")
}

ee = energy('scf')
oeprop('DIPOLE', 'QUADRUPOLE', 'MULLIKEN_CHARGES')
f=open( 'psi4out.xyz', 'w' )
f.write( "20  " )
f.write( str(ee) + "\n" )
f.write( MOL.save_string_xyz() )
f.close()
--------------------------------------------------------------------------

    Molecular point group: c1

    Geometry (in Angstrom), charge = 0, multiplicity = 1:

       Center              X                  Y                   Z               Mass
    ------------   -----------------  -----------------  -----------------  -----------------
           H          3.629823734609    -1.258451904555    -0.646925771111     1.007825032070
           O          2.726368734609    -1.489375904555    -0.454056771111    15.994914619560
           C          1.978079734609    -0.397716904555    -0.611408771111    12.000000000000
           C          0.524825734609    -0.673748904555    -0.323216771111    12.000000000000
           O          2.443317734609     0.644668095445    -0.940046771111    15.994914619560
           C         -0.365549265391     0.553774095445    -0.503401771111    12.000000000000
           H          0.224368734609    -1.494006904555    -0.966858771111     1.007825032070
           H          0.465376734609    -1.056268904555     0.692606228889     1.007825032070
           C         -1.828345265391     0.315915095445    -0.114215771111    12.000000000000
           H         -0.308791265391     0.889312095445    -1.534505771111     1.007825032070
           H          0.035411734609     1.362693095445     0.097585228889     1.007825032070
           C         -2.203778265391     0.773126095445     1.298217228889    12.000000000000
           H         -2.030730265391    -0.749293904555    -0.198658771111     1.007825032070
           H         -2.480693265391     0.804655095445    -0.836525771111     1.007825032070
           C         -3.643691265391     0.416917095445     1.667329228889    12.000000000000
           H         -1.524003265391     0.316649095445     2.014861228889     1.007825032070
           H         -2.071748265391     1.847859095445     1.392549228889     1.007825032070
           H         -3.886717265391     0.752075095445     2.670784228889     1.007825032070
           H         -3.803989265391    -0.656694904555     1.628733228889     1.007825032070
           H         -4.349506265391     0.880478095445     0.983829228889     1.007825032070

  Charge       = 0
  Multiplicity = 1
  Basis Set: 6-31G*
  Basis Set:

    Orbital Energies (a.u.)
    -----------------------

    Doubly Occupied:

       1A    -20.612660     2A    -20.551817     3A    -11.381230
       4A    -11.241302     5A    -11.221807     6A    -11.220167
       7A    -11.219197     8A    -11.211653     9A     -1.474747
      10A     -1.365789    11A     -1.095396    12A     -1.042029
      13A     -0.960372    14A     -0.868257    15A     -0.810431
      16A     -0.784215    17A     -0.699642    18A     -0.689329
      19A     -0.663726    20A     -0.634691    21A     -0.604187
      22A     -0.592983    23A     -0.572374    24A     -0.558448
      25A     -0.541375    26A     -0.504323    27A     -0.499841
      28A     -0.479269    29A     -0.470832    30A     -0.468068
      31A     -0.455847    32A     -0.442838

  @DF-RHF Final Energy:  -383.94578162823825

   => Energetics <=

    Nuclear Repulsion Energy =            374.2648600145203091
    One-Electron Energy =               -1264.5435740811299183
    Two-Electron Energy =                 506.3329324383723815
    DFT Exchange-Correlation Energy =       0.0000000000000000
    Empirical Dispersion Energy =           0.0000000000000000
    PCM Polarization Energy =               0.0000000000000000
    EFP Energy =                            0.0000000000000000
    Total Energy =                       -383.9457816282372278

  Mulliken Charges: (a.u.)
   Center  Symbol    Alpha    Beta     Spin     Total
       1     H     0.26785  0.26785  0.00000  0.46430
       2     O     4.35166  4.35166  0.00000 -0.70331
       3     C     2.62293  2.62293  0.00000  0.75414
       4     C     3.21278  3.21278  0.00000 -0.42557
       5     O     4.27906  4.27906  0.00000 -0.55811
       6     C     3.15570  3.15570  0.00000 -0.31139
       7     H     0.39781  0.39781  0.00000  0.20438
       8     H     0.39853  0.39853  0.00000  0.20295
       9     C     3.15697  3.15697  0.00000 -0.31395
      10     H     0.40952  0.40952  0.00000  0.18095
      11     H     0.40836  0.40836  0.00000  0.18328
      12     C     3.15302  3.15302  0.00000 -0.30603
      13     H     0.42357  0.42357  0.00000  0.15286
      14     H     0.41765  0.41765  0.00000  0.16471
      15     C     3.24015  3.24015  0.00000 -0.48029
      16     H     0.42420  0.42420  0.00000  0.15160
      17     H     0.41958  0.41958  0.00000  0.16083
      18     H     0.41826  0.41826  0.00000  0.16348
      19     H     0.42164  0.42164  0.00000  0.15673
      20     H     0.42078  0.42078  0.00000  0.15844

   Total alpha = 32.00000, Total beta = 32.00000, Total charge =  0.00000
