  ==> Input File <==

--------------------------------------------------------------------------
set {
	reference rhf
	basis 6-31G*
}

set_num_threads( 1 )
memory 2 gb

molecule MOL {
0 1

H	 -2.796182	 0.440430	 0.367561
O	 -2.035884	 -0.060112	 0.102722
C	 -0.955155	 0.788182	 -0.092531
C	 0.353668	 0.040312	 -0.004810
H	 -0.985057	 1.290372	 -1.054184
H	 -0.974469	 1.533190	 0.688632
F	 0.394464	 -0.937475	 -0.903053
F	 1.368604	 0.853376	 -0.249821
F	 0.546173	 -0.502608	 1.179981

	symmetry c1
}
set optking {
	frozen_dihedral = ("
		7 4 3 5
	")
}

ee = energy('scf')
oeprop('DIPOLE', 'QUADRUPOLE', 'MULLIKEN_CHARGES')
f=open( 'psi4out.xyz', 'w' )
f.write( "9  " )
f.write( str(ee) + "\n" )
f.write( MOL.save_string_xyz() )
f.close()
--------------------------------------------------------------------------

    Molecular point group: c1

    Geometry (in Angstrom), charge = 0, multiplicity = 1:

       Center              X                  Y                   Z               Mass
    ------------   -----------------  -----------------  -----------------  -----------------
           H         -2.789156308815     0.429196743913     0.357642828248     1.007825032070
           O         -2.028858308815    -0.071345256087     0.092803828248    15.994914619560
           C         -0.948129308815     0.776948743913    -0.102449171752    12.000000000000
           C          0.360693691185     0.029078743913    -0.014728171752    12.000000000000
           H         -0.978031308815     1.279138743913    -1.064102171752     1.007825032070
           H         -0.967443308815     1.521956743913     0.678713828248     1.007825032070
           F          0.401489691185    -0.948708256087    -0.912971171752    18.998403224000
           F          1.375629691185     0.842142743913    -0.259739171752    18.998403224000
           F          0.553198691185    -0.513841256087     1.170062828248    18.998403224000

  Charge       = 0
  Multiplicity = 1
  Basis Set: 6-31G*
  Basis Set:

    Orbital Energies (a.u.)
    -----------------------

    Doubly Occupied:

       1A    -26.341496     2A    -26.335410     3A    -26.329678
       4A    -20.587901     5A    -11.499698     6A    -11.309969
       7A     -1.733913     8A     -1.634901     9A     -1.626905
      10A     -1.401066    11A     -1.047864    12A     -0.917287
      13A     -0.825589    14A     -0.823024    15A     -0.784656
      16A     -0.733424    17A     -0.707409    18A     -0.696429
      19A     -0.667204    20A     -0.650672    21A     -0.638672
      22A     -0.635011    23A     -0.596990    24A     -0.525977
      25A     -0.477225

  @DF-RHF Final Energy:  -450.65783264615015

   => Energetics <=

    Nuclear Repulsion Energy =            276.0502058992935872
    One-Electron Energy =               -1174.3593640504009272
    Two-Electron Energy =                 447.6513255049571853
    DFT Exchange-Correlation Energy =       0.0000000000000000
    Empirical Dispersion Energy =           0.0000000000000000
    PCM Polarization Energy =               0.0000000000000000
    EFP Energy =                            0.0000000000000000
    Total Energy =                       -450.6578326461501547

  Mulliken Charges: (a.u.)
   Center  Symbol    Alpha    Beta     Spin     Total
       1     H     0.27105  0.27105  0.00000  0.45790
       2     O     4.36322  4.36322  0.00000 -0.72644
       3     C     3.05152  3.05152  0.00000 -0.10303
       4     C     2.45349  2.45349  0.00000  1.09302
       5     H     0.40951  0.40951  0.00000  0.18097
       6     H     0.41272  0.41272  0.00000  0.17457
       7     F     4.68078  4.68078  0.00000 -0.36156
       8     F     4.68201  4.68201  0.00000 -0.36402
       9     F     4.67570  4.67570  0.00000 -0.35140

   Total alpha = 25.00000, Total beta = 25.00000, Total charge =  0.00000
