  ==> Input File <==

--------------------------------------------------------------------------
set {
	reference rhf
	basis cc-pvtz
}

set_num_threads( 4 )
memory 2 gb

molecule MOL {
0 1

H	 -3.436473	 1.252944	 -1.023892
O	 -3.458596	 0.315260	 -0.960865
C	 -3.176635	 -0.080824	 0.355601
C	 -1.763371	 0.265266	 0.799691
H	 -3.321825	 -1.153438	 0.379502
H	 -3.895468	 0.357385	 1.043382
C	 -0.673390	 -0.426948	 -0.013392
H	 -1.631049	 1.344913	 0.747560
H	 -1.664587	 -0.001624	 1.849167
C	 0.737842	 -0.043159	 0.423759
H	 -0.806103	 -0.190518	 -1.063345
H	 -0.797221	 -1.503753	 0.074146
C	 1.824000	 -0.743224	 -0.390623
H	 0.850588	 1.033777	 0.343840
H	 0.868587	 -0.286314	 1.476203
C	 3.255957	 -0.453067	 0.062319
H	 1.718250	 -0.470599	 -1.438164
H	 1.658105	 -1.815850	 -0.339904
C	 3.593087	 1.029433	 0.202602
H	 3.939115	 -0.897924	 -0.654739
H	 3.441504	 -0.955545	 1.008104
H	 3.411442	 1.559385	 -0.727039
H	 4.637820	 1.163452	 0.459142
H	 3.004882	 1.508070	 0.976248

	symmetry c1
}
set optking {
	frozen_dihedral = ("
		20 16 13 17
	")
}

ee = optimize('scf')
oeprop('DIPOLE', 'QUADRUPOLE', 'MULLIKEN_CHARGES')
f=open( 'psi4out.xyz', 'w' )
f.write( "24  " )
f.write( str(ee) + "\n" )
f.write( MOL.save_string_xyz() )
f.close()
--------------------------------------------------------------------------

    Molecular point group: c1
  Charge       = 0
  Multiplicity = 1
  Basis Set: CC-PVTZ
  Basis Set:
  @DF-RHF Final Energy:  -349.37951842670060
    Total Energy =                       -349.3795184267006562
    Molecular point group: c1
  Basis Set: CC-PVTZ
  Basis Set:
  Basis Set: CC-PVTZ
  Basis Set:
  @DF-RHF Final Energy:  -349.37953891144525
    Total Energy =                       -349.3795389114452519
  Basis Set: CC-PVTZ
  Basis Set:
  Basis Set: CC-PVTZ
  Basis Set:
  @DF-RHF Final Energy:  -349.37971161311395
    Total Energy =                       -349.3797116131144662
  Basis Set: CC-PVTZ
  Basis Set:
  Basis Set: CC-PVTZ
  Basis Set:
  @DF-RHF Final Energy:  -349.37972402501794
    Total Energy =                       -349.3797240250180494
  Basis Set: CC-PVTZ
  Basis Set:
  Basis Set: CC-PVTZ
  Basis Set:
  @DF-RHF Final Energy:  -349.37972763816288
    Total Energy =                       -349.3797276381628194
  Basis Set: CC-PVTZ
  Basis Set:
  Charge       = 0
  Multiplicity = 1
  Basis Set: CC-PVTZ
  Basis Set:

    Orbital Energies (a.u.)
    -----------------------

    Doubly Occupied:

       1A    -20.546275     2A    -11.265523     3A    -11.215176
       4A    -11.212226     5A    -11.210315     6A    -11.209421
       7A    -11.209003     8A    -11.205036     9A     -1.364134
      10A     -1.089828    11A     -1.049195    12A     -0.986376
      13A     -0.916167    14A     -0.852755    15A     -0.802072
      16A     -0.773762    17A     -0.681938    18A     -0.654971
      19A     -0.628322    20A     -0.620487    21A     -0.596481
      22A     -0.586793    23A     -0.557386    24A     -0.543702
      25A     -0.515583    26A     -0.507175    27A     -0.502898
      28A     -0.472925    29A     -0.468077    30A     -0.460625
      31A     -0.454839    32A     -0.451530    33A     -0.421504

  @DF-RHF Final Energy:  -349.37972782769543

   => Energetics <=

    Nuclear Repulsion Energy =            385.3202903094302201
    One-Electron Energy =               -1237.3350360092672418
    Two-Electron Energy =                 502.6350178721420434
    DFT Exchange-Correlation Energy =       0.0000000000000000
    Empirical Dispersion Energy =           0.0000000000000000
    PCM Polarization Energy =               0.0000000000000000
    EFP Energy =                            0.0000000000000000
    Total Energy =                       -349.3797278276949783
    Molecular point group: c1
  Basis Set: CC-PVTZ
  Basis Set:

  -Total Gradient:
     Atom            X                  Y                   Z
    ------   -----------------  -----------------  -----------------
       1        0.000000587417    -0.000000737054     0.000000984904
       2       -0.000000570455    -0.000002901887    -0.000002768904
       3       -0.000000800931     0.000007872187     0.000000872455
       4       -0.000002308333     0.000003560822    -0.000004942583
       5        0.000001088252     0.000001279724    -0.000000899492
       6       -0.000001221937    -0.000000568069     0.000000915197
       7        0.000001822537     0.000000969971    -0.000000913120
       8       -0.000001088892     0.000001880436     0.000002833621
       9        0.000001784377    -0.000002972947    -0.000002771932
      10        0.000003956827    -0.000011781841     0.000014338892
      11       -0.000003791541    -0.000003140400     0.000000431050
      12        0.000005009614     0.000001259768     0.000000841131
      13       -0.000870956733     0.003878341052     0.000638996742
      14        0.000000700900    -0.000003196389    -0.000001308056
      15       -0.000000743101     0.000001897829     0.000005124356
      16        0.000082265608    -0.003622961837     0.001651100414
      17        0.000733326488    -0.002697292326    -0.000799440211
      18       -0.000000384187    -0.000000545747     0.000009144038
      19       -0.000009795558    -0.000007535349    -0.000001625882
      20        0.000068284326     0.002460297834    -0.001510690091
      21       -0.000005980171    -0.000002617193    -0.000002360997
      22       -0.000003569311     0.000000836591    -0.000000337436
      23        0.000002283636    -0.000002833948    -0.000000227220
      24        0.000000101169     0.000000888775     0.000002703125

  **** Optimization is complete! (in 6 steps) ****
    Final optimized geometry and variables:
    Molecular point group: c1

    Geometry (in Angstrom), charge = 0, multiplicity = 1:

    H           -3.445034651705     1.216899679845    -1.075944150158
    O           -3.457124834105     0.279590750333    -1.005331843788
    C           -3.169873324750    -0.102618792777     0.313993460046
    C           -1.759887839963     0.261965191515     0.753768452778
    H           -3.303732879038    -1.176482954701     0.346457330316
    H           -3.892762389665     0.333396442073     0.998923711567
    C           -0.663414745906    -0.423222743459    -0.056519095668
    H           -1.639643840511     1.342656223299     0.694698930509
    H           -1.656680535450     0.002782702781     1.804765705474
    C            0.744153554742    -0.024400179643     0.379150911274
    H           -0.798048892047    -0.191952674032    -1.107442054830
    H           -0.777303974905    -1.500712625655     0.035032272418
    C            1.834245316694    -0.709825274124    -0.440246623943
    H            0.844390669484     1.053664834109     0.301600200899
    H            0.879458725056    -0.268378426744     1.431126254174
    C            3.269664795271    -0.460815341678     0.030346836864
    H            1.745775281813    -0.426583542317    -1.486447328096
    H            1.658131854457    -1.782543525017    -0.419411338347
    C            3.657696935371     1.011439109033     0.159060972260
    H            3.943447250593    -0.919767909725    -0.686544870987
    H            3.432673756169    -0.959171999886     0.981585636006
    H            3.476028133485     1.545983234588    -0.768240251597
    H            4.711565085478     1.109330273787     0.393658512043
    H            3.102340666065     1.511616422201     0.943042220850

  Mulliken Charges: (a.u.)
   Center  Symbol    Alpha    Beta     Spin     Total
       1     H     0.39530  0.39530  0.00000  0.20939
       2     O     4.20373  4.20373  0.00000 -0.40747
       3     C     2.97776  2.97776  0.00000  0.04447
       4     C     3.10178  3.10178  0.00000 -0.20357
       5     H     0.45892  0.45892  0.00000  0.08217
       6     H     0.46033  0.46033  0.00000  0.07934
       7     C     3.08730  3.08730  0.00000 -0.17461
       8     H     0.45922  0.45922  0.00000  0.08156
       9     H     0.45347  0.45347  0.00000  0.09306
      10     C     3.09216  3.09216  0.00000 -0.18433
      11     H     0.44652  0.44652  0.00000  0.10697
      12     H     0.45480  0.45480  0.00000  0.09039
      13     C     3.09571  3.09571  0.00000 -0.19142
      14     H     0.45226  0.45226  0.00000  0.09547
      15     H     0.45559  0.45559  0.00000  0.08881
      16     C     3.08968  3.08968  0.00000 -0.17936
      17     H     0.45232  0.45232  0.00000  0.09536
      18     H     0.45081  0.45081  0.00000  0.09838
      19     C     3.15571  3.15571  0.00000 -0.31143
      20     H     0.44949  0.44949  0.00000  0.10102
      21     H     0.45361  0.45361  0.00000  0.09278
      22     H     0.45436  0.45436  0.00000  0.09128
      23     H     0.44597  0.44597  0.00000  0.10805
      24     H     0.45316  0.45316  0.00000  0.09367

   Total alpha = 33.00000, Total beta = 33.00000, Total charge = -0.00000
