  ==> Input File <==

--------------------------------------------------------------------------
set {
	reference rhf
	basis 6-31G*
}

set_num_threads( 1 )
memory 2 gb

molecule MOL {
0 1

O	 0.749854	 1.307668	 -0.000040
C	 0.576249	 0.131685	 -0.000108
C	 -0.766779	 -0.556801	 -0.000461
O	 1.568443	 -0.749345	 -0.000005
C	 -1.945214	 0.412366	 0.000161
H	 -0.796911	 -1.211249	 -0.867467
H	 -0.796854	 -1.212390	 0.865687
C	 -3.287791	 -0.317055	 0.000105
H	 -1.876087	 1.060580	 -0.866812
H	 -1.875822	 1.059691	 0.867761
H	 -3.394745	 -0.949193	 -0.877058
H	 -4.111778	 0.388953	 0.000015
H	 -3.394954	 -0.949187	 0.877259
C	 2.690697	 -0.453312	 0.811239
H	 3.151016	 0.473239	 0.499545
H	 3.376542	 -1.275226	 0.677298
H	 2.399336	 -0.373850	 1.848690

	symmetry c1
}
set optking {
	frozen_dihedral = ("
		1 2 3 6,
		9 5 3 6
	")
}

ee = energy('scf')
oeprop('DIPOLE', 'QUADRUPOLE', 'MULLIKEN_CHARGES')
f=open( 'psi4out.xyz', 'w' )
f.write( "17  " )
f.write( str(ee) + "\n" )
f.write( MOL.save_string_xyz() )
f.close()
--------------------------------------------------------------------------

    Molecular point group: c1

    Geometry (in Angstrom), charge = 0, multiplicity = 1:

       Center              X                  Y                   Z               Mass
    ------------   -----------------  -----------------  -----------------  -----------------
           O          0.780134100119     1.341754008487    -0.125241731671    15.994914619560
           C          0.606529100119     0.165771008487    -0.125309731671    12.000000000000
           C         -0.736498899881    -0.522714991513    -0.125662731671    12.000000000000
           O          1.598723100119    -0.715258991513    -0.125206731671    15.994914619560
           C         -1.914933899881     0.446452008487    -0.125040731671    12.000000000000
           H         -0.766630899881    -1.177162991513    -0.992668731671     1.007825032070
           H         -0.766573899881    -1.178303991513     0.740485268329     1.007825032070
           C         -3.257510899881    -0.282968991513    -0.125096731671    12.000000000000
           H         -1.845806899881     1.094666008487    -0.992013731671     1.007825032070
           H         -1.845541899881     1.093777008487     0.742559268329     1.007825032070
           H         -3.364464899881    -0.915106991513    -1.002259731671     1.007825032070
           H         -4.081497899881     0.423039008487    -0.125186731671     1.007825032070
           H         -3.364673899881    -0.915100991513     0.752057268329     1.007825032070
           C          2.720977100119    -0.419225991513     0.686037268329    12.000000000000
           H          3.181296100119     0.507325008487     0.374343268329     1.007825032070
           H          3.406822100119    -1.241139991513     0.552096268329     1.007825032070
           H          2.429616100119    -0.339763991513     1.723488268329     1.007825032070

  Charge       = 0
  Multiplicity = 1
  Basis Set: 6-31G*
  Basis Set:

    Orbital Energies (a.u.)
    -----------------------

    Doubly Occupied:

       1A    -20.596464     2A    -20.548988     3A    -11.373343
       4A    -11.285327     5A    -11.236299     6A    -11.221912
       7A    -11.214785     8A     -1.467472     9A     -1.364084
      10A     -1.080288    11A     -1.000045    12A     -0.943165
      13A     -0.828761    14A     -0.767642    15A     -0.700127
      16A     -0.681552    17A     -0.672692    18A     -0.636108
      19A     -0.603057    20A     -0.575778    21A     -0.567645
      22A     -0.532684    23A     -0.519573    24A     -0.497263
      25A     -0.488243    26A     -0.479142    27A     -0.454352
      28A     -0.435497

  @DF-RHF Final Energy:  -344.89832907323870

   => Energetics <=

    Nuclear Repulsion Energy =            312.5790904960953753
    One-Electron Energy =               -1089.4100633632140216
    Two-Electron Energy =                 431.9326437938791514
    DFT Exchange-Correlation Energy =       0.0000000000000000
    Empirical Dispersion Energy =           0.0000000000000000
    PCM Polarization Energy =               0.0000000000000000
    EFP Energy =                            0.0000000000000000
    Total Energy =                       -344.8983290732394380

  Mulliken Charges: (a.u.)
   Center  Symbol    Alpha    Beta     Spin     Total
       1     O     4.27713  4.27713  0.00000 -0.55427
       2     C     2.60622  2.60622  0.00000  0.78756
       3     C     3.20774  3.20774  0.00000 -0.41549
       4     O     4.30922  4.30922  0.00000 -0.61843
       5     C     3.15257  3.15257  0.00000 -0.30513
       6     H     0.39973  0.39973  0.00000  0.20055
       7     H     0.40392  0.40392  0.00000  0.19216
       8     C     3.24263  3.24263  0.00000 -0.48525
       9     H     0.41024  0.41024  0.00000  0.17952
      10     H     0.41176  0.41176  0.00000  0.17649
      11     H     0.42107  0.42107  0.00000  0.15787
      12     H     0.41515  0.41515  0.00000  0.16969
      13     H     0.42189  0.42189  0.00000  0.15623
      14     C     3.09507  3.09507  0.00000 -0.19015
      15     H     0.40241  0.40241  0.00000  0.19517
      16     H     0.40639  0.40639  0.00000  0.18722
      17     H     0.41687  0.41687  0.00000  0.16627

   Total alpha = 28.00000, Total beta = 28.00000, Total charge =  0.00000
