  ==> Input File <==

--------------------------------------------------------------------------
set {
	reference rhf
	basis cc-pvtz
}

set_num_threads( 4 )
memory 2 gb

molecule MOL {
0 1

H	 0.247673	 2.849828	 0.587725
C	 0.794616	 1.907522	 0.447186
C	 0.062554	 0.862911	 -0.350953
O	 1.877573	 1.778362	 0.902901
C	 -1.339253	 0.577611	 0.196911
H	 0.667388	 -0.034163	 -0.381398
H	 -0.021020	 1.246327	 -1.365390
C	 -1.813142	 -0.849710	 -0.061612
H	 -2.032833	 1.276441	 -0.256032
H	 -1.357249	 0.782269	 1.263793
H	 -1.839268	 -1.063526	 -1.124230
H	 -2.810118	 -1.001930	 0.334000
H	 -1.159274	 -1.579980	 0.402282

	symmetry c1
}
set optking {
	frozen_dihedral = ("
		6 3 5 9
	")
}

ee = optimize('scf')
oeprop('DIPOLE', 'QUADRUPOLE', 'MULLIKEN_CHARGES')
f=open( 'psi4out.xyz', 'w' )
f.write( "13  " )
f.write( str(ee) + "\n" )
f.write( MOL.save_string_xyz() )
f.close()
--------------------------------------------------------------------------

    Molecular point group: c1
  Charge       = 0
  Multiplicity = 1
  Basis Set: CC-PVTZ
  Basis Set:
  @DF-RHF Final Energy:  -231.06816491887690
    Total Energy =                       -231.0681649188768745
    Molecular point group: c1
  Basis Set: CC-PVTZ
  Basis Set:
  Basis Set: CC-PVTZ
  Basis Set:
  @DF-RHF Final Energy:  -231.06804888381282
    Total Energy =                       -231.0680488838129349
  Basis Set: CC-PVTZ
  Basis Set:
  Basis Set: CC-PVTZ
  Basis Set:
  @DF-RHF Final Energy:  -231.06589239469119
    Total Energy =                       -231.0658923946911898
  Basis Set: CC-PVTZ
  Basis Set:
  Basis Set: CC-PVTZ
  Basis Set:
  @DF-RHF Final Energy:  -231.06851924948461
    Total Energy =                       -231.0685192494846376
  Basis Set: CC-PVTZ
  Basis Set:
  Basis Set: CC-PVTZ
  Basis Set:
  @DF-RHF Final Energy:  -231.06855744766571
    Total Energy =                       -231.0685574476658530
  Basis Set: CC-PVTZ
  Basis Set:
  Basis Set: CC-PVTZ
  Basis Set:
  @DF-RHF Final Energy:  -231.06856431658207
    Total Energy =                       -231.0685643165821830
  Basis Set: CC-PVTZ
  Basis Set:
  Basis Set: CC-PVTZ
  Basis Set:
  @DF-RHF Final Energy:  -231.06856601781644
    Total Energy =                       -231.0685660178166643
  Basis Set: CC-PVTZ
  Basis Set:
  Charge       = 0
  Multiplicity = 1
  Basis Set: CC-PVTZ
  Basis Set:

    Orbital Energies (a.u.)
    -----------------------

    Doubly Occupied:

       1A    -20.552005     2A    -11.321998     3A    -11.237491
       4A    -11.234554     5A    -11.221792     6A     -1.406955
       7A     -1.087080     8A     -0.977437     9A     -0.839907
      10A     -0.795925    11A     -0.677058    12A     -0.643545
      13A     -0.639483    14A     -0.587288    15A     -0.556813
      16A     -0.539373    17A     -0.509879    18A     -0.494462
      19A     -0.483132    20A     -0.413261

  @DF-RHF Final Energy:  -231.06856629383734

   => Energetics <=

    Nuclear Repulsion Energy =            170.8221492963160415
    One-Electron Energy =                -651.3425618788196516
    Two-Electron Energy =                 249.4518462886661325
    DFT Exchange-Correlation Energy =       0.0000000000000000
    Empirical Dispersion Energy =           0.0000000000000000
    PCM Polarization Energy =               0.0000000000000000
    EFP Energy =                            0.0000000000000000
    Total Energy =                       -231.0685662938374492
    Molecular point group: c1
  Basis Set: CC-PVTZ
  Basis Set:

  -Total Gradient:
     Atom            X                  Y                   Z
    ------   -----------------  -----------------  -----------------
       1        0.000002615752     0.000004499089     0.000000470749
       2       -0.000023292977     0.000012527010    -0.000011643914
       3        0.001585267730     0.000376367431     0.003972652937
       4        0.000003305667    -0.000008574132     0.000021406012
       5        0.000443997339     0.003004322843     0.002710737627
       6       -0.001330960998    -0.000787917966    -0.003755843421
       7       -0.000016377951    -0.000011555428     0.000019685514
       8        0.000003647963     0.000000909472    -0.000002686226
       9       -0.000673050165    -0.002596231249    -0.002960743726
      10        0.000002080834    -0.000007484434     0.000004776618
      11       -0.000000009531     0.000003298521     0.000001455166
      12        0.000001713713     0.000003359706    -0.000003155705
      13        0.000001062626     0.000006479137     0.000002888369

  **** Optimization is complete! (in 8 steps) ****
    Final optimized geometry and variables:
    Molecular point group: c1

    Geometry (in Angstrom), charge = 0, multiplicity = 1:

    H            0.311279399117     1.992023407402     0.365118250255
    C            0.875399227742     1.063202769447     0.207615477472
    C            0.143616185119    -0.005767721970    -0.552613152899
    O            1.976262014105     0.961490214582     0.626448914265
    C           -1.266663317380    -0.272995249848     0.000363365407
    H            0.742684517752    -0.906347419550    -0.574713699086
    H            0.063012909354     0.335371149334    -1.582666057236
    C           -1.738321703732    -1.693614893506    -0.297790002195
    H           -1.970545768192     0.418795057336    -0.448849636070
    H           -1.288620576747    -0.107179213234     1.072508341273
    H           -1.734495894471    -1.889467126438    -1.364746523301
    H           -2.747010052622    -1.851405646175     0.064789282121
    H           -1.094416939577    -2.425945540254     0.175597397664

  Mulliken Charges: (a.u.)
   Center  Symbol    Alpha    Beta     Spin     Total
       1     H     0.46466  0.46466  0.00000  0.07069
       2     C     2.90862  2.90862  0.00000  0.18277
       3     C     3.07944  3.07944  0.00000 -0.15888
       4     O     4.16393  4.16393  0.00000 -0.32786
       5     C     3.09389  3.09389  0.00000 -0.18779
       6     H     0.44324  0.44324  0.00000  0.11351
       7     H     0.44885  0.44885  0.00000  0.10231
       8     C     3.14659  3.14659  0.00000 -0.29317
       9     H     0.45034  0.45034  0.00000  0.09931
      10     H     0.44983  0.44983  0.00000  0.10034
      11     H     0.45309  0.45309  0.00000  0.09382
      12     H     0.44663  0.44663  0.00000  0.10675
      13     H     0.45090  0.45090  0.00000  0.09821

   Total alpha = 20.00000, Total beta = 20.00000, Total charge =  0.00000
