  ==> Input File <==

--------------------------------------------------------------------------
set {
	reference rhf
	basis 6-31G*
}

set_num_threads( 4 )
memory 2 gb

molecule MOL {
0 1

H	 -2.798360	 -0.862255	 -0.071053
N	 -1.863561	 -0.715187	 0.256814
C	 -1.344686	 0.554728	 -0.219830
H	 -1.300452	 -1.461917	 -0.101532
C	 0.081427	 0.741154	 0.254071
H	 -1.362155	 0.656231	 -1.305829
H	 -1.952773	 1.354456	 0.191809
O	 0.874168	 -0.245412	 -0.342030
H	 0.444037	 1.730782	 -0.023037
H	 0.121165	 0.653424	 1.337565
C	 0.273565	 -1.499099	 -0.413557
H	 0.974969	 -2.172326	 -0.887368
H	 0.033007	 -1.882241	 0.576552
H	 -0.640241	 -1.469091	 -1.003359

	symmetry c1
}
set optking {
	frozen_dihedral = ("
		11 8 5 3
	")
}

ee = optimize('scf')
oeprop('DIPOLE', 'QUADRUPOLE', 'MULLIKEN_CHARGES')
f=open( 'psi4out.xyz', 'w' )
f.write( "14  " )
f.write( str(ee) + "\n" )
f.write( MOL.save_string_xyz() )
f.close()
--------------------------------------------------------------------------

    Molecular point group: c1
  Charge       = 0
  Multiplicity = 1
  Basis Set: 6-31G*
  Basis Set:
  @DF-RHF Final Energy:  -248.03155019202330
    Total Energy =                       -248.0315501920234738
    Molecular point group: c1
  Basis Set: 6-31G*
  Basis Set:
  Basis Set: 6-31G*
  Basis Set:
  @DF-RHF Final Energy:  -248.08780909565198
    Total Energy =                       -248.0878090956521191
  Basis Set: 6-31G*
  Basis Set:
  Basis Set: 6-31G*
  Basis Set:
  @DF-RHF Final Energy:  -248.10455561372990
    Total Energy =                       -248.1045556137299855
  Basis Set: 6-31G*
  Basis Set:
  Basis Set: 6-31G*
  Basis Set:
  @DF-RHF Final Energy:  -248.10935965690715
    Total Energy =                       -248.1093596569073725
  Basis Set: 6-31G*
  Basis Set:
  @DF-RHF Final Energy:  -248.11181462445296
    Total Energy =                       -248.1118146244531317
  @DF-RHF Final Energy:  -248.11328605387541
    Total Energy =                       -248.1132860538751856
  @DF-RHF Final Energy:  -248.11368868756136
    Total Energy =                       -248.1136886875616483
  @DF-RHF Final Energy:  -248.11380721347439
    Total Energy =                       -248.1138072134745585
  @DF-RHF Final Energy:  -248.11387653288145
    Total Energy =                       -248.1138765328815339
  Basis Set: 6-31G*
  Basis Set:
  @DF-RHF Final Energy:  -248.11390903055042
    Total Energy =                       -248.1139090305506443
  Basis Set: 6-31G*
  Basis Set:
  Basis Set: 6-31G*
  Basis Set:
  @DF-RHF Final Energy:  -248.11391838431862
    Total Energy =                       -248.1139183843184810
  Basis Set: 6-31G*
  Basis Set:
  Basis Set: 6-31G*
  Basis Set:
  @DF-RHF Final Energy:  -248.11392089398407
    Total Energy =                       -248.1139208939838454
  Basis Set: 6-31G*
  Basis Set:
  Charge       = 0
  Multiplicity = 1
  Basis Set: 6-31G*
  Basis Set:

    Orbital Energies (a.u.)
    -----------------------

    Doubly Occupied:

       1A    -20.549571     2A    -15.541767     3A    -11.265050
       4A    -11.263045     5A    -11.249382     6A     -1.371215
       7A     -1.183253     8A     -1.001089     9A     -0.918875
      10A     -0.808454    11A     -0.690183    12A     -0.672191
      13A     -0.638964    14A     -0.619277    15A     -0.601684
      16A     -0.548910    17A     -0.536805    18A     -0.513417
      19A     -0.455877    20A     -0.409221    21A     -0.388827

  @DF-RHF Final Energy:  -248.11392143625278

   => Energetics <=

    Nuclear Repulsion Energy =            196.9266986916871929
    One-Electron Energy =                -727.6271285021327913
    Two-Electron Energy =                 282.5865083741929880
    DFT Exchange-Correlation Energy =       0.0000000000000000
    Empirical Dispersion Energy =           0.0000000000000000
    PCM Polarization Energy =               0.0000000000000000
    EFP Energy =                            0.0000000000000000
    Total Energy =                       -248.1139214362526104
    Molecular point group: c1
  Basis Set: 6-31G*
  Basis Set:

  -Total Gradient:
     Atom            X                  Y                   Z
    ------   -----------------  -----------------  -----------------
       1       -0.000006538236     0.000001029834    -0.000008471093
       2        0.000034930381    -0.000043998586     0.000018844440
       3       -0.000738435407    -0.002485468683     0.002699604865
       4        0.000001177230     0.000010799329     0.000004191637
       5        0.000521335046     0.004242813945    -0.005984483635
       6        0.000000319702    -0.000003011180     0.000008604897
       7       -0.000003334395    -0.000005224688     0.000001196593
       8        0.001525572950    -0.002780648564     0.007149858786
       9       -0.000003328619     0.000003211486    -0.000004456740
      10       -0.000003232981     0.000015818043     0.000010412548
      11       -0.001350904297     0.001027302988    -0.003899503045
      12        0.000002806702    -0.000001917178    -0.000003740675
      13       -0.000002023461     0.000007781193    -0.000000484066
      14        0.000021655380     0.000011512061     0.000008425488

  **** Optimization is complete! (in 13 steps) ****
    Final optimized geometry and variables:
    Molecular point group: c1

    Geometry (in Angstrom), charge = 0, multiplicity = 1:

    H           -2.752402764829    -0.104148868032     0.390582872893
    N           -1.771313253599    -0.267195716213     0.505354179704
    C           -1.005326705657     0.780885780586    -0.156881153341
    H           -1.583245101906    -1.169649428962     0.118710833357
    C            0.433707674421     0.897139599440     0.343473812208
    H           -1.007978568380     0.708281274470    -1.245507569296
    H           -1.484948354068     1.722419784136     0.090249746447
    O            1.384172936339     0.023064787234    -0.207815033280
    H            0.805186275640     1.888190058926     0.114751381366
    H            0.415945778778     0.781883838415     1.424697237816
    C            1.025096902686    -1.299286813336    -0.444235059371
    H            1.914122119125    -1.808447930501    -0.791182774651
    H            0.672742415047    -1.794303984149     0.458164394740
    H            0.264512684581    -1.387344013647    -1.216154794798

  Mulliken Charges: (a.u.)
   Center  Symbol    Alpha    Beta     Spin     Total
       1     H     0.32977  0.32977  0.00000  0.34046
       2     N     3.92366  3.92366  0.00000 -0.84732
       3     C     3.09375  3.09375  0.00000 -0.18749
       4     H     0.33038  0.33038  0.00000  0.33924
       5     C     2.98076  2.98076  0.00000  0.03848
       6     H     0.42365  0.42365  0.00000  0.15269
       7     H     0.41567  0.41567  0.00000  0.16867
       8     O     4.30933  4.30933  0.00000 -0.61866
       9     H     0.41839  0.41839  0.00000  0.16322
      10     H     0.42048  0.42048  0.00000  0.15903
      11     C     3.08341  3.08341  0.00000 -0.16681
      12     H     0.41123  0.41123  0.00000  0.17753
      13     H     0.42526  0.42526  0.00000  0.14948
      14     H     0.43426  0.43426  0.00000  0.13148

   Total alpha = 21.00000, Total beta = 21.00000, Total charge =  0.00000
