  ==> Input File <==

--------------------------------------------------------------------------
set {
	reference rhf
	basis 6-31G*
}

set_num_threads( 4 )
memory 2 gb

molecule MOL {
0 1

H	 -0.000158	 1.970498	 0.756846
O	 -0.000074	 1.880206	 -0.189275
C	 -0.000015	 0.544847	 -0.545111
C	 -1.278788	 -0.123820	 -0.051541
C	 1.278802	 -0.123718	 -0.051505
H	 -0.000001	 0.490777	 -1.623619
F	 -1.125299	 -1.430703	 -0.058110
F	 -1.593259	 0.243324	 1.172662
F	 -2.297870	 0.167089	 -0.844284
F	 2.323327	 0.466644	 -0.591854
F	 1.326242	 -1.401483	 -0.363667
F	 1.388946	 -0.015632	 1.262939

	symmetry c1
}
set optking {
	frozen_dihedral = ("
		7 4 3 6
	")
}

ee = optimize('scf')
oeprop('DIPOLE', 'QUADRUPOLE', 'MULLIKEN_CHARGES')
f=open( 'psi4out.xyz', 'w' )
f.write( "12  " )
f.write( str(ee) + "\n" )
f.write( MOL.save_string_xyz() )
f.close()
--------------------------------------------------------------------------

    Molecular point group: c1
  Charge       = 0
  Multiplicity = 1
  Basis Set: 6-31G*
  Basis Set:
  @DF-RHF Final Energy:  -786.27546556748848
    Total Energy =                       -786.2754655674877995
    Molecular point group: c1
  Basis Set: 6-31G*
  Basis Set:
  Basis Set: 6-31G*
  Basis Set:
  @DF-RHF Final Energy:  -786.27675597774021
    Total Energy =                       -786.2767559777398674
  Basis Set: 6-31G*
  Basis Set:
  Basis Set: 6-31G*
  Basis Set:
  @DF-RHF Final Energy:  -786.27710903413197
    Total Energy =                       -786.2771090341317404
  Basis Set: 6-31G*
  Basis Set:
  Basis Set: 6-31G*
  Basis Set:
  @DF-RHF Final Energy:  -786.27719121200641
    Total Energy =                       -786.2771912120065281
  Basis Set: 6-31G*
  Basis Set:
  Basis Set: 6-31G*
  Basis Set:
  @DF-RHF Final Energy:  -786.27720012491272
    Total Energy =                       -786.2772001249129517
  Basis Set: 6-31G*
  Basis Set:
  Charge       = 0
  Multiplicity = 1
  Basis Set: 6-31G*
  Basis Set:

    Orbital Energies (a.u.)
    -----------------------

    Doubly Occupied:

       1A    -26.363296     2A    -26.363252     3A    -26.362145
       4A    -26.360870     5A    -26.360133     6A    -26.357245
       7A    -20.615885     8A    -11.527712     9A    -11.524689
      10A    -11.349114    11A     -1.765236    12A     -1.758625
      13A     -1.661657    14A     -1.659509    15A     -1.656834
      16A     -1.654979    17A     -1.434369    18A     -1.101115
      19A     -0.997114    20A     -0.938011    21A     -0.864935
      22A     -0.862659    23A     -0.851581    24A     -0.844846
      25A     -0.832643    26A     -0.816525    27A     -0.741224
      28A     -0.728716    29A     -0.724752    30A     -0.719183
      31A     -0.688138    32A     -0.686380    33A     -0.683148
      34A     -0.674710    35A     -0.670295    36A     -0.662065
      37A     -0.657836    38A     -0.651348    39A     -0.620214
      40A     -0.551780    41A     -0.505498

  @DF-RHF Final Energy:  -786.27720261916761

   => Energetics <=

    Nuclear Repulsion Energy =            670.6012491297819906
    One-Electron Energy =               -2428.0563694356787892
    Two-Electron Energy =                 971.1779176867289607
    DFT Exchange-Correlation Energy =       0.0000000000000000
    Empirical Dispersion Energy =           0.0000000000000000
    PCM Polarization Energy =               0.0000000000000000
    EFP Energy =                            0.0000000000000000
    Total Energy =                       -786.2772026191678378
    Molecular point group: c1
  Basis Set: 6-31G*
  Basis Set:

  -Total Gradient:
     Atom            X                  Y                   Z
    ------   -----------------  -----------------  -----------------
       1       -0.000003618612    -0.000026949052     0.000006401126
       2        0.000040080658    -0.000024436222    -0.000044705329
       3        0.002089780946    -0.003341155500     0.001110331630
       4       -0.001652790030     0.000356243857    -0.003615326283
       5       -0.000037274341    -0.000012530664    -0.000074107407
       6       -0.001525568738     0.002814212688    -0.000195641546
       7        0.000989655685     0.000175133643     0.002532562229
       8        0.000043782021     0.000045611181     0.000138153629
       9        0.000108677194    -0.000009061096     0.000022434248
      10       -0.000043463656     0.000015140192    -0.000003507513
      11       -0.000018586180     0.000055691912     0.000055131250
      12        0.000009325067    -0.000047900937     0.000068273973

  **** Optimization is complete! (in 6 steps) ****
    Final optimized geometry and variables:
    Molecular point group: c1

    Geometry (in Angstrom), charge = 0, multiplicity = 1:

    H           -0.070713054045     1.996732702188     0.690669930928
    O           -0.005074367998     1.877138461705    -0.249512516046
    C            0.002402980816     0.531119785815    -0.565796938179
    C           -1.276923302283    -0.124050102375    -0.043355638795
    C            1.280036969919    -0.126258613458    -0.057805124196
    H           -0.008275642801     0.465836784436    -1.643430166971
    F           -1.199090669562    -1.437486830792    -0.008972772461
    F           -1.532690659879     0.291668438862     1.188229036959
    F           -2.298576460351     0.211264079805    -0.800967595187
    F            2.327363180817     0.543991395305    -0.486112328074
    F            1.395324970026    -1.369043360185    -0.476155137723
    F            1.312647482943    -0.128775657661     1.265859229667

  Mulliken Charges: (a.u.)
   Center  Symbol    Alpha    Beta     Spin     Total
       1     H     0.26526  0.26526  0.00000  0.46947
       2     O     4.36317  4.36317  0.00000 -0.72635
       3     C     3.05257  3.05257  0.00000 -0.10515
       4     C     2.44132  2.44132  0.00000  1.11736
       5     C     2.44457  2.44457  0.00000  1.11085
       6     H     0.37432  0.37432  0.00000  0.25136
       7     F     4.67297  4.67297  0.00000 -0.34594
       8     F     4.68179  4.68179  0.00000 -0.36359
       9     F     4.67479  4.67479  0.00000 -0.34959
      10     F     4.67418  4.67418  0.00000 -0.34836
      11     F     4.67422  4.67422  0.00000 -0.34844
      12     F     4.68081  4.68081  0.00000 -0.36163

   Total alpha = 41.00000, Total beta = 41.00000, Total charge =  0.00000
