  ==> Input File <==

--------------------------------------------------------------------------
set {
	reference rhf
	basis 6-31G*
}

set_num_threads( 4 )
memory 2 gb

molecule MOL {
0 1

O	 1.846825	 1.296220	 0.000415
C	 1.705091	 0.115954	 0.001797
C	 0.381791	 -0.609817	 0.001258
O	 2.721346	 -0.737485	 -0.000216
C	 -0.823008	 0.326187	 0.001381
H	 0.371250	 -1.265087	 -0.865474
H	 0.370908	 -1.265746	 0.867490
C	 -2.149452	 -0.435131	 -0.000098
H	 -0.770201	 0.977095	 -0.865636
H	 -0.771220	 0.975655	 0.869608
C	 -3.368779	 0.488503	 -0.000883
H	 -2.193746	 -1.087250	 -0.871175
H	 -2.195311	 -1.087803	 0.870418
C	 -3.234404	 1.653051	 -0.981201
H	 -3.525572	 0.877286	 1.002813
H	 -4.257026	 -0.089516	 -0.245932
H	 -2.373554	 2.270718	 -0.741120
H	 -4.113865	 2.289052	 -0.958770
H	 -3.110352	 1.296181	 -1.999811
C	 4.024888	 -0.184556	 -0.001949
H	 4.179030	 0.422472	 -0.882452
H	 4.701782	 -1.024608	 -0.003642
H	 4.181981	 0.421185	 0.878906

	symmetry c1
}
set optking {
	frozen_dihedral = ("
		15 11 8 12
	")
}

ee = optimize('scf')
oeprop('DIPOLE', 'QUADRUPOLE', 'MULLIKEN_CHARGES')
f=open( 'psi4out.xyz', 'w' )
f.write( "23  " )
f.write( str(ee) + "\n" )
f.write( MOL.save_string_xyz() )
f.close()
--------------------------------------------------------------------------

    Molecular point group: c1
  Charge       = 0
  Multiplicity = 1
  Basis Set: 6-31G*
  Basis Set:
  @DF-RHF Final Energy:  -422.97149112437188
    Total Energy =                       -422.9714911243719371
    Molecular point group: c1
  Basis Set: 6-31G*
  Basis Set:
  Basis Set: 6-31G*
  Basis Set:
  @DF-RHF Final Energy:  -422.97242316653762
    Total Energy =                       -422.9724231665376237
  Basis Set: 6-31G*
  Basis Set:
  Basis Set: 6-31G*
  Basis Set:
  @DF-RHF Final Energy:  -422.97337879851153
    Total Energy =                       -422.9733787985126128
  Basis Set: 6-31G*
  Basis Set:
  Basis Set: 6-31G*
  Basis Set:
  @DF-RHF Final Energy:  -422.97323191314121
    Total Energy =                       -422.9732319131404665
  Basis Set: 6-31G*
  Basis Set:
  Basis Set: 6-31G*
  Basis Set:
  @DF-RHF Final Energy:  -422.97348540386349
    Total Energy =                       -422.9734854038630374
  Basis Set: 6-31G*
  Basis Set:
  Basis Set: 6-31G*
  Basis Set:
  @DF-RHF Final Energy:  -422.97351199136904
    Total Energy =                       -422.9735119913691506
  Basis Set: 6-31G*
  Basis Set:
  Charge       = 0
  Multiplicity = 1
  Basis Set: 6-31G*
  Basis Set:

    Orbital Energies (a.u.)
    -----------------------

    Doubly Occupied:

       1A    -20.603626     2A    -20.545435     3A    -11.372251
       4A    -11.280856     5A    -11.235540     6A    -11.218989
       7A    -11.218024     8A    -11.216716     9A    -11.207846
      10A     -1.469315    11A     -1.362749    12A     -1.092727
      13A     -1.041601    14A     -0.985005    15A     -0.931392
      16A     -0.858232    17A     -0.781260    18A     -0.766551
      19A     -0.696696    20A     -0.683420    21A     -0.672210
      22A     -0.644826    23A     -0.611687    24A     -0.598132
      25A     -0.590011    26A     -0.559708    27A     -0.535350
      28A     -0.525248    29A     -0.519821    30A     -0.516504
      31A     -0.491469    32A     -0.463079    33A     -0.461567
      34A     -0.459917    35A     -0.454683    36A     -0.435575

  @DF-RHF Final Energy:  -422.97351236923907

   => Energetics <=

    Nuclear Repulsion Energy =            457.6433988616265651
    One-Electron Energy =               -1483.0177863372875890
    Two-Electron Energy =                 602.4008751064216085
    DFT Exchange-Correlation Energy =       0.0000000000000000
    Empirical Dispersion Energy =           0.0000000000000000
    PCM Polarization Energy =               0.0000000000000000
    EFP Energy =                            0.0000000000000000
    Total Energy =                       -422.9735123692394154
    Molecular point group: c1
  Basis Set: 6-31G*
  Basis Set:

  -Total Gradient:
     Atom            X                  Y                   Z
    ------   -----------------  -----------------  -----------------
       1        0.000037294355    -0.000025746404     0.000032401113
       2       -0.000020097308    -0.000025480923    -0.000071913271
       3       -0.000010792806     0.000002864881    -0.000022390407
       4        0.000035798797     0.000048729599     0.000003134735
       5       -0.000037101068    -0.000012725247     0.000081317323
       6        0.000009820800    -0.000004838967     0.000012219305
       7       -0.000014575859     0.000011588843    -0.000001600123
       8        0.001742379042     0.002676596817    -0.002419482775
       9       -0.000035265107     0.000027632134    -0.000003838449
      10        0.000011118713     0.000001993527    -0.000000046768
      11        0.002279472059     0.003245472422    -0.000589620269
      12       -0.001803871709    -0.002761159785     0.002139919987
      13       -0.000017253108    -0.000013237809    -0.000027445948
      14       -0.000036361410    -0.000014528708    -0.000025835460
      15       -0.002207923547    -0.003148006237     0.000859750016
      16        0.000007404733     0.000010779207     0.000024753402
      17        0.000051926213    -0.000029730541    -0.000007855477
      18       -0.000007270620     0.000012825564     0.000007358818
      19       -0.000019826284     0.000008990028    -0.000003524107
      20        0.000017363320    -0.000019148612     0.000014230121
      21       -0.000004119065    -0.000001258179     0.000000034859
      22        0.000014938416     0.000006490335    -0.000000368079
      23        0.000006941431     0.000001898056    -0.000001198547

  **** Optimization is complete! (in 7 steps) ****
    Final optimized geometry and variables:
    Molecular point group: c1

    Geometry (in Angstrom), charge = 0, multiplicity = 1:

    O            1.730554006073     1.056984268380     0.077603257345
    C            1.565940241611    -0.119777370781     0.113605569279
    C            0.228901700327    -0.820159402226     0.112207063773
    O            2.565375666593    -0.991540054655     0.161415068513
    C           -0.957255369094     0.138544442982     0.063893969218
    H            0.219486391052    -1.499903418904    -0.735620466620
    H            0.191400865908    -1.450448600177     0.996380523339
    C           -2.292138022187    -0.607475659131     0.047809387127
    H           -0.862976302790     0.770120341176    -0.811709681338
    H           -0.915786244445     0.802382459327     0.922560336349
    C           -3.539880292801     0.283330824943     0.133319441795
    H           -2.361263921607    -1.241526692674    -0.834793602755
    H           -2.319251839286    -1.295709490986     0.891322750059
    C           -3.580321319315     1.451560797596    -0.851428460553
    H           -3.655306243099     0.644616950415     1.152787770219
    H           -4.408087137293    -0.348175001437    -0.041940405624
    H           -2.802829536505     2.180426576434    -0.650247511783
    H           -4.534061327205     1.966727775805    -0.793320534042
    H           -3.454635332837     1.105951996037    -1.874236337061
    C            3.879215484646    -0.463469870959     0.168398789354
    H            4.062945964535     0.110276708846    -0.728579563521
    H            4.539656729757    -1.315609230597     0.209024809339
    H            4.030148054218     0.168771267254     1.031538094184

  Mulliken Charges: (a.u.)
   Center  Symbol    Alpha    Beta     Spin     Total
       1     O     4.28622  4.28622  0.00000 -0.57245
       2     C     2.60510  2.60510  0.00000  0.78980
       3     C     3.20789  3.20789  0.00000 -0.41579
       4     O     4.30724  4.30724  0.00000 -0.61448
       5     C     3.15471  3.15471  0.00000 -0.30943
       6     H     0.40059  0.40059  0.00000  0.19881
       7     H     0.40067  0.40067  0.00000  0.19867
       8     C     3.15568  3.15568  0.00000 -0.31136
       9     H     0.40870  0.40870  0.00000  0.18261
      10     H     0.41247  0.41247  0.00000  0.17506
      11     C     3.15166  3.15166  0.00000 -0.30332
      12     H     0.42353  0.42353  0.00000  0.15294
      13     H     0.42311  0.42311  0.00000  0.15378
      14     C     3.24342  3.24342  0.00000 -0.48684
      15     H     0.42177  0.42177  0.00000  0.15646
      16     H     0.42122  0.42122  0.00000  0.15756
      17     H     0.41597  0.41597  0.00000  0.16807
      18     H     0.41877  0.41877  0.00000  0.16245
      19     H     0.42227  0.42227  0.00000  0.15547
      20     C     3.09243  3.09243  0.00000 -0.18485
      21     H     0.40908  0.40908  0.00000  0.18184
      22     H     0.40842  0.40842  0.00000  0.18316
      23     H     0.40908  0.40908  0.00000  0.18184

   Total alpha = 36.00000, Total beta = 36.00000, Total charge =  0.00000
