  ==> Input File <==

--------------------------------------------------------------------------
set {
	reference rhf
	basis 6-31G*
}

set_num_threads( 4 )
memory 2 gb

molecule MOL {
0 1

H	 -0.216825	 0.021369	 -3.357402
C	 0.374198	 0.036393	 -2.447010
C	 -0.521757	 -0.028637	 -1.217342
H	 0.969602	 0.942322	 -2.434777
H	 1.053364	 -0.811668	 -2.481329
N	 0.263400	 0.031178	 0.000000
H	 -1.199035	 0.820290	 -1.219355
H	 -1.147901	 -0.924895	 -1.265384
C	 -0.521757	 -0.028637	 1.217342
H	 0.935769	 -0.712709	 0.000000
C	 -1.903475	 0.575165	 1.004438
H	 -0.623830	 -1.072945	 1.497324
H	 -0.027528	 0.470455	 2.056560
H	 -2.422624	 0.060921	 0.203563
H	 -2.500536	 0.502958	 1.908125
H	 -1.833948	 1.626978	 0.738905

	symmetry c1
}
set optking {
	frozen_dihedral = ("
		12 9 6 3
	")
}

ee = optimize('scf')
oeprop('DIPOLE', 'QUADRUPOLE', 'MULLIKEN_CHARGES')
f=open( 'psi4out.xyz', 'w' )
f.write( "16  " )
f.write( str(ee) + "\n" )
f.write( MOL.save_string_xyz() )
f.close()
--------------------------------------------------------------------------

    Molecular point group: c1
  Charge       = 0
  Multiplicity = 1
  Basis Set: 6-31G*
  Basis Set:
  @DF-RHF Final Energy:  -212.29953491803619
    Total Energy =                       -212.2995349180361586
    Molecular point group: c1
  Basis Set: 6-31G*
  Basis Set:
  Basis Set: 6-31G*
  Basis Set:
  @DF-RHF Final Energy:  -212.30074955212518
    Total Energy =                       -212.3007495521251826
  Basis Set: 6-31G*
  Basis Set:
  Basis Set: 6-31G*
  Basis Set:
  @DF-RHF Final Energy:  -212.30552239977081
    Total Energy =                       -212.3055223997709504
  Basis Set: 6-31G*
  Basis Set:
  Basis Set: 6-31G*
  Basis Set:
  @DF-RHF Final Energy:  -212.30660254200396
    Total Energy =                       -212.3066025420041569
  Basis Set: 6-31G*
  Basis Set:
  Basis Set: 6-31G*
  Basis Set:
  @DF-RHF Final Energy:  -212.30673507728784
    Total Energy =                       -212.3067350772878399
  Basis Set: 6-31G*
  Basis Set:
  Basis Set: 6-31G*
  Basis Set:
  @DF-RHF Final Energy:  -212.30675796606533
    Total Energy =                       -212.3067579660653337
  Basis Set: 6-31G*
  Basis Set:
  Basis Set: 6-31G*
  Basis Set:
  @DF-RHF Final Energy:  -212.30675902920234
    Total Energy =                       -212.3067590292022828
  Basis Set: 6-31G*
  Basis Set:
  Charge       = 0
  Multiplicity = 1
  Basis Set: 6-31G*
  Basis Set:

    Orbital Energies (a.u.)
    -----------------------

    Doubly Occupied:

       1A    -15.530007     2A    -11.241061     3A    -11.239409
       4A    -11.210375     5A    -11.207712     6A     -1.198551
       7A     -1.024438     8A     -0.968977     9A     -0.853164
      10A     -0.792555    11A     -0.661438    12A     -0.625153
      13A     -0.612240    14A     -0.591818    15A     -0.538314
      16A     -0.514952    17A     -0.513698    18A     -0.494450
      19A     -0.483870    20A     -0.475085    21A     -0.347886

  @DF-RHF Final Energy:  -212.30675900899627

   => Energetics <=

    Nuclear Repulsion Energy =            191.7614881689694357
    One-Electron Energy =                -665.8861944900353365
    Two-Electron Energy =                 261.8179473120697480
    DFT Exchange-Correlation Energy =       0.0000000000000000
    Empirical Dispersion Energy =           0.0000000000000000
    PCM Polarization Energy =               0.0000000000000000
    EFP Energy =                            0.0000000000000000
    Total Energy =                       -212.3067590089961527
    Molecular point group: c1
  Basis Set: 6-31G*
  Basis Set:

  -Total Gradient:
     Atom            X                  Y                   Z
    ------   -----------------  -----------------  -----------------
       1        0.000000355807     0.000000907642     0.000000626366
       2        0.000000925090     0.000000074868     0.000001190324
       3       -0.000600379765     0.004853156705     0.000014095192
       4        0.000000281212     0.000000194563     0.000000466218
       5       -0.000001484539    -0.000000390782     0.000000355249
       6        0.002410294413    -0.006999148977     0.000981255076
       7       -0.000009137237     0.000014543458     0.000020345118
       8        0.000002928641     0.000003101138     0.000006543554
       9       -0.007041709053     0.001585506826    -0.004252611328
      10       -0.000028342547    -0.000032038165    -0.000050158153
      11       -0.000011359589    -0.000043432602    -0.000008705146
      12        0.005239358838     0.000679291097     0.003291035072
      13        0.000040326646    -0.000057868591     0.000010928687
      14       -0.000012392354    -0.000000156367    -0.000004062977
      15        0.000000461716     0.000001239511     0.000002887420
      16        0.000009872723    -0.000004980326    -0.000014190675

  **** Optimization is complete! (in 8 steps) ****
    Final optimized geometry and variables:
    Molecular point group: c1

    Geometry (in Angstrom), charge = 0, multiplicity = 1:

    H            0.431624642322    -0.101542706330    -3.117011715447
    C            0.950112803451    -0.076699800076    -2.163664320184
    C           -0.038717022007    -0.154378582915    -1.007168901392
    H            1.527723007472     0.839149067689    -2.106561725277
    H            1.643570839607    -0.913731526126    -2.144337601421
    N            0.667233379632    -0.069399398980     0.255981355155
    H           -0.727746400216     0.677995042643    -1.078507999338
    H           -0.636720153877    -1.066143621022    -1.106231375485
    C           -0.096178471136    -0.166011058363     1.493943223054
    H            1.424323085604    -0.722171379559     0.274710118591
    C           -1.468944939838     0.492070000254     1.447644731111
    H           -0.185052639585    -1.199402177514     1.837979793383
    H            0.486938920154     0.333693383339     2.263604396139
    H           -2.149982357621    -0.015577162181     0.773776360262
    H           -1.911292711294     0.472387103704     2.438434403693
    H           -1.390337629289     1.528686290098     1.137034859815

  Mulliken Charges: (a.u.)
   Center  Symbol    Alpha    Beta     Spin     Total
       1     H     0.42007  0.42007  0.00000  0.15987
       2     C     3.24345  3.24345  0.00000 -0.48690
       3     C     3.05086  3.05086  0.00000 -0.10173
       4     H     0.41231  0.41231  0.00000  0.17538
       5     H     0.42531  0.42531  0.00000  0.14939
       6     N     3.85922  3.85922  0.00000 -0.71843
       7     H     0.41800  0.41800  0.00000  0.16401
       8     H     0.43687  0.43687  0.00000  0.12627
       9     C     3.04489  3.04489  0.00000 -0.08978
      10     H     0.33269  0.33269  0.00000  0.33463
      11     C     3.25309  3.25309  0.00000 -0.50617
      12     H     0.43431  0.43431  0.00000  0.13138
      13     H     0.41974  0.41974  0.00000  0.16052
      14     H     0.41795  0.41795  0.00000  0.16410
      15     H     0.41728  0.41728  0.00000  0.16544
      16     H     0.41398  0.41398  0.00000  0.17203

   Total alpha = 21.00000, Total beta = 21.00000, Total charge = -0.00000
