                              Psi4 1.0.54 Driver

  ==> Input File <==

--------------------------------------------------------------------------
set {
	reference rhf
	basis cc-pvtz
}

set_num_threads( 4 )
memory 2 gb

molecule MOL {
0 1

O	 -1.278239	 1.034789	 -0.784693
C	 -1.204115	 0.062668	 -0.112312
C	 -2.386398	 -0.667698	 0.460323
O	 -0.068058	 -0.518372	 0.226882
H	 -2.382952	 -1.693172	 0.114333
H	 -3.296656	 -0.175702	 0.158400
H	 -2.312537	 -0.685191	 1.540100
C	 1.169086	 0.037484	 -0.230612
C	 2.234278	 -1.000145	 0.062311
C	 1.425792	 1.363807	 0.461902
H	 1.087964	 0.195181	 -1.295337
H	 2.011730	 -1.930471	 -0.444360
H	 3.200022	 -0.646932	 -0.278704
H	 2.297052	 -1.196464	 1.126010
H	 2.368166	 1.780231	 0.125713
H	 0.642735	 2.073591	 0.234577
H	 1.476389	 1.227866	 1.536260

	symmetry c1
}
set optking {
	frozen_dihedral = ("
		11 8 4 2
	")
}

ee,wfn = optimize('scf', return_wfn=True)
oeprop( wfn, 'DIPOLE', 'QUADRUPOLE', 'MULLIKEN_CHARGES')
f=open( 'psi4out.xyz', 'w' )
f.write( "17  " )
f.write( str(ee) + "\n" )
f.write( MOL.save_string_xyz() )
f.close()
--------------------------------------------------------------------------

    Molecular point group: c1
  Charge       = 0
  Multiplicity = 1
  Basis Set: CC-PVTZ
  Basis Set:
  @DF-RHF Final Energy:  -345.04216156737249
    Total Energy =                       -345.0421615673726592
    Molecular point group: c1
  Basis Set: CC-PVTZ
  Basis Set:
  Basis Set: CC-PVTZ
  Basis Set:
  @DF-RHF Final Energy:  -345.04256937545773
    Total Energy =                       -345.0425693754579015
  Basis Set: CC-PVTZ
  Basis Set:
  Basis Set: CC-PVTZ
  Basis Set:
  @DF-RHF Final Energy:  -345.04248366905813
    Total Energy =                       -345.0424836690580150
  Basis Set: CC-PVTZ
  Basis Set:
  Basis Set: CC-PVTZ
  Basis Set:
  @DF-RHF Final Energy:  -345.04269948698766
    Total Energy =                       -345.0426994869874875
  Basis Set: CC-PVTZ
  Basis Set:
  Basis Set: CC-PVTZ
  Basis Set:
  @DF-RHF Final Energy:  -345.04270242757224
    Total Energy =                       -345.0427024275724079
  Basis Set: CC-PVTZ
  Basis Set:
  Charge       = 0
  Multiplicity = 1
  Basis Set: CC-PVTZ
  Basis Set:

    Orbital Energies (a.u.)
    -----------------------

    Doubly Occupied:

       1A    -20.591429     2A    -20.531432     3A    -11.366568
       4A    -11.289585     5A    -11.230454     6A    -11.217379
       7A    -11.212767     8A     -1.468407     9A     -1.364548
      10A     -1.079739    11A     -1.005583    12A     -0.948139
      13A     -0.851338    14A     -0.763808    15A     -0.694592
      16A     -0.675864    17A     -0.661638    18A     -0.615531
      19A     -0.586651    20A     -0.578984    21A     -0.560365
      22A     -0.550129    23A     -0.539482    24A     -0.521045
      25A     -0.503734    26A     -0.483497    27A     -0.451581
      28A     -0.437897

  @DF-RHF Final Energy:  -345.04270288214195

   => Energetics <=

    Nuclear Repulsion Energy =            324.1739806330502915
    One-Electron Energy =               -1112.8690416101087521
    Two-Electron Energy =                 443.6523580949161669
    DFT Exchange-Correlation Energy =       0.0000000000000000
    Empirical Dispersion Energy =           0.0000000000000000
    PCM Polarization Energy =               0.0000000000000000
    EFP Energy =                            0.0000000000000000
    Total Energy =                       -345.0427028821422937
    Molecular point group: c1
  Basis Set: CC-PVTZ
  Basis Set:

  -Total Gradient:
     Atom            X                  Y                   Z
    ------   -----------------  -----------------  -----------------
       1        0.000026488748    -0.000030002748     0.000002846148
       2        0.000068832356     0.001505192819     0.002161925948
       3        0.000004981151     0.000036221269     0.000051289343
       4        0.000105951678    -0.002818305773    -0.003231999052
       5       -0.000004836425     0.000004755867    -0.000018941616
       6        0.000003121804    -0.000004805030    -0.000007575587
       7        0.000003561119    -0.000026253778    -0.000020263920
       8       -0.001358220268     0.003979182241     0.001528516344
       9       -0.000008695008     0.000007937450    -0.000005732613
      10        0.000025065816    -0.000015939518     0.000002374501
      11        0.001159951270    -0.002664918308    -0.000445818268
      12       -0.000004064489     0.000005061395    -0.000002834793
      13       -0.000000750773     0.000003457461    -0.000000754321
      14       -0.000005379611     0.000004753102    -0.000001371409
      15        0.000003747014     0.000012230724     0.000003229645
      16       -0.000014215045    -0.000000377874    -0.000005709349
      17       -0.000005539341     0.000001810701    -0.000009181000

  **** Optimization is complete! (in 6 steps) ****
    Final optimized geometry and variables:
    Molecular point group: c1

    Geometry (in Angstrom), charge = 0, multiplicity = 1:

    O           -1.315881581438     0.893482079806    -0.865035531170
    C           -1.195938474661    -0.029261817681    -0.132530000237
    C           -2.341843987443    -0.760325873962     0.509219739169
    O           -0.035230297060    -0.555324190548     0.211975582550
    H           -2.306721402281    -1.805978865602     0.232302444800
    H           -3.273888283011    -0.322133649203     0.191341435969
    H           -2.250792956232    -0.702704426990     1.586270376891
    C            1.181004523792     0.047720756550    -0.242621100161
    C            2.267475768587    -0.974526356559     0.032861229296
    C            1.435231767745     1.369297303887     0.459776545369
    H            1.097095311623     0.194630244474    -1.310270021002
    H            2.050175043662    -1.907704883165    -0.470627577282
    H            3.221962116854    -0.606558033388    -0.323551497228
    H            2.350025767973    -1.170358996121     1.095271185551
    H            2.380910034893     1.780522986095     0.126648991246
    H            0.658431771034     2.086259699391     0.242591582332
    H            1.490175441039     1.220027289964     1.532472477487

  Mulliken Charges: (a.u.)
   Center  Symbol    Alpha    Beta     Spin     Total
       1     O     4.19929  4.19929  0.00000 -0.39859
       2     C     2.80657  2.80657  0.00000  0.38686
       3     C     3.13841  3.13841  0.00000 -0.27682
       4     O     4.16241  4.16241  0.00000 -0.32483
       5     H     0.44552  0.44552  0.00000  0.10897
       6     H     0.43842  0.43842  0.00000  0.12317
       7     H     0.44659  0.44659  0.00000  0.10683
       8     C     2.92876  2.92876  0.00000  0.14249
       9     C     3.13886  3.13886  0.00000 -0.27771
      10     C     3.15898  3.15898  0.00000 -0.31796
      11     H     0.44530  0.44530  0.00000  0.10939
      12     H     0.44664  0.44664  0.00000  0.10672
      13     H     0.45449  0.45449  0.00000  0.09101
      14     H     0.45259  0.45259  0.00000  0.09482
      15     H     0.44938  0.44938  0.00000  0.10124
      16     H     0.43387  0.43387  0.00000  0.13226
      17     H     0.45393  0.45393  0.00000  0.09215

   Total alpha = 28.00000, Total beta = 28.00000, Total charge = -0.00000

*** Psi4 exiting successfully. Buy a developer a beer!
