  ==> Input File <==

--------------------------------------------------------------------------
set {
	reference rhf
	basis 6-31G*
}

set_num_threads( 4 )
memory 2 gb

molecule MOL {
0 1

O	 3.700233	 -0.020112	 0.808823
C	 2.843464	 0.164689	 -0.000222
C	 1.546494	 -0.624492	 -0.000609
C	 2.997200	 1.207887	 -1.087999
C	 0.291004	 0.242674	 0.000989
H	 1.557904	 -1.283758	 -0.867573
H	 1.558622	 -1.285963	 0.864672
C	 -0.994322	 -0.586602	 0.000262
H	 0.309117	 0.896430	 -0.865270
H	 0.309661	 0.894078	 0.869017
C	 -2.259874	 0.272531	 0.000494
H	 -1.004862	 -1.240012	 -0.870939
H	 -1.005220	 -1.241071	 0.870675
C	 -3.549786	 -0.549746	 -0.000374
H	 -2.250389	 0.926680	 -0.869574
H	 -2.250838	 0.925513	 0.871430
C	 -4.809590	 0.315458	 -0.000369
H	 -3.560515	 -1.202009	 -0.871156
H	 -3.561123	 -1.202955	 0.869711
H	 -4.844746	 0.956611	 -0.876632
H	 -5.706986	 -0.295590	 -0.001609
H	 -4.845960	 0.954827	 0.877144
H	 2.199508	 1.942226	 -1.024341
H	 3.952770	 1.703188	 -0.986032
H	 2.931598	 0.745152	 -2.068411

	symmetry c1
}
set optking {
	frozen_dihedral = ("
		1 2 3 6
	")
}

ee = optimize('scf')
oeprop('DIPOLE', 'QUADRUPOLE', 'MULLIKEN_CHARGES')
f=open( 'psi4out.xyz', 'w' )
f.write( "25  " )
f.write( str(ee) + "\n" )
f.write( MOL.save_string_xyz() )
f.close()
--------------------------------------------------------------------------

    Molecular point group: c1
  Charge       = 0
  Multiplicity = 1
  Basis Set: 6-31G*
  Basis Set:
  @DF-RHF Final Energy:  -387.13284889934607
    Total Energy =                       -387.1328488993464134
    Molecular point group: c1
  Basis Set: 6-31G*
  Basis Set:
  Basis Set: 6-31G*
  Basis Set:
  @DF-RHF Final Energy:  -387.13235335471046
    Total Energy =                       -387.1323533547102898
  Basis Set: 6-31G*
  Basis Set:
  Basis Set: 6-31G*
  Basis Set:
  @DF-RHF Final Energy:  -387.13292949226394
    Total Energy =                       -387.1329294922636564
  Basis Set: 6-31G*
  Basis Set:
  Basis Set: 6-31G*
  Basis Set:
  @DF-RHF Final Energy:  -387.13389702161305
    Total Energy =                       -387.1338970216132793
  Basis Set: 6-31G*
  Basis Set:
  @DF-RHF Final Energy:  -387.13396767763419
    Total Energy =                       -387.1339676776348142
  Basis Set: 6-31G*
  Basis Set:
  @DF-RHF Final Energy:  -387.13399785103013
    Total Energy =                       -387.1339978510292212
  Basis Set: 6-31G*
  Basis Set:
  Basis Set: 6-31G*
  Basis Set:
  @DF-RHF Final Energy:  -387.13401395990553
    Total Energy =                       -387.1340139599051327
  Basis Set: 6-31G*
  Basis Set:
  Basis Set: 6-31G*
  Basis Set:
  @DF-RHF Final Energy:  -387.13401569064456
    Total Energy =                       -387.1340156906447874
  Basis Set: 6-31G*
  Basis Set:
  Charge       = 0
  Multiplicity = 1
  Basis Set: 6-31G*
  Basis Set:

    Orbital Energies (a.u.)
    -----------------------

    Doubly Occupied:

       1A    -20.547473     2A    -11.324263     3A    -11.232601
       4A    -11.229663     5A    -11.227238     6A    -11.224206
       7A    -11.220532     8A    -11.219850     9A    -11.212423
      10A     -1.392859    11A     -1.101574    12A     -1.061143
      13A     -1.010859    14A     -0.970847    15A     -0.897581
      16A     -0.821321    17A     -0.797442    18A     -0.731876
      19A     -0.668794    20A     -0.647355    21A     -0.637864
      22A     -0.617025    23A     -0.602574    24A     -0.588779
      25A     -0.564470    26A     -0.560158    27A     -0.545507
      28A     -0.534756    29A     -0.513856    30A     -0.499817
      31A     -0.486815    32A     -0.480489    33A     -0.469508
      34A     -0.468886    35A     -0.456997    36A     -0.395864

  @DF-RHF Final Energy:  -387.13401604870137

   => Energetics <=

    Nuclear Repulsion Energy =            438.8574696312666674
    One-Electron Energy =               -1394.0564425144398228
    Two-Electron Energy =                 568.0649568344720137
    DFT Exchange-Correlation Energy =       0.0000000000000000
    Empirical Dispersion Energy =           0.0000000000000000
    PCM Polarization Energy =               0.0000000000000000
    EFP Energy =                            0.0000000000000000
    Total Energy =                       -387.1340160487011417
    Molecular point group: c1
  Basis Set: 6-31G*
  Basis Set:

  -Total Gradient:
     Atom            X                  Y                   Z
    ------   -----------------  -----------------  -----------------
       1        0.000148503635    -0.000339267777    -0.000323865455
       2       -0.000215602231     0.000352590298     0.000459545849
       3       -0.000154002497     0.000261168789    -0.000448185025
       4       -0.000026368557     0.000011983572     0.000021432150
       5        0.000015052299     0.000021349624    -0.000002141854
       6        0.000236873396    -0.000377060192     0.000256246492
       7        0.000031064788    -0.000000522939     0.000037027458
       8        0.000053019208     0.000016130216    -0.000069368397
       9       -0.000050974782     0.000005467774     0.000002393110
      10       -0.000048562821     0.000014567172     0.000017768396
      11       -0.000006083176     0.000015489693     0.000033392990
      12        0.000008313664    -0.000030594932    -0.000000418371
      13        0.000026138164     0.000037163938    -0.000010724286
      14       -0.000004311307     0.000010303508     0.000009672227
      15       -0.000001776061     0.000006098144     0.000019604000
      16       -0.000009427905    -0.000004806063     0.000016548534
      17       -0.000007724043    -0.000005157867    -0.000028086632
      18        0.000008005178    -0.000009170899     0.000008917748
      19       -0.000005884822     0.000012719221     0.000007772672
      20       -0.000003743244     0.000007065263    -0.000000694124
      21       -0.000003597155     0.000002135417    -0.000007790395
      22        0.000004406815    -0.000009184551    -0.000000040025
      23       -0.000004463694     0.000015408854    -0.000002533030
      24        0.000007390915    -0.000012068409    -0.000002834214
      25        0.000003754215    -0.000001807853     0.000006360181

  **** Optimization is complete! (in 9 steps) ****
    Final optimized geometry and variables:
    Molecular point group: c1

    Geometry (in Angstrom), charge = 0, multiplicity = 1:

    O            3.714523422296    -0.124748529595     0.857103225749
    C            2.880821589648     0.108278215279     0.035626897510
    C            1.576287906981    -0.667432555820     0.000066667570
    C            3.101156049701     1.176624575928    -1.016179385882
    C            0.313682403567     0.204251629090    -0.018082023706
    H            1.592831559570    -1.301038180622    -0.885998179618
    H            1.575383449286    -1.321185247099     0.864014226651
    C           -0.967519977826    -0.630253051321     0.031730132966
    H            0.300244236855     0.823962703765    -0.910849386729
    H            0.332595325233     0.884062098762     0.831328459031
    C           -2.238923633429     0.220005528195     0.015314568393
    H           -0.981276586465    -1.316975174908    -0.812885350254
    H           -0.957866072987    -1.247876796283     0.927338264580
    C           -3.521887477222    -0.611822342224     0.064045086488
    H           -2.247244559112     0.839491544336    -0.880070770819
    H           -2.224224656130     0.906263411837     0.860322571929
    C           -4.788528224668     0.242933172164     0.041256532087
    H           -3.536371351603    -1.300668120532    -0.777891021237
    H           -3.517836235806    -1.226936666750     0.961245837851
    H           -4.838963940293     0.845542055490    -0.861265951320
    H           -5.680396838978    -0.374882530856     0.076279835636
    H           -4.820830248063     0.918723350014     0.891171058419
    H            2.511762926307     2.057328523870    -0.778013840160
    H            4.146609586758     1.451843047635    -1.032564260574
    H            2.792736299796     0.835141334767    -1.999196948955

  Mulliken Charges: (a.u.)
   Center  Symbol    Alpha    Beta     Spin     Total
       1     O     4.26151  4.26151  0.00000 -0.52302
       2     C     2.73176  2.73176  0.00000  0.53648
       3     C     3.20647  3.20647  0.00000 -0.41295
       4     C     3.29094  3.29094  0.00000 -0.58188
       5     C     3.16460  3.16460  0.00000 -0.32920
       6     H     0.41104  0.41104  0.00000  0.17792
       7     H     0.39912  0.39912  0.00000  0.20175
       8     C     3.15209  3.15209  0.00000 -0.30418
       9     H     0.41875  0.41875  0.00000  0.16249
      10     H     0.41517  0.41517  0.00000  0.16966
      11     C     3.15143  3.15143  0.00000 -0.30287
      12     H     0.42214  0.42214  0.00000  0.15572
      13     H     0.41921  0.41921  0.00000  0.16158
      14     C     3.15199  3.15199  0.00000 -0.30397
      15     H     0.42384  0.42384  0.00000  0.15233
      16     H     0.42240  0.42240  0.00000  0.15520
      17     C     3.23960  3.23960  0.00000 -0.47920
      18     H     0.42266  0.42266  0.00000  0.15469
      19     H     0.42183  0.42183  0.00000  0.15633
      20     H     0.42167  0.42167  0.00000  0.15665
      21     H     0.41836  0.41836  0.00000  0.16329
      22     H     0.42115  0.42115  0.00000  0.15770
      23     H     0.40433  0.40433  0.00000  0.19133
      24     H     0.39610  0.39610  0.00000  0.20780
      25     H     0.41183  0.41183  0.00000  0.17633

   Total alpha = 36.00000, Total beta = 36.00000, Total charge = -0.00000
