                              Psi4 1.0.54 Driver

  ==> Input File <==

--------------------------------------------------------------------------
set {
	reference rhf
	basis cc-pvtz
}

set_num_threads( 4 )
memory 2 gb

molecule MOL {
0 1

O	 1.208983	 0.537218	 -0.990688
C	 1.704209	 0.119472	 -0.000093
C	 1.285749	 0.472418	 1.404172
O	 2.715427	 -0.733672	 0.000025
C	 0.123747	 1.453110	 1.469890
H	 1.044979	 -0.456775	 1.910215
H	 2.161191	 0.865756	 1.910462
C	 -0.272908	 1.787903	 2.904671
H	 -0.725738	 1.036536	 0.940631
H	 0.391686	 2.360522	 0.940643
C	 -1.436849	 2.770893	 2.990921
H	 -0.538022	 0.873362	 3.430579
H	 0.584284	 2.202243	 3.430773
C	 -1.833648	 3.105159	 4.424877
H	 -2.293862	 2.357650	 2.466597
H	 -1.172541	 3.685330	 2.467369
H	 -2.136681	 2.214426	 4.965247
H	 -2.661605	 3.804149	 4.450064
H	 -1.006618	 3.552968	 4.965915
C	 4.020999	 -0.192556	 0.000019
H	 4.182809	 0.412891	 -0.879449
H	 4.692590	 -1.035653	 0.000152
H	 4.182726	 0.413087	 0.879368

	symmetry c1
}
set optking {
	frozen_dihedral = ("
		1 2 4 20
	")
}

ee,wfn = optimize('scf', return_wfn=True)
oeprop( wfn, 'DIPOLE', 'QUADRUPOLE', 'MULLIKEN_CHARGES')
f=open( 'psi4out.xyz', 'w' )
f.write( "23  " )
f.write( str(ee) + "\n" )
f.write( MOL.save_string_xyz() )
f.close()
--------------------------------------------------------------------------

    Molecular point group: c1
  Charge       = 0
  Multiplicity = 1
  Basis Set: CC-PVTZ
  Basis Set:
  @DF-RHF Final Energy:  -423.11017056442569
    Total Energy =                       -423.1101705644259710
    Molecular point group: c1
  Basis Set: CC-PVTZ
  Basis Set:
  Basis Set: CC-PVTZ
  Basis Set:
  @DF-RHF Final Energy:  -423.01027088541764
    Total Energy =                       -423.0102708854176399
  Basis Set: CC-PVTZ
  Basis Set:
  Basis Set: CC-PVTZ
  Basis Set:
  @DF-RHF Final Energy:  -423.09403854275115
    Total Energy =                       -423.0940385427510364
  Basis Set: CC-PVTZ
  Basis Set:
  Basis Set: CC-PVTZ
  Basis Set:
  @DF-RHF Final Energy:  -423.10987819786004
    Total Energy =                       -423.1098781978600982
  Basis Set: CC-PVTZ
  Basis Set:
  @DF-RHF Final Energy:  -423.08899525320129
    Total Energy =                       -423.0889952532013467
  @DF-RHF Final Energy:  -423.10424684321612
    Total Energy =                       -423.1042468432154919
  @DF-RHF Final Energy:  -423.11153600815601
    Total Energy =                       -423.1115360081564631
  Basis Set: CC-PVTZ
  Basis Set:
  @DF-RHF Final Energy:  -423.11173892155426
    Total Energy =                       -423.1117389215537514
  Basis Set: CC-PVTZ
  Basis Set:
  Basis Set: CC-PVTZ
  Basis Set:
  @DF-RHF Final Energy:  -423.11175058292514
    Total Energy =                       -423.1117505829253105
  Basis Set: CC-PVTZ
  Basis Set:
  Basis Set: CC-PVTZ
  Basis Set:
  @DF-RHF Final Energy:  -423.11175357214358
    Total Energy =                       -423.1117535721433569
  Basis Set: CC-PVTZ
  Basis Set:
  Charge       = 0
  Multiplicity = 1
  Basis Set: CC-PVTZ
  Basis Set:

    Orbital Energies (a.u.)
    -----------------------

    Doubly Occupied:

       1A    -20.577665     2A    -20.545845     3A    -11.367717
       4A    -11.288828     5A    -11.238333     6A    -11.220345
       7A    -11.218575     8A    -11.216633     9A    -11.209526
      10A     -1.461553    11A     -1.369805    12A     -1.096518
      13A     -1.043219    14A     -0.981029    15A     -0.943469
      16A     -0.851345    17A     -0.798166    18A     -0.766474
      19A     -0.698191    20A     -0.681562    21A     -0.676554
      22A     -0.650840    23A     -0.619845    24A     -0.607794
      25A     -0.580526    26A     -0.569260    27A     -0.557036
      28A     -0.536545    29A     -0.511374    30A     -0.499153
      31A     -0.488276    32A     -0.481963    33A     -0.471230
      34A     -0.468551    35A     -0.452697    36A     -0.434422

  @DF-RHF Final Energy:  -423.11175371840147

   => Energetics <=

    Nuclear Repulsion Energy =            453.4069086385393348
    One-Electron Energy =               -1474.6755917293819493
    Two-Electron Energy =                 598.1569293724410272
    DFT Exchange-Correlation Energy =       0.0000000000000000
    Empirical Dispersion Energy =           0.0000000000000000
    PCM Polarization Energy =               0.0000000000000000
    EFP Energy =                            0.0000000000000000
    Total Energy =                       -423.1117537184015873
    Molecular point group: c1
  Basis Set: CC-PVTZ
  Basis Set:

  -Total Gradient:
     Atom            X                  Y                   Z
    ------   -----------------  -----------------  -----------------
       1       -0.001819112110    -0.002424574832    -0.000025512237
       2        0.002639466540     0.003365031608     0.001202768871
       3        0.000038455443     0.000049718421     0.000020062386
       4       -0.001047903523    -0.000767222609    -0.003677070051
       5        0.000013857204    -0.000019344720    -0.000006986403
       6        0.000003963918     0.000002215257     0.000002869687
       7        0.000007635623    -0.000000629552    -0.000001244976
       8       -0.000013914383     0.000004759681    -0.000002618396
       9       -0.000006526868     0.000006832396     0.000001506028
      10       -0.000000440175    -0.000002831601    -0.000000650715
      11        0.000020074474     0.000005043905     0.000004259191
      12        0.000003705801    -0.000000760335     0.000004060094
      13       -0.000002338263    -0.000001398524    -0.000005634989
      14       -0.000014947890    -0.000000821553     0.000003635627
      15        0.000001702428     0.000005642250     0.000004267468
      16        0.000000083683     0.000001798503    -0.000000902158
      17        0.000003223473    -0.000000093691     0.000004501136
      18       -0.000003545892    -0.000004755939     0.000001069871
      19       -0.000001979417    -0.000001144518    -0.000007702192
      20        0.000174443670    -0.000220458252     0.002476187666
      21        0.000004505587     0.000002257481    -0.000007729865
      22       -0.000000337062    -0.000002422973    -0.000004112182
      23       -0.000000072254     0.000003159596     0.000014976140

  **** Optimization is complete! (in 11 steps) ****
    Final optimized geometry and variables:
    Molecular point group: c1

    Geometry (in Angstrom), charge = 0, multiplicity = 1:

    O            0.305193519676    -0.256195476403    -2.351586348297
    C            0.861743837333    -0.710251441424    -1.420595672468
    C            0.437240787018    -0.531300623586     0.014137272152
    O            1.925496143198    -1.531099244811    -1.566017356090
    C           -0.750025301195     0.401600732626     0.203384527617
    H            0.222664403388    -1.525221721206     0.395318049139
    H            1.299930259025    -0.185808550077     0.576081439309
    C           -1.155068375632     0.540500746677     1.667909273191
    H           -1.587197559703     0.032689917255    -0.377629318255
    H           -0.507312736010     1.376534217488    -0.205208489041
    C           -2.346389737445     1.471317202205     1.874641065494
    H           -1.393908731222    -0.440631256000     2.072131919116
    H           -0.309884984830     0.908721732949     2.245499015051
    C           -2.752248683863     1.608676844186     3.338109154236
    H           -3.191203172139     1.104030577793     1.299018926378
    H           -2.108393345078     2.452159556594     1.472735051584
    H           -3.029177108358     0.648043078973     3.759599834761
    H           -3.600146862398     2.274547658776     3.449069861031
    H           -1.938480235250     2.007704682863     3.934627001777
    C            3.197321975831    -0.926674126224    -1.610512765685
    H            3.267034121730    -0.242694773926    -2.446738800112
    H            3.915132489676    -1.720848810873    -1.736165071576
    H            3.413765581010    -0.397266644499    -0.689065418638

  Mulliken Charges: (a.u.)
   Center  Symbol    Alpha    Beta     Spin     Total
       1     O     4.16912  4.16912  0.00000 -0.33825
       2     C     2.78490  2.78490  0.00000  0.43021
       3     C     3.12119  3.12119  0.00000 -0.24238
       4     O     4.16959  4.16959  0.00000 -0.33919
       5     C     3.08477  3.08477  0.00000 -0.16954
       6     H     0.43743  0.43743  0.00000  0.12514
       7     H     0.44400  0.44400  0.00000  0.11200
       8     C     3.08839  3.08839  0.00000 -0.17678
       9     H     0.44343  0.44343  0.00000  0.11315
      10     H     0.44763  0.44763  0.00000  0.10474
      11     C     3.08435  3.08435  0.00000 -0.16869
      12     H     0.45491  0.45491  0.00000  0.09018
      13     H     0.45625  0.45625  0.00000  0.08751
      14     C     3.15033  3.15033  0.00000 -0.30066
      15     H     0.45255  0.45255  0.00000  0.09489
      16     H     0.45335  0.45335  0.00000  0.09329
      17     H     0.45501  0.45501  0.00000  0.08998
      18     H     0.44739  0.44739  0.00000  0.10522
      19     H     0.45554  0.45554  0.00000  0.08891
      20     C     3.03552  3.03552  0.00000 -0.07104
      21     H     0.45425  0.45425  0.00000  0.09151
      22     H     0.44263  0.44263  0.00000  0.11474
      23     H     0.46747  0.46747  0.00000  0.06507

   Total alpha = 36.00000, Total beta = 36.00000, Total charge = -0.00000

*** Psi4 exiting successfully. Buy a developer a beer!
