  ==> Input File <==

--------------------------------------------------------------------------
set {
	reference rhf
	basis 6-31G*
}

set_num_threads( 1 )
memory 2 gb

molecule MOL {
0 1

H	 -0.000158	 1.970498	 0.756846
O	 -0.000074	 1.880206	 -0.189275
C	 -0.000015	 0.544847	 -0.545111
C	 -1.278788	 -0.123820	 -0.051541
C	 1.278802	 -0.123718	 -0.051505
H	 -0.000001	 0.490777	 -1.623619
F	 -2.228970	 0.021496	 -0.950197
F	 -1.116593	 -1.411859	 0.165270
F	 -1.697670	 0.434441	 1.072950
F	 2.323327	 0.466644	 -0.591854
F	 1.326242	 -1.401483	 -0.363667
F	 1.388946	 -0.015632	 1.262939

	symmetry c1
}
set optking {
	frozen_dihedral = ("
		6 3 2 1
	")
}

ee = energy('scf')
oeprop('DIPOLE', 'QUADRUPOLE', 'MULLIKEN_CHARGES')
f=open( 'psi4out.xyz', 'w' )
f.write( "12  " )
f.write( str(ee) + "\n" )
f.write( MOL.save_string_xyz() )
f.close()
--------------------------------------------------------------------------

    Molecular point group: c1

    Geometry (in Angstrom), charge = 0, multiplicity = 1:

       Center              X                  Y                   Z               Mass
    ------------   -----------------  -----------------  -----------------  -----------------
           H          0.000383605960     1.971072079521     0.759027229944     1.007825032070
           O          0.000467605960     1.880780079521    -0.187093770056    15.994914619560
           C          0.000526605960     0.545421079521    -0.542929770056    12.000000000000
           C         -1.278246394040    -0.123245920479    -0.049359770056    12.000000000000
           C          1.279343605960    -0.123143920479    -0.049323770056    12.000000000000
           H          0.000540605960     0.491351079521    -1.621437770056     1.007825032070
           F         -2.228428394040     0.022070079521    -0.948015770056    18.998403224000
           F         -1.116051394040    -1.411284920479     0.167451229944    18.998403224000
           F         -1.697128394040     0.435015079521     1.075131229944    18.998403224000
           F          2.323868605960     0.467218079521    -0.589672770056    18.998403224000
           F          1.326783605960    -1.400908920479    -0.361485770056    18.998403224000
           F          1.389487605960    -0.015057920479     1.265120229944    18.998403224000

  Charge       = 0
  Multiplicity = 1
  Basis Set: 6-31G*
  Basis Set:

    Orbital Energies (a.u.)
    -----------------------

    Doubly Occupied:

       1A    -26.363713     2A    -26.363229     3A    -26.361984
       4A    -26.359408     5A    -26.359310     6A    -26.357585
       7A    -20.615191     8A    -11.526436     9A    -11.524758
      10A    -11.348262    11A     -1.765248    12A     -1.758635
      13A     -1.662440    14A     -1.658598    15A     -1.657752
      16A     -1.654361    17A     -1.434015    18A     -1.101652
      19A     -0.997185    20A     -0.938090    21A     -0.865321
      22A     -0.861680    23A     -0.852036    24A     -0.845110
      25A     -0.833376    26A     -0.815967    27A     -0.741112
      28A     -0.728908    29A     -0.724924    30A     -0.719935
      31A     -0.688383    32A     -0.687805    33A     -0.682236
      34A     -0.676179    35A     -0.669023    36A     -0.661146
      37A     -0.657165    38A     -0.650162    39A     -0.620091
      40A     -0.551246    41A     -0.504922

  @DF-RHF Final Energy:  -786.27459179174161

   => Energetics <=

    Nuclear Repulsion Energy =            670.8489637776349355
    One-Electron Energy =               -2428.5585277694249271
    Two-Electron Energy =                 971.4349722000495149
    DFT Exchange-Correlation Energy =       0.0000000000000000
    Empirical Dispersion Energy =           0.0000000000000000
    PCM Polarization Energy =               0.0000000000000000
    EFP Energy =                            0.0000000000000000
    Total Energy =                       -786.2745917917404768

  Mulliken Charges: (a.u.)
   Center  Symbol    Alpha    Beta     Spin     Total
       1     H     0.26509  0.26509  0.00000  0.46981
       2     O     4.36237  4.36237  0.00000 -0.72474
       3     C     3.06231  3.06231  0.00000 -0.12461
       4     C     2.43367  2.43367  0.00000  1.13266
       5     C     2.44392  2.44392  0.00000  1.11217
       6     H     0.37248  0.37248  0.00000  0.25505
       7     F     4.67640  4.67640  0.00000 -0.35279
       8     F     4.67318  4.67318  0.00000 -0.34636
       9     F     4.68023  4.68023  0.00000 -0.36046
      10     F     4.67513  4.67513  0.00000 -0.35025
      11     F     4.67373  4.67373  0.00000 -0.34746
      12     F     4.68151  4.68151  0.00000 -0.36301

   Total alpha = 41.00000, Total beta = 41.00000, Total charge = -0.00000
