  ==> Input File <==

--------------------------------------------------------------------------
set {
	reference rhf
	basis 6-31G*
}

set_num_threads( 4 )
memory 2 gb

molecule MOL {
0 1

H	 -2.742729	 -0.369434	 -0.776942
O	 -2.347518	 -0.290803	 0.079804
C	 -1.184022	 0.487508	 -0.006784
C	 0.062599	 -0.378592	 0.031606
H	 -1.176523	 1.099369	 -0.904519
H	 -1.187323	 1.153111	 0.844927
O	 1.171513	 0.459272	 -0.058250
H	 0.050699	 -1.089204	 -0.797170
H	 0.078739	 -0.954914	 0.954740
C	 2.397842	 -0.198080	 -0.002151
H	 2.508049	 -0.905315	 -0.822092
H	 3.173794	 0.550865	 -0.078850
H	 2.517602	 -0.735921	 0.936026

	symmetry c1
}
set optking {
	frozen_dihedral = ("
		1 2 3 5
	")
}

ee = optimize('scf')
oeprop('DIPOLE', 'QUADRUPOLE', 'MULLIKEN_CHARGES')
f=open( 'psi4out.xyz', 'w' )
f.write( "13  " )
f.write( str(ee) + "\n" )
f.write( MOL.save_string_xyz() )
f.close()
--------------------------------------------------------------------------

    Molecular point group: c1
  Charge       = 0
  Multiplicity = 1
  Basis Set: 6-31G*
  Basis Set:
  @DF-RHF Final Energy:  -267.94974478289180
    Total Energy =                       -267.9497447828920258
    Molecular point group: c1
  Basis Set: 6-31G*
  Basis Set:
  Basis Set: 6-31G*
  Basis Set:
  @DF-RHF Final Energy:  -267.94987926713782
    Total Energy =                       -267.9498792671379306
  Basis Set: 6-31G*
  Basis Set:
  Basis Set: 6-31G*
  Basis Set:
  @DF-RHF Final Energy:  -267.94993968260974
    Total Energy =                       -267.9499396826098518
  Basis Set: 6-31G*
  Basis Set:
  Basis Set: 6-31G*
  Basis Set:
  @DF-RHF Final Energy:  -267.94994080752406
    Total Energy =                       -267.9499408075241718
  Basis Set: 6-31G*
  Basis Set:
  Charge       = 0
  Multiplicity = 1
  Basis Set: 6-31G*
  Basis Set:

    Orbital Energies (a.u.)
    -----------------------

    Doubly Occupied:

       1A    -20.559978     2A    -20.558920     3A    -11.269317
       4A    -11.268439     5A    -11.267088     6A     -1.386247
       7A     -1.363721     8A     -1.017654     9A     -0.912080
      10A     -0.836609    11A     -0.712291    12A     -0.674818
      13A     -0.652468    14A     -0.639367    15A     -0.599753
      16A     -0.558034    17A     -0.546004    18A     -0.487520
      19A     -0.482372    20A     -0.437105    21A     -0.419597

  @DF-RHF Final Energy:  -267.94994101289774

   => Energetics <=

    Nuclear Repulsion Energy =            190.1670861644970216
    One-Electron Energy =                -742.9352937814005600
    Two-Electron Energy =                 284.8182666040058280
    DFT Exchange-Correlation Energy =       0.0000000000000000
    Empirical Dispersion Energy =           0.0000000000000000
    PCM Polarization Energy =               0.0000000000000000
    EFP Energy =                            0.0000000000000000
    Total Energy =                       -267.9499410128976820
    Molecular point group: c1
  Basis Set: 6-31G*
  Basis Set:

  -Total Gradient:
     Atom            X                  Y                   Z
    ------   -----------------  -----------------  -----------------
       1       -0.000623770642     0.000918756170     0.000169452863
       2        0.000923912223    -0.001311742049    -0.000342682865
       3       -0.000764229193     0.001123405673     0.000662719755
       4        0.000014199668    -0.000005677013    -0.000029418005
       5        0.000472456075    -0.000735476206    -0.000475511100
       6       -0.000010097846    -0.000000001766     0.000001682574
       7        0.000002964025     0.000008192750     0.000009136750
       8       -0.000007352385    -0.000009037171    -0.000002937394
       9        0.000000363748     0.000012496805     0.000001549327
      10       -0.000004057288    -0.000002761455     0.000008405411
      11       -0.000004245883     0.000001633466    -0.000000833098
      12       -0.000003026709     0.000001597049    -0.000000734611
      13        0.000002884203    -0.000001386253    -0.000000829607

  **** Optimization is complete! (in 5 steps) ****
    Final optimized geometry and variables:
    Molecular point group: c1

    Geometry (in Angstrom), charge = 0, multiplicity = 1:

    H           -2.728471417700    -0.410921434621    -0.764618839471
    O           -2.334427615744    -0.304687290652     0.087749227574
    C           -1.181460298686     0.492942527500    -0.009247814030
    C            0.060343092373    -0.378615651963     0.021994113291
    H           -1.178995571951     1.086659711356    -0.917970841158
    H           -1.167581586026     1.173645613997     0.831842236588
    O            1.173740355065     0.456976566819    -0.052488536510
    H            0.044543404281    -1.078025798791    -0.814115668215
    H            0.070912335827    -0.964381134006     0.939126317859
    C            2.396615393564    -0.206838113361    -0.001572463780
    H            2.505700400807    -0.903391054445    -0.830738757657
    H            3.176755638880     0.539143000241    -0.065705010726
    H            2.510947510877    -0.758154770003     0.929522862719

  Mulliken Charges: (a.u.)
   Center  Symbol    Alpha    Beta     Spin     Total
       1     H     0.27846  0.27846  0.00000  0.44308
       2     O     4.37354  4.37354  0.00000 -0.74708
       3     C     3.00706  3.00706  0.00000 -0.01412
       4     C     2.99232  2.99232  0.00000  0.01536
       5     H     0.42292  0.42292  0.00000  0.15416
       6     H     0.41128  0.41128  0.00000  0.17744
       7     O     4.30877  4.30877  0.00000 -0.61754
       8     H     0.43379  0.43379  0.00000  0.13241
       9     H     0.42366  0.42366  0.00000  0.15268
      10     C     3.07950  3.07950  0.00000 -0.15901
      11     H     0.42936  0.42936  0.00000  0.14129
      12     H     0.41142  0.41142  0.00000  0.17717
      13     H     0.42792  0.42792  0.00000  0.14416

   Total alpha = 21.00000, Total beta = 21.00000, Total charge = -0.00000
