  ==> Input File <==

--------------------------------------------------------------------------
set {
	reference rhf
	basis 6-31G*
}

set_num_threads( 4 )
memory 2 gb

molecule MOL {
0 1

H	 -3.042581	 -0.665861	 0.004336
O	 -2.245037	 -1.176175	 0.000806
C	 -1.162163	 -0.365336	 0.001020
C	 0.131928	 -0.853861	 -0.000549
C	 -1.395540	 1.004459	 0.006116
H	 0.314364	 -1.915317	 -0.001762
C	 1.190993	 0.042955	 0.002822
H	 -2.413521	 1.349161	 0.009581
C	 -0.338760	 1.897950	 0.008153
H	 2.198629	 -0.333487	 0.004018
C	 0.966110	 1.404709	 0.007894
C	 -0.591159	 3.387596	 -0.010547
H	 1.797647	 2.087241	 0.012998
H	 0.067558	 3.904555	 0.679116
H	 -1.613573	 3.619119	 0.263181
H	 -0.412432	 3.795963	 -1.001325

	symmetry c1
}
set optking {
	frozen_dihedral = ("
		5 3 2 1
	")
}

ee = optimize('scf')
oeprop('DIPOLE', 'QUADRUPOLE', 'MULLIKEN_CHARGES')
f=open( 'psi4out.xyz', 'w' )
f.write( "16  " )
f.write( str(ee) + "\n" )
f.write( MOL.save_string_xyz() )
f.close()
--------------------------------------------------------------------------

    Molecular point group: c1
  Charge       = 0
  Multiplicity = 1
  Basis Set: 6-31G*
  Basis Set:
  @DF-RHF Final Energy:  -344.59295158569222
    Total Energy =                       -344.5929515856923331
    Molecular point group: c1
  Basis Set: 6-31G*
  Basis Set:
  Basis Set: 6-31G*
  Basis Set:
  @DF-RHF Final Energy:  -344.59485274285595
    Total Energy =                       -344.5948527428561192
  Basis Set: 6-31G*
  Basis Set:
  Basis Set: 6-31G*
  Basis Set:
  @DF-RHF Final Energy:  -344.59502679379455
    Total Energy =                       -344.5950267937944318
  Basis Set: 6-31G*
  Basis Set:
  Basis Set: 6-31G*
  Basis Set:
  @DF-RHF Final Energy:  -344.59505109176445
    Total Energy =                       -344.5950510917643896
  Basis Set: 6-31G*
  Basis Set:
  @DF-RHF Final Energy:  -344.59505883229747
    Total Energy =                       -344.5950588322975818
  @DF-RHF Final Energy:  -344.59506351499789
    Total Energy =                       -344.5950635149979462
  @DF-RHF Final Energy:  -344.59509982714741
    Total Energy =                       -344.5950998271475783
  @DF-RHF Final Energy:  -344.59513546426007
    Total Energy =                       -344.5951354642604088
  @DF-RHF Final Energy:  -344.59516496702338
    Total Energy =                       -344.5951649670234360
  Basis Set: 6-31G*
  Basis Set:
  @DF-RHF Final Energy:  -344.59517072078728
    Total Energy =                       -344.5951707207873369
  Basis Set: 6-31G*
  Basis Set:
  Basis Set: 6-31G*
  Basis Set:
  @DF-RHF Final Energy:  -344.59518061172594
    Total Energy =                       -344.5951806117262777
  Basis Set: 6-31G*
  Basis Set:
  Basis Set: 6-31G*
  Basis Set:
  @DF-RHF Final Energy:  -344.59518268526381
    Total Energy =                       -344.5951826852639215
  Basis Set: 6-31G*
  Basis Set:
  Charge       = 0
  Multiplicity = 1
  Basis Set: 6-31G*
  Basis Set:

    Orbital Energies (a.u.)
    -----------------------

    Doubly Occupied:

       1A    -20.589469     2A    -11.296559     3A    -11.243499
       4A    -11.232748     5A    -11.223091     6A    -11.221722
       7A    -11.217251     8A    -11.216070     9A     -1.408115
      10A     -1.149793    11A     -1.044211    12A     -1.003254
      13A     -0.938427    14A     -0.841350    15A     -0.798915
      16A     -0.728019    17A     -0.680244    18A     -0.647395
      19A     -0.597056    20A     -0.590889    21A     -0.578668
      22A     -0.571822    23A     -0.567273    24A     -0.535402
      25A     -0.504100    26A     -0.481974    27A     -0.467230
      28A     -0.329599    29A     -0.305466

  @DF-RHF Final Energy:  -344.59518315778939

   => Energetics <=

    Nuclear Repulsion Energy =            345.6042176118011184
    One-Electron Energy =               -1152.3795833289618713
    Two-Electron Energy =                 462.1801825593715307
    DFT Exchange-Correlation Energy =       0.0000000000000000
    Empirical Dispersion Energy =           0.0000000000000000
    PCM Polarization Energy =               0.0000000000000000
    EFP Energy =                            0.0000000000000000
    Total Energy =                       -344.5951831577892222
    Molecular point group: c1
  Basis Set: 6-31G*
  Basis Set:

  -Total Gradient:
     Atom            X                  Y                   Z
    ------   -----------------  -----------------  -----------------
       1        0.000003214591     0.000001546454     0.000002620400
       2       -0.000011165743    -0.000015314812     0.000003705768
       3       -0.000001170524    -0.000001722153    -0.000018487309
       4        0.000012825416     0.000012243573     0.000011204806
       5       -0.000021812076     0.000006599355    -0.000015312394
       6       -0.000003720816    -0.000005145481    -0.000004688247
       7       -0.000003261930    -0.000009703314     0.000021995184
       8        0.000001412507    -0.000001990854     0.000008427883
       9        0.000017763231     0.000017750971     0.000009470529
      10       -0.000000374754    -0.000000251004    -0.000005623025
      11       -0.000000247304     0.000007291944    -0.000027741297
      12        0.000011730935    -0.000007909319     0.000022590352
      13        0.000000200942     0.000003816082     0.000003785974
      14       -0.000000813625     0.000004704495    -0.000003352589
      15       -0.000007439477     0.000001792771    -0.000003710382
      16        0.000002858627    -0.000013708705    -0.000004885651

  **** Optimization is complete! (in 13 steps) ****
    Final optimized geometry and variables:
    Molecular point group: c1

    Geometry (in Angstrom), charge = 0, multiplicity = 1:

    H           -2.535729336546    -1.447320047062    -0.163198275438
    O           -1.702085594003    -1.893345681379    -0.111346508623
    C           -0.687943613252    -1.000767255177    -0.045388570638
    C            0.604125416708    -1.506868064850     0.035800351604
    C           -0.903487309638     0.364856201970    -0.056275454582
    H            0.751158179963    -2.570646079869     0.043233774386
    C            1.662228932334    -0.626244991679     0.104926216360
    H           -1.910887104733     0.744896910218    -0.119098844181
    C            0.167194353402     1.254337207581     0.013486187755
    H            2.664924446708    -1.010536009639     0.168138631693
    C            1.453544182689     0.748250401783     0.094372489793
    C           -0.092020264558     2.742766426767    -0.003055970856
    H            2.292984049728     1.417992379961     0.149427823379
    H            0.830676059133     3.303251609571     0.086839312648
    H           -0.741834152525     3.035503808655     0.816079982240
    H           -0.576342766401     3.043805502734    -0.927251389306

  Mulliken Charges: (a.u.)
   Center  Symbol    Alpha    Beta     Spin     Total
       1     H     0.27191  0.27191  0.00000  0.45617
       2     O     4.37911  4.37911  0.00000 -0.75821
       3     C     2.78828  2.78828  0.00000  0.42345
       4     C     3.12760  3.12760  0.00000 -0.25519
       5     C     3.15733  3.15733  0.00000 -0.31466
       6     H     0.39255  0.39255  0.00000  0.21490
       7     C     3.08737  3.08737  0.00000 -0.17474
       8     H     0.40809  0.40809  0.00000  0.18382
       9     C     2.96851  2.96851  0.00000  0.06297
      10     H     0.39848  0.39848  0.00000  0.20304
      11     C     3.12911  3.12911  0.00000 -0.25821
      12     C     3.25520  3.25520  0.00000 -0.51040
      13     H     0.40331  0.40331  0.00000  0.19338
      14     H     0.41134  0.41134  0.00000  0.17733
      15     H     0.41112  0.41112  0.00000  0.17776
      16     H     0.41070  0.41070  0.00000  0.17860

   Total alpha = 29.00000, Total beta = 29.00000, Total charge = -0.00000
