  ==> Input File <==

--------------------------------------------------------------------------
set {
	reference rhf
	basis 6-31G*
}

set_num_threads( 4 )
memory 2 gb

molecule MOL {
0 1

H	 -3.412045	 -0.994966	 -0.274338
O	 -3.119349	 -0.144243	 0.022670
C	 -1.777506	 -0.059777	 0.002908
C	 -0.973957	 -1.118286	 -0.410452
C	 -1.207069	 1.138023	 0.415149
H	 -1.424120	 -2.043248	 -0.728429
C	 0.397602	 -0.974596	 -0.409887
H	 -1.847952	 1.939746	 0.729442
C	 0.166222	 1.266410	 0.410109
H	 1.029643	 -1.783005	 -0.726268
C	 0.984182	 0.218375	 0.000000
H	 0.608781	 2.194423	 0.729475
C	 2.452467	 0.370529	 0.000000
O	 3.228994	 -0.533774	 0.000000
H	 2.809473	 1.405765	 0.000000

	symmetry c1
}
set optking {
	frozen_dihedral = ("
		7 11 13 14
	")
}

ee = optimize('scf')
oeprop('DIPOLE', 'QUADRUPOLE', 'MULLIKEN_CHARGES')
f=open( 'psi4out.xyz', 'w' )
f.write( "15  " )
f.write( str(ee) + "\n" )
f.write( MOL.save_string_xyz() )
f.close()
--------------------------------------------------------------------------

    Molecular point group: c1
  Charge       = 0
  Multiplicity = 1
  Basis Set: 6-31G*
  Basis Set:
  @DF-RHF Final Energy:  -418.28821491306343
    Total Energy =                       -418.2882149130634843
    Molecular point group: c1
  Basis Set: 6-31G*
  Basis Set:
  Basis Set: 6-31G*
  Basis Set:
  @DF-RHF Final Energy:  -418.28713205764296
    Total Energy =                       -418.2871320576429071
  Basis Set: 6-31G*
  Basis Set:
  Basis Set: 6-31G*
  Basis Set:
  @DF-RHF Final Energy:  -418.28840603727087
    Total Energy =                       -418.2884060372713293
  Basis Set: 6-31G*
  Basis Set:
  Basis Set: 6-31G*
  Basis Set:
  @DF-RHF Final Energy:  -418.28846887526572
    Total Energy =                       -418.2884688752657212
  Basis Set: 6-31G*
  Basis Set:
  Basis Set: 6-31G*
  Basis Set:
  @DF-RHF Final Energy:  -418.28846998110782
    Total Energy =                       -418.2884699811080509
  Basis Set: 6-31G*
  Basis Set:
  Charge       = 0
  Multiplicity = 1
  Basis Set: 6-31G*
  Basis Set:

    Orbital Energies (a.u.)
    -----------------------

    Doubly Occupied:

       1A    -20.610504     2A    -20.556975     3A    -11.328387
       4A    -11.323098     5A    -11.260131     6A    -11.256947
       7A    -11.244281     8A    -11.239121     9A    -11.238741
      10A     -1.431528    11A     -1.397876    12A     -1.170494
      13A     -1.041203    14A     -1.038650    15A     -0.888665
      16A     -0.867058    17A     -0.794716    18A     -0.757056
      19A     -0.713443    20A     -0.666826    21A     -0.641822
      22A     -0.628406    23A     -0.608069    24A     -0.607708
      25A     -0.583779    26A     -0.559379    27A     -0.545665
      28A     -0.506307    29A     -0.484391    30A     -0.418920
      31A     -0.357655    32A     -0.326116

  @DF-RHF Final Energy:  -418.28847093676535

   => Energetics <=

    Nuclear Repulsion Energy =            401.2500225250205972
    One-Electron Energy =               -1364.8891506323279827
    Two-Electron Energy =                 545.3506571705415809
    DFT Exchange-Correlation Energy =       0.0000000000000000
    Empirical Dispersion Energy =           0.0000000000000000
    PCM Polarization Energy =               0.0000000000000000
    EFP Energy =                            0.0000000000000000
    Total Energy =                       -418.2884709367658616
    Molecular point group: c1
  Basis Set: 6-31G*
  Basis Set:

  -Total Gradient:
     Atom            X                  Y                   Z
    ------   -----------------  -----------------  -----------------
       1        0.000000337139     0.000003348731    -0.000005185449
       2        0.000000720054    -0.000014141411     0.000017198327
       3       -0.000008293955     0.000050900640    -0.000033316998
       4        0.000029216091    -0.000007203429    -0.000011851036
       5       -0.000020675137    -0.000043440254     0.000055827105
       6       -0.000004933475    -0.000002265163     0.000010797262
       7       -0.000261261459     0.001363509819    -0.003570334201
       8        0.000002746236    -0.000001446707     0.000004449124
       9        0.000027300494     0.000000063526    -0.000068278518
      10        0.000002272167     0.000002907297    -0.000000421516
      11        0.000385219944    -0.002045463897     0.007419050408
      12       -0.000000337276    -0.000002065417     0.000005238771
      13       -0.000290920588     0.000805454087    -0.008514203692
      14        0.000131011813    -0.000106100900     0.004694901017
      15        0.000007597956    -0.000004056923    -0.000003870603

  **** Optimization is complete! (in 6 steps) ****
    Final optimized geometry and variables:
    Molecular point group: c1

    Geometry (in Angstrom), charge = 0, multiplicity = 1:

    H           -3.413188567938    -0.993803007289    -0.272048015209
    O           -3.120866526132    -0.141837946232     0.021524566037
    C           -1.778350901400    -0.060274889847     0.007112632982
    C           -0.975215746498    -1.118049993364    -0.406748093184
    C           -1.207302242374     1.137719662319     0.418166327123
    H           -1.425223430641    -2.039063326536    -0.736148755132
    C            0.397284925690    -0.978217790120    -0.395298573246
    H           -1.847741322312     1.942263209559     0.726353167120
    C            0.165737123938     1.267728065934     0.408788327667
    H            1.028006653114    -1.789060876369    -0.708687830419
    C            0.984424655183     0.209698448786     0.026345909806
    H            0.607464684549     2.201543231830     0.712012267097
    C            2.452739890909     0.372524794462    -0.006539424389
    O            3.232807518356    -0.527673110419    -0.045638140582
    H            2.805948020047     1.407644829582     0.044122612013

  Mulliken Charges: (a.u.)
   Center  Symbol    Alpha    Beta     Spin     Total
       1     H     0.26860  0.26860  0.00000  0.46279
       2     O     4.37316  4.37316  0.00000 -0.74632
       3     C     2.78568  2.78568  0.00000  0.42864
       4     C     3.14717  3.14717  0.00000 -0.29434
       5     C     3.12787  3.12787  0.00000 -0.25573
       6     H     0.39805  0.39805  0.00000  0.20390
       7     C     3.07951  3.07951  0.00000 -0.15901
       8     H     0.38648  0.38648  0.00000  0.22704
       9     C     3.09237  3.09237  0.00000 -0.18475
      10     H     0.37596  0.37596  0.00000  0.24809
      11     C     3.06452  3.06452  0.00000 -0.12904
      12     H     0.39007  0.39007  0.00000  0.21986
      13     C     2.83436  2.83436  0.00000  0.33128
      14     O     4.25142  4.25142  0.00000 -0.50285
      15     H     0.42478  0.42478  0.00000  0.15044

   Total alpha = 32.00000, Total beta = 32.00000, Total charge =  0.00000
