                              Psi4 1.0.54 Driver

  ==> Input File <==

--------------------------------------------------------------------------
set {
	reference rhf
	basis cc-pvtz
}

set_num_threads( 4 )
memory 2 gb

molecule MOL {
0 1

H	 -2.698799	 -0.000846	 0.036018
C	 -1.694291	 -0.000483	 0.434279
O	 -0.828718	 -0.000608	 -0.655022
H	 -1.576855	 0.881100	 1.056504
H	 -1.576401	 -0.881658	 1.057001
C	 0.557892	 0.000078	 -0.420099
C	 1.003948	 -1.164830	 0.456426
C	 1.369792	 0.100611	 -1.706552
H	 0.713430	 0.913379	 0.140532
H	 0.383082	 -1.229941	 1.341493
H	 2.030404	 -1.015968	 0.771027
H	 0.957299	 -2.112829	 -0.066741
H	 1.002700	 0.913118	 -2.321466
H	 2.409585	 0.295366	 -1.470598
H	 1.332756	 -0.813762	 -2.287148

	symmetry c1
}
set optking {
	frozen_dihedral = ("
		9 6 3 2
	")
}

ee,wfn = optimize('scf', return_wfn=True)
oeprop( wfn, 'DIPOLE', 'QUADRUPOLE', 'MULLIKEN_CHARGES')
f=open( 'psi4out.xyz', 'w' )
f.write( "15  " )
f.write( str(ee) + "\n" )
f.write( MOL.save_string_xyz() )
f.close()
--------------------------------------------------------------------------

    Molecular point group: c1
  Charge       = 0
  Multiplicity = 1
  Basis Set: CC-PVTZ
  Basis Set:
  @DF-RHF Final Energy:  -232.22430695445166
    Total Energy =                       -232.2243069544514356
    Molecular point group: c1
  Basis Set: CC-PVTZ
  Basis Set:
  Basis Set: CC-PVTZ
  Basis Set:
  @DF-RHF Final Energy:  -231.97874246381380
    Total Energy =                       -231.9787424638136599
  Basis Set: CC-PVTZ
  Basis Set:
  Basis Set: CC-PVTZ
  Basis Set:
  @DF-RHF Final Energy:  -232.11176639159834
    Total Energy =                       -232.1117663915982803
  Basis Set: CC-PVTZ
  Basis Set:
  Basis Set: CC-PVTZ
  Basis Set:
  @DF-RHF Final Energy:  -232.21158062457653
    Total Energy =                       -232.2115806245764134
  Basis Set: CC-PVTZ
  Basis Set:
  @DF-RHF Final Energy:  -232.22577950192212
    Total Energy =                       -232.2257795019219202
  @DF-RHF Final Energy:  -232.22876468750860
    Total Energy =                       -232.2287646875087148
  Basis Set: CC-PVTZ
  Basis Set:
  @DF-RHF Final Energy:  -232.22944093163534
    Total Energy =                       -232.2294409316353381
  Basis Set: CC-PVTZ
  Basis Set:
  Basis Set: CC-PVTZ
  Basis Set:
  @DF-RHF Final Energy:  -232.22951497548524
    Total Energy =                       -232.2295149754851877
  Basis Set: CC-PVTZ
  Basis Set:
  Basis Set: CC-PVTZ
  Basis Set:
  @DF-RHF Final Energy:  -232.22953300645884
    Total Energy =                       -232.2295330064590644
  Basis Set: CC-PVTZ
  Basis Set:
  Charge       = 0
  Multiplicity = 1
  Basis Set: CC-PVTZ
  Basis Set:

    Orbital Energies (a.u.)
    -----------------------

    Doubly Occupied:

       1A    -20.544259     2A    -11.272982     3A    -11.260246
       4A    -11.209081     5A    -11.204113     6A     -1.378062
       7A     -1.053803     8A     -0.945567     9A     -0.914471
      10A     -0.791521    11A     -0.676381    12A     -0.640501
      13A     -0.636729    14A     -0.592313    15A     -0.550595
      16A     -0.543020    17A     -0.527341    18A     -0.498170
      19A     -0.494031    20A     -0.453623    21A     -0.411911

  @DF-RHF Final Energy:  -232.22953366201077

   => Energetics <=

    Nuclear Repulsion Energy =            197.9824363749812903
    One-Electron Energy =                -707.2265017282524013
    Two-Electron Energy =                 277.0145316912602880
    DFT Exchange-Correlation Energy =       0.0000000000000000
    Empirical Dispersion Energy =           0.0000000000000000
    PCM Polarization Energy =               0.0000000000000000
    EFP Energy =                            0.0000000000000000
    Total Energy =                       -232.2295336620108515
    Molecular point group: c1
  Basis Set: CC-PVTZ
  Basis Set:

  -Total Gradient:
     Atom            X                  Y                   Z
    ------   -----------------  -----------------  -----------------
       1        0.000020860561     0.000012805929    -0.000023461408
       2       -0.000277405280    -0.001505460766    -0.000642137004
       3        0.000622614110     0.002502390041     0.000623817166
       4       -0.000004977117     0.000018354565     0.000013750207
       5       -0.000051057173     0.000000076158     0.000005707136
       6       -0.001342500984    -0.002272649984     0.001056545712
       7        0.000064277475    -0.000065081770    -0.000060325985
       8       -0.000028380930    -0.000061809625     0.000007553871
       9        0.000995466873     0.001390215519    -0.000981088880
      10        0.000034329601     0.000006636781    -0.000010513042
      11       -0.000007535772    -0.000011574717     0.000009421625
      12       -0.000008631979    -0.000028032898     0.000007453502
      13       -0.000013335179     0.000028149370     0.000006870126
      14       -0.000004058528    -0.000001295894     0.000011070274
      15        0.000000334322    -0.000012722710    -0.000024663299

  **** Optimization is complete! (in 10 steps) ****
    Final optimized geometry and variables:
    Molecular point group: c1

    Geometry (in Angstrom), charge = 0, multiplicity = 1:

    H           -2.612572102568     0.971496423497     0.032393662867
    C           -1.819216067937     0.387202371004     0.476501064288
    O           -0.695423972639     0.534084453473    -0.327443937392
    H           -1.641568121689     0.756922205050     1.484744045633
    H           -2.149532916543    -0.644461059458     0.540957211059
    C            0.523599552320     0.069370966820     0.187785581905
    C            0.516317222808    -1.426795230716     0.477016744408
    C            1.584795342330     0.437295150466    -0.834151254694
    H            0.738168552893     0.610535526847     1.110176027135
    H           -0.179818377155    -1.688170304756     1.263591569014
    H            1.501940104147    -1.745660018401     0.795054895408
    H            0.248660758131    -1.981972018536    -0.415276194972
    H            1.561357283160     1.501279186279    -1.030872451329
    H            2.572218487011     0.173459467698    -0.473739662779
    H            1.407125968103    -0.084269837329    -1.767464057488

  Mulliken Charges: (a.u.)
   Center  Symbol    Alpha    Beta     Spin     Total
       1     H     0.44368  0.44368  0.00000  0.11263
       2     C     3.04024  3.04024  0.00000 -0.08048
       3     O     4.18096  4.18096  0.00000 -0.36193
       4     H     0.47171  0.47171  0.00000  0.05659
       5     H     0.46794  0.46794  0.00000  0.06412
       6     C     2.92286  2.92286  0.00000  0.15428
       7     C     3.15808  3.15808  0.00000 -0.31616
       8     C     3.14099  3.14099  0.00000 -0.28197
       9     H     0.46523  0.46523  0.00000  0.06954
      10     H     0.45025  0.45025  0.00000  0.09950
      11     H     0.44891  0.44891  0.00000  0.10217
      12     H     0.45005  0.45005  0.00000  0.09991
      13     H     0.44667  0.44667  0.00000  0.10666
      14     H     0.45889  0.45889  0.00000  0.08222
      15     H     0.45355  0.45355  0.00000  0.09291

   Total alpha = 21.00000, Total beta = 21.00000, Total charge =  0.00000

*** Psi4 exiting successfully. Buy a developer a beer!
