  ==> Input File <==

--------------------------------------------------------------------------
set {
	reference rhf
	basis 6-31G*
}

set_num_threads( 1 )
memory 2 gb

molecule MOL {
0 1

H	 0.991896	 -0.618621	 -4.224341
O	 1.930984	 -0.524323	 -4.158820
C	 2.249077	 0.787029	 -3.767378
C	 1.930039	 1.071602	 -2.303834
H	 3.312615	 0.895101	 -3.937323
H	 1.744434	 1.509039	 -4.408328
C	 0.439529	 0.991868	 -1.964879
H	 2.482715	 0.367545	 -1.687214
H	 2.303116	 2.065569	 -2.062566
C	 0.146652	 1.335446	 -0.501666
H	 0.076973	 -0.008990	 -2.182139
H	 -0.115414	 1.673423	 -2.609753
C	 -1.340535	 1.353967	 -0.129816
H	 0.670017	 0.631633	 0.142992
H	 0.567814	 2.314969	 -0.285198
C	 -2.037799	 -0.007733	 -0.193645
H	 -1.435129	 1.744781	 0.881190
H	 -1.863688	 2.057761	 -0.775434
C	 -3.489788	 0.042957	 0.286558
H	 -1.484551	 -0.723150	 0.413155
H	 -2.017690	 -0.391207	 -1.210919
C	 -4.216917	 1.317354	 -0.141063
H	 -4.025645	 -0.823308	 -0.095450
H	 -3.513059	 -0.038752	 1.371301
H	 -4.239342	 1.411634	 -1.223113
H	 -5.243387	 1.322503	 0.212445
H	 -3.726170	 2.201406	 0.256408

	symmetry c1
}
set optking {
	frozen_dihedral = ("
		14 10 7 4,
		14 10 13 16,
		10 7 4 8,
		8 4 3 2,
		10 13 16 20,
		4 3 2 1
	")
}

ee = energy('scf')
oeprop('DIPOLE', 'QUADRUPOLE', 'MULLIKEN_CHARGES')
f=open( 'psi4out.xyz', 'w' )
f.write( "27  " )
f.write( str(ee) + "\n" )
f.write( MOL.save_string_xyz() )
f.close()
--------------------------------------------------------------------------

    Molecular point group: c1

    Geometry (in Angstrom), charge = 0, multiplicity = 1:

       Center              X                  Y                   Z               Mass
    ------------   -----------------  -----------------  -----------------  -----------------
           H          1.457462680440    -1.310488581137    -2.743575283830     1.007825032070
           O          2.396550680440    -1.216190581137    -2.678054283830    15.994914619560
           C          2.714643680440     0.095161418863    -2.286612283830    12.000000000000
           C          2.395605680440     0.379734418863    -0.823068283830    12.000000000000
           H          3.778181680440     0.203233418863    -2.456557283830     1.007825032070
           H          2.210000680440     0.817171418863    -2.927562283830     1.007825032070
           C          0.905095680440     0.300000418863    -0.484113283830    12.000000000000
           H          2.948281680440    -0.324322581137    -0.206448283830     1.007825032070
           H          2.768682680440     1.373701418863    -0.581800283830     1.007825032070
           C          0.612218680440     0.643578418863     0.979099716170    12.000000000000
           H          0.542539680440    -0.700857581137    -0.701373283830     1.007825032070
           H          0.350152680440     0.981555418863    -1.128987283830     1.007825032070
           C         -0.874968319560     0.662099418863     1.350949716170    12.000000000000
           H          1.135583680440    -0.060234581137     1.623757716170     1.007825032070
           H          1.033380680440     1.623101418863     1.195567716170     1.007825032070
           C         -1.572232319560    -0.699600581137     1.287120716170    12.000000000000
           H         -0.969562319560     1.052913418863     2.361955716170     1.007825032070
           H         -1.398121319560     1.365893418863     0.705331716170     1.007825032070
           C         -3.024221319560    -0.648910581137     1.767323716170    12.000000000000
           H         -1.018984319560    -1.415017581137     1.893920716170     1.007825032070
           H         -1.552123319560    -1.083074581137     0.269846716170     1.007825032070
           C         -3.751350319560     0.625486418863     1.339702716170    12.000000000000
           H         -3.560078319560    -1.515175581137     1.385315716170     1.007825032070
           H         -3.047492319560    -0.730619581137     2.852066716170     1.007825032070
           H         -3.773775319560     0.719766418863     0.257652716170     1.007825032070
           H         -4.777820319560     0.630635418863     1.693210716170     1.007825032070
           H         -3.260603319560     1.509538418863     1.737173716170     1.007825032070

  Charge       = 0
  Multiplicity = 1
  Basis Set: 6-31G*
  Basis Set:

    Orbital Energies (a.u.)
    -----------------------

    Doubly Occupied:

       1A    -20.552204     2A    -11.266957     3A    -11.219602
       4A    -11.216765     5A    -11.215761     6A    -11.215061
       7A    -11.214785     8A    -11.213882     9A    -11.208485
      10A     -1.358948    11A     -1.096625    12A     -1.062496
      13A     -1.007898    14A     -0.944619    15A     -0.895385
      16A     -0.831220    17A     -0.798856    18A     -0.764013
      19A     -0.693502    20A     -0.651375    21A     -0.635175
      22A     -0.614601    23A     -0.608668    24A     -0.589603
      25A     -0.578370    26A     -0.557037    27A     -0.535565
      28A     -0.524808    29A     -0.512815    30A     -0.497092
      31A     -0.481807    32A     -0.476060    33A     -0.469679
      34A     -0.454538    35A     -0.447847    36A     -0.442068
      37A     -0.423042

  @DF-RHF Final Energy:  -388.27557765323621

   => Energetics <=

    Nuclear Repulsion Energy =            465.3497165096119375
    One-Electron Energy =               -1448.6964022914899033
    Two-Electron Energy =                 595.0711081286407307
    DFT Exchange-Correlation Energy =       0.0000000000000000
    Empirical Dispersion Energy =           0.0000000000000000
    PCM Polarization Energy =               0.0000000000000000
    EFP Energy =                            0.0000000000000000
    Total Energy =                       -388.2755776532372920

  Mulliken Charges: (a.u.)
   Center  Symbol    Alpha    Beta     Spin     Total
       1     H     0.27992  0.27992  0.00000  0.44016
       2     O     4.37095  4.37095  0.00000 -0.74190
       3     C     2.99736  2.99736  0.00000  0.00528
       4     C     3.16092  3.16092  0.00000 -0.32184
       5     H     0.41447  0.41447  0.00000  0.17107
       6     H     0.43209  0.43209  0.00000  0.13583
       7     C     3.16328  3.16328  0.00000 -0.32657
       8     H     0.41496  0.41496  0.00000  0.17007
       9     H     0.42437  0.42437  0.00000  0.15125
      10     C     3.15048  3.15048  0.00000 -0.30096
      11     H     0.42288  0.42288  0.00000  0.15423
      12     H     0.42562  0.42562  0.00000  0.14876
      13     C     3.16048  3.16048  0.00000 -0.32096
      14     H     0.42204  0.42204  0.00000  0.15591
      15     H     0.42185  0.42185  0.00000  0.15629
      16     C     3.15335  3.15335  0.00000 -0.30671
      17     H     0.42133  0.42133  0.00000  0.15735
      18     H     0.41970  0.41970  0.00000  0.16059
      19     C     3.15193  3.15193  0.00000 -0.30385
      20     H     0.42120  0.42120  0.00000  0.15759
      21     H     0.42352  0.42352  0.00000  0.15296
      22     C     3.24548  3.24548  0.00000 -0.49097
      23     H     0.42054  0.42054  0.00000  0.15892
      24     H     0.42223  0.42223  0.00000  0.15554
      25     H     0.42281  0.42281  0.00000  0.15438
      26     H     0.41865  0.41865  0.00000  0.16271
      27     H     0.41757  0.41757  0.00000  0.16485

   Total alpha = 37.00000, Total beta = 37.00000, Total charge =  0.00000
