  ==> Input File <==

--------------------------------------------------------------------------
set {
	reference rhf
	basis 6-31G*
}

set_num_threads( 4 )
memory 2 gb

molecule MOL {
0 1

H	 -2.348982	 -1.528678	 1.124068
C	 -1.614621	 -0.910539	 0.646548
C	 -1.963800	 0.341599	 0.040125
C	 -0.330423	 -1.287131	 0.597240
H	 -2.987250	 0.671848	 0.063163
C	 -1.027719	 1.097536	 -0.551292
H	 0.012544	 -2.209164	 1.026931
N	 0.640212	 -0.532897	 -0.000111
H	 -1.251587	 2.038587	 -1.014607
C	 0.369643	 0.687535	 -0.604771
C	 2.010177	 -1.032049	 0.000042
O	 1.240709	 1.338117	 -1.126492
H	 2.187698	 -1.635381	 -0.882279
H	 2.677579	 -0.189247	 -0.001871
H	 2.188882	 -1.632203	 0.884288

	symmetry c1
}
set optking {
	frozen_dihedral = ("
		10 8 11 13
	")
}

ee = optimize('scf')
oeprop('DIPOLE', 'QUADRUPOLE', 'MULLIKEN_CHARGES')
f=open( 'psi4out.xyz', 'w' )
f.write( "15  " )
f.write( str(ee) + "\n" )
f.write( MOL.save_string_xyz() )
f.close()
--------------------------------------------------------------------------

    Molecular point group: c1
  Charge       = 0
  Multiplicity = 1
  Basis Set: 6-31G*
  Basis Set:
  @DF-RHF Final Energy:  -360.59590774805628
    Total Energy =                       -360.5959077480562200
    Molecular point group: c1
  Basis Set: 6-31G*
  Basis Set:
  Basis Set: 6-31G*
  Basis Set:
  @DF-RHF Final Energy:  -360.59613333545968
    Total Energy =                       -360.5961333354596263
  Basis Set: 6-31G*
  Basis Set:
  Basis Set: 6-31G*
  Basis Set:
  @DF-RHF Final Energy:  -360.59616896031781
    Total Energy =                       -360.5961689603179821
  Basis Set: 6-31G*
  Basis Set:
  Basis Set: 6-31G*
  Basis Set:
  @DF-RHF Final Energy:  -360.59615360688457
    Total Energy =                       -360.5961536068848545
  Basis Set: 6-31G*
  Basis Set:
  Charge       = 0
  Multiplicity = 1
  Basis Set: 6-31G*
  Basis Set:

    Orbital Energies (a.u.)
    -----------------------

    Doubly Occupied:

       1A    -20.508727     2A    -15.621846     3A    -11.342510
       4A    -11.297282     5A    -11.265513     6A    -11.260382
       7A    -11.233297     8A    -11.228997     9A     -1.384646
      10A     -1.281009    11A     -1.114836    12A     -1.025999
      13A     -0.970174    14A     -0.872476    15A     -0.835519
      16A     -0.715711    17A     -0.697961    18A     -0.661048
      19A     -0.648261    20A     -0.622236    21A     -0.606559
      22A     -0.572866    23A     -0.550836    24A     -0.547259
      25A     -0.526948    26A     -0.476957    27A     -0.414093
      28A     -0.405568    29A     -0.304850

  @DF-RHF Final Energy:  -360.59617615543129

   => Energetics <=

    Nuclear Repulsion Energy =            357.7579790309187047
    One-Electron Energy =               -1198.7195769270463188
    Two-Electron Energy =                 480.3654217406961493
    DFT Exchange-Correlation Energy =       0.0000000000000000
    Empirical Dispersion Energy =           0.0000000000000000
    PCM Polarization Energy =               0.0000000000000000
    EFP Energy =                            0.0000000000000000
    Total Energy =                       -360.5961761554314648
    Molecular point group: c1
  Basis Set: 6-31G*
  Basis Set:

  -Total Gradient:
     Atom            X                  Y                   Z
    ------   -----------------  -----------------  -----------------
       1        0.000000766878     0.000003022844     0.000004644770
       2        0.000097017513    -0.000051708866    -0.000012226962
       3       -0.000003545527     0.000089748246    -0.000043423604
       4       -0.000132589204    -0.000052428121     0.000082784449
       5        0.000002319718    -0.000002885063    -0.000001473787
       6       -0.000092029913     0.000000246657     0.000018146085
       7        0.000008087315     0.000007536312    -0.000011845601
       8       -0.000185175306    -0.000493891026    -0.000769496040
       9        0.000003961776     0.000005037963    -0.000007351426
      10        0.000199940611     0.000167658020     0.000628416171
      11        0.000323437975     0.000901699311    -0.000247872389
      12       -0.000016133482     0.000037567766    -0.000031864385
      13       -0.000211207534    -0.000611648578     0.000395655283
      14       -0.000001340144     0.000000985881     0.000002720641
      15        0.000006489321    -0.000000941344    -0.000006813203

  **** Optimization is complete! (in 5 steps) ****
    Final optimized geometry and variables:
    Molecular point group: c1

    Geometry (in Angstrom), charge = 0, multiplicity = 1:

    H           -2.347425724582    -1.492137060276     1.250046136832
    C           -1.608708270389    -0.874151894746     0.779224765299
    C           -1.951366418842     0.382011441896     0.178376428744
    C           -0.324417248406    -1.253731853674     0.739756259599
    H           -2.974000794141     0.714816104521     0.199530944294
    C           -1.010694657023     1.138982567403    -0.405233402000
    H            0.011826036773    -2.177409759198     1.169899699909
    N            0.650846944846    -0.495776723333     0.156185235003
    H           -1.229591653437     2.082566295747    -0.866025590335
    C            0.382371973950     0.717765927801    -0.461079780969
    C            2.025739686403    -0.980140789461     0.133179573487
    O            1.260282197140     1.348997523279    -0.995192397140
    H            2.204191979728    -1.591866010029    -0.743394622879
    H            2.693454986211    -0.136437047862     0.112809965507
    H            2.210031880098    -1.570422029538     1.020618515599

  Mulliken Charges: (a.u.)
   Center  Symbol    Alpha    Beta     Spin     Total
       1     H     0.39297  0.39297  0.00000  0.21405
       2     C     3.16196  3.16196  0.00000 -0.32392
       3     C     3.05827  3.05827  0.00000 -0.11654
       4     C     2.92129  2.92129  0.00000  0.15741
       5     H     0.39087  0.39087  0.00000  0.21825
       6     C     3.16966  3.16966  0.00000 -0.33932
       7     H     0.38784  0.38784  0.00000  0.22432
       8     N     3.86473  3.86473  0.00000 -0.72947
       9     H     0.38641  0.38641  0.00000  0.22718
      10     C     2.59532  2.59532  0.00000  0.80937
      11     C     3.14679  3.14679  0.00000 -0.29359
      12     O     4.32180  4.32180  0.00000 -0.64360
      13     H     0.40597  0.40597  0.00000  0.18806
      14     H     0.38176  0.38176  0.00000  0.23649
      15     H     0.41435  0.41435  0.00000  0.17130

   Total alpha = 29.00000, Total beta = 29.00000, Total charge = -0.00000
