  ==> Input File <==

--------------------------------------------------------------------------
set {
	reference rhf
	basis 6-31G*
}

set_num_threads( 1 )
memory 2 gb

molecule MOL {
0 1

H	 -2.848806	 -1.414593	 0.247892
O	 -2.310168	 -0.871793	 -0.309793
C	 -2.026376	 0.340750	 0.341611
C	 -0.673256	 0.843270	 -0.132153
H	 -2.792215	 1.080697	 0.115987
H	 -2.013526	 0.200402	 1.421792
C	 0.486613	 -0.083066	 0.235839
H	 -0.715586	 0.970948	 -1.210718
H	 -0.508072	 1.829858	 0.297090
C	 1.840406	 0.433480	 -0.254303
H	 0.300215	 -1.068318	 -0.178947
H	 0.519509	 -0.203625	 1.318070
C	 3.000220	 -0.489290	 0.118523
H	 1.809207	 0.553576	 -1.335192
H	 2.021860	 1.424500	 0.157276
H	 2.864959	 -1.479103	 -0.307933
H	 3.946603	 -0.099227	 -0.243630
H	 3.080049	 -0.602997	 1.196117

	symmetry c1
}
set optking {
	frozen_dihedral = ("
		14 10 7 11,
		10 7 4 8,
		2 3 4 8
	")
}

ee = energy('scf')
oeprop('DIPOLE', 'QUADRUPOLE', 'MULLIKEN_CHARGES')
f=open( 'psi4out.xyz', 'w' )
f.write( "18  " )
f.write( str(ee) + "\n" )
f.write( MOL.save_string_xyz() )
f.close()
--------------------------------------------------------------------------

    Molecular point group: c1

    Geometry (in Angstrom), charge = 0, multiplicity = 1:

       Center              X                  Y                   Z               Mass
    ------------   -----------------  -----------------  -----------------  -----------------
           H         -2.852085231379    -1.412310301120     0.245071445779     1.007825032070
           O         -2.313447231379    -0.869510301120    -0.312613554221    15.994914619560
           C         -2.029655231379     0.343032698880     0.338790445779    12.000000000000
           C         -0.676535231379     0.845552698880    -0.134973554221    12.000000000000
           H         -2.795494231379     1.082979698880     0.113166445779     1.007825032070
           H         -2.016805231379     0.202684698880     1.418971445779     1.007825032070
           C          0.483333768621    -0.080783301120     0.233018445779    12.000000000000
           H         -0.718865231379     0.973230698880    -1.213538554221     1.007825032070
           H         -0.511351231379     1.832140698880     0.294269445779     1.007825032070
           C          1.837126768621     0.435762698880    -0.257123554221    12.000000000000
           H          0.296935768621    -1.066035301120    -0.181767554221     1.007825032070
           H          0.516229768621    -0.201342301120     1.315249445779     1.007825032070
           C          2.996940768621    -0.487007301120     0.115702445779    12.000000000000
           H          1.805927768621     0.555858698880    -1.338012554221     1.007825032070
           H          2.018580768621     1.426782698880     0.154455445779     1.007825032070
           H          2.861679768621    -1.476820301120    -0.310753554221     1.007825032070
           H          3.943323768621    -0.096944301120    -0.246450554221     1.007825032070
           H          3.076769768621    -0.600714301120     1.193296445779     1.007825032070

  Charge       = 0
  Multiplicity = 1
  Basis Set: 6-31G*
  Basis Set:

    Orbital Energies (a.u.)
    -----------------------

    Doubly Occupied:

       1A    -20.553072     2A    -11.268267     3A    -11.211413
       4A    -11.211325     5A    -11.207285     6A    -11.205305
       7A     -1.360085     8A     -1.075125     9A     -1.008931
      10A     -0.913977    11A     -0.818440    12A     -0.784019
      13A     -0.706504    14A     -0.635363    15A     -0.631065
      16A     -0.579743    17A     -0.569458    18A     -0.563313
      19A     -0.523786    20A     -0.496671    21A     -0.483424
      22A     -0.470624    23A     -0.459106    24A     -0.456506
      25A     -0.424252

  @DF-RHF Final Energy:  -271.17908273765931

   => Energetics <=

    Nuclear Repulsion Energy =            249.1938874854159849
    One-Electron Energy =                -861.5118881536375284
    Two-Electron Energy =                 341.1389179305617745
    DFT Exchange-Correlation Energy =       0.0000000000000000
    Empirical Dispersion Energy =           0.0000000000000000
    PCM Polarization Energy =               0.0000000000000000
    EFP Energy =                            0.0000000000000000
    Total Energy =                       -271.1790827376597690

  Mulliken Charges: (a.u.)
   Center  Symbol    Alpha    Beta     Spin     Total
       1     H     0.27994  0.27994  0.00000  0.44013
       2     O     4.36976  4.36976  0.00000 -0.73951
       3     C     2.99849  2.99849  0.00000  0.00302
       4     C     3.15913  3.15913  0.00000 -0.31827
       5     H     0.42615  0.42615  0.00000  0.14771
       6     H     0.43313  0.43313  0.00000  0.13374
       7     C     3.15335  3.15335  0.00000 -0.30669
       8     H     0.41476  0.41476  0.00000  0.17049
       9     H     0.42493  0.42493  0.00000  0.15013
      10     C     3.15158  3.15158  0.00000 -0.30317
      11     H     0.40946  0.40946  0.00000  0.18108
      12     H     0.42905  0.42905  0.00000  0.14190
      13     C     3.23894  3.23894  0.00000 -0.47788
      14     H     0.42213  0.42213  0.00000  0.15574
      15     H     0.42507  0.42507  0.00000  0.14986
      16     H     0.42110  0.42110  0.00000  0.15779
      17     H     0.42013  0.42013  0.00000  0.15974
      18     H     0.42290  0.42290  0.00000  0.15420

   Total alpha = 25.00000, Total beta = 25.00000, Total charge =  0.00000
