                              Psi4 1.0.54 Driver

  ==> Input File <==

--------------------------------------------------------------------------
set {
	reference rhf
	basis cc-pvtz
}

set_num_threads( 4 )
memory 2 gb

molecule MOL {
0 1

H	 4.594074	 0.371565	 0.372931
C	 3.742310	 -0.286783	 0.249705
C	 2.440105	 0.504634	 0.198971
H	 3.892550	 -0.852427	 -0.663812
H	 3.745931	 -0.988995	 1.076689
C	 1.215950	 -0.382441	 0.027187
H	 2.468903	 1.218091	 -0.617065
H	 2.335627	 1.084495	 1.112985
N	 0.000002	 0.398953	 -0.040851
H	 1.307257	 -0.943874	 -0.897813
H	 1.187450	 -1.120768	 0.834123
C	 -1.215959	 -0.382435	 0.027143
H	 -0.000012	 1.086078	 0.683841
C	 -2.451944	 0.502410	 -0.038737
H	 -1.221867	 -1.069392	 -0.813828
H	 -1.259993	 -0.999709	 0.929424
C	 -3.752217	 -0.292550	 0.005776
H	 -2.407325	 1.093801	 -0.946480
H	 -2.431979	 1.206234	 0.790023
H	 -3.817783	 -0.982946	 -0.828547
H	 -4.612613	 0.364348	 -0.042306
H	 -3.830160	 -0.871666	 0.919868

	symmetry c1
}
set optking {
	frozen_dihedral = ("
		10 6 9 12
	")
}

ee,wfn = optimize('scf', return_wfn=True)
oeprop( wfn, 'DIPOLE', 'QUADRUPOLE', 'MULLIKEN_CHARGES')
f=open( 'psi4out.xyz', 'w' )
f.write( "22  " )
f.write( str(ee) + "\n" )
f.write( MOL.save_string_xyz() )
f.close()
--------------------------------------------------------------------------

    Molecular point group: c1
  Charge       = 0
  Multiplicity = 1
  Basis Set: CC-PVTZ
  Basis Set:
  @DF-RHF Final Energy:  -290.48979222829166
    Total Energy =                       -290.4897922282920604
    Molecular point group: c1
  Basis Set: CC-PVTZ
  Basis Set:
  Basis Set: CC-PVTZ
  Basis Set:
  @DF-RHF Final Energy:  -290.48982442747604
    Total Energy =                       -290.4898244274762646
  Basis Set: CC-PVTZ
  Basis Set:
  Basis Set: CC-PVTZ
  Basis Set:
  @DF-RHF Final Energy:  -290.48982889886986
    Total Energy =                       -290.4898288988699733
  Basis Set: CC-PVTZ
  Basis Set:
  Charge       = 0
  Multiplicity = 1
  Basis Set: CC-PVTZ
  Basis Set:

    Orbital Energies (a.u.)
    -----------------------

    Doubly Occupied:

       1A    -15.528129     2A    -11.236091     3A    -11.236045
       4A    -11.213034     5A    -11.211597     6A    -11.208171
       7A    -11.207429     8A     -1.207497     9A     -1.060770
      10A     -1.027269    11A     -0.928885    12A     -0.868671
      13A     -0.812548    14A     -0.794168    15A     -0.668270
      16A     -0.628262    17A     -0.616589    18A     -0.615472
      19A     -0.574084    20A     -0.563226    21A     -0.532177
      22A     -0.527968    23A     -0.515792    24A     -0.485705
      25A     -0.482433    26A     -0.474500    27A     -0.466853
      28A     -0.451578    29A     -0.362388

  @DF-RHF Final Energy:  -290.48982927641850

   => Energetics <=

    Nuclear Repulsion Energy =            313.7392055253330909
    One-Electron Energy =               -1013.4468572588225470
    Two-Electron Energy =                 409.2178224570712928
    DFT Exchange-Correlation Energy =       0.0000000000000000
    Empirical Dispersion Energy =           0.0000000000000000
    PCM Polarization Energy =               0.0000000000000000
    EFP Energy =                            0.0000000000000000
    Total Energy =                       -290.4898292764181633
    Molecular point group: c1
  Basis Set: CC-PVTZ
  Basis Set:

  -Total Gradient:
     Atom            X                  Y                   Z
    ------   -----------------  -----------------  -----------------
       1       -0.000007971463     0.000000236599    -0.000002397402
       2        0.000007978302    -0.000009600348    -0.000013465766
       3        0.000015250530     0.000015623477     0.000024934044
       4       -0.000003561103     0.000003645519     0.000013498798
       5        0.000001435070     0.000008838206    -0.000007053722
       6       -0.001114349659    -0.001499033277     0.001381417594
       7        0.000003458053    -0.000009170243     0.000007373262
       8        0.000012863494     0.000007143730    -0.000004321038
       9        0.000219889568     0.000084895631    -0.001996429336
      10        0.000835456969     0.001267686703    -0.000676955204
      11        0.000008939222     0.000014944708    -0.000008868657
      12        0.000031258592     0.000144383740     0.001277674024
      13        0.000014088430    -0.000003384344     0.000000276869
      14        0.000001600681    -0.000001013813     0.000000441545
      15       -0.000014776346    -0.000011344269    -0.000002219450
      16       -0.000010292708    -0.000012199984     0.000001456257
      17       -0.000003044809    -0.000004472283     0.000001398373
      18        0.000000467429    -0.000003269821     0.000002574999
      19       -0.000003458080     0.000001647576    -0.000000083532
      20        0.000001241990     0.000004818912     0.000004131490
      21        0.000004142529    -0.000002152892     0.000000573408
      22       -0.000000616693     0.000001776473    -0.000003956555

  **** Optimization is complete! (in 4 steps) ****
    Final optimized geometry and variables:
    Molecular point group: c1

    Geometry (in Angstrom), charge = 0, multiplicity = 1:

    H            4.599281615665     0.372542896534     0.279569910668
    C            3.747350339721    -0.286356819738     0.160525683602
    C            2.442990100186     0.502607603307     0.138100343395
    H            3.885452749594    -0.840526427644    -0.761724833654
    H            3.763955376981    -0.998198737593     0.979024411432
    C            1.217866352139    -0.385666148173    -0.025274459613
    H            2.459431722243     1.224029364308    -0.671603097987
    H            2.351796849823     1.072540410032     1.059849848879
    N            0.003222160813     0.398881909120    -0.096813314063
    H            1.315117607884    -0.946910452661    -0.950109388436
    H            1.189940505437    -1.116108796011     0.787886871251
    C           -1.213416153000    -0.382541162307    -0.035483981293
    H           -0.000391501448     1.075187897326     0.638173398104
    C           -2.449337828009     0.500812778289    -0.118690433025
    H           -1.211826273094    -1.075783226753    -0.871638787621
    H           -1.263839503300    -0.993682516995     0.870391528952
    C           -3.749453222561    -0.294470564651    -0.076211542144
    H           -2.398463300668     1.083868005424    -1.031427046522
    H           -2.435525385651     1.212301797937     0.703636062730
    H           -3.808164313114    -0.993278605081    -0.904014432040
    H           -4.609826827680     0.361377690063    -0.137503672881
    H           -3.834076938958    -0.864393841122     0.843063154812

  Mulliken Charges: (a.u.)
   Center  Symbol    Alpha    Beta     Spin     Total
       1     H     0.44767  0.44767  0.00000  0.10466
       2     C     3.15333  3.15333  0.00000 -0.30665
       3     C     3.08249  3.08249  0.00000 -0.16497
       4     H     0.45439  0.45439  0.00000  0.09122
       5     H     0.45587  0.45587  0.00000  0.08827
       6     C     3.01972  3.01972  0.00000 -0.03943
       7     H     0.44858  0.44858  0.00000  0.10283
       8     H     0.46007  0.46007  0.00000  0.07987
       9     N     3.63781  3.63781  0.00000 -0.27562
      10     H     0.45949  0.45949  0.00000  0.08102
      11     H     0.47631  0.47631  0.00000  0.04738
      12     C     3.02318  3.02318  0.00000 -0.04636
      13     H     0.44685  0.44685  0.00000  0.10631
      14     C     3.08009  3.08009  0.00000 -0.16017
      15     H     0.45910  0.45910  0.00000  0.08180
      16     H     0.47403  0.47403  0.00000  0.05194
      17     C     3.15354  3.15354  0.00000 -0.30708
      18     H     0.44908  0.44908  0.00000  0.10184
      19     H     0.45975  0.45975  0.00000  0.08049
      20     H     0.45474  0.45474  0.00000  0.09051
      21     H     0.44772  0.44772  0.00000  0.10455
      22     H     0.45620  0.45620  0.00000  0.08760

   Total alpha = 29.00000, Total beta = 29.00000, Total charge =  0.00000

*** Psi4 exiting successfully. Buy a developer a beer!
