  ==> Input File <==

--------------------------------------------------------------------------
set {
	reference rhf
	basis 6-31G*
}

set_num_threads( 4 )
memory 2 gb

molecule MOL {
0 1

O	 -1.965311	 -2.242757	 -0.046701
C	 -0.889072	 -1.737819	 -0.024531
C	 0.424152	 -2.483258	 -0.019257
O	 -0.698257	 -0.426125	 0.001050
C	 0.252192	 -3.996732	 -0.047439
H	 0.975320	 -2.164384	 0.860390
H	 0.999184	 -2.134773	 -0.871995
H	 -0.307595	 -4.341511	 0.813450
H	 1.221698	 -4.483401	 -0.042257
H	 -0.283261	 -4.311713	 -0.934795
C	 -1.853104	 0.406779	 0.000512
C	 -3.066105	 -0.499277	 -0.000959
H	 -1.828410	 1.043074	 -0.873618
H	 -1.829857	 1.042383	 0.875188
H	 -3.071820	 -1.133106	 -0.880383
H	 -3.972708	 0.097145	 -0.001528
H	 -3.073405	 -1.133813	 0.877999

	symmetry c1
}
set optking {
	frozen_dihedral = ("
		2 4 11 13
	")
}

ee = optimize('scf')
oeprop('DIPOLE', 'QUADRUPOLE', 'MULLIKEN_CHARGES')
f=open( 'psi4out.xyz', 'w' )
f.write( "17  " )
f.write( str(ee) + "\n" )
f.write( MOL.save_string_xyz() )
f.close()
--------------------------------------------------------------------------

    Molecular point group: c1
  Charge       = 0
  Multiplicity = 1
  Basis Set: 6-31G*
  Basis Set:
  @DF-RHF Final Energy:  -344.83197983811095
    Total Energy =                       -344.8319798381114651
    Molecular point group: c1
  Basis Set: 6-31G*
  Basis Set:
  Basis Set: 6-31G*
  Basis Set:
  @DF-RHF Final Energy:  -344.88088284366415
    Total Energy =                       -344.8808828436641534
  Basis Set: 6-31G*
  Basis Set:
  Basis Set: 6-31G*
  Basis Set:
  @DF-RHF Final Energy:  -344.89268714321878
    Total Energy =                       -344.8926871432191206
  Basis Set: 6-31G*
  Basis Set:
  Basis Set: 6-31G*
  Basis Set:
  @DF-RHF Final Energy:  -344.89776203329711
    Total Energy =                       -344.8977620332972265
  Basis Set: 6-31G*
  Basis Set:
  @DF-RHF Final Energy:  -344.89411701889901
    Total Energy =                       -344.8941170188991237
  @DF-RHF Final Energy:  -344.89955796773660
    Total Energy =                       -344.8995579677367118
  Basis Set: 6-31G*
  Basis Set:
  @DF-RHF Final Energy:  -344.89969774068442
    Total Energy =                       -344.8996977406839619
  Basis Set: 6-31G*
  Basis Set:
  Basis Set: 6-31G*
  Basis Set:
  @DF-RHF Final Energy:  -344.89971603089720
    Total Energy =                       -344.8997160308969114
  Basis Set: 6-31G*
  Basis Set:
  Basis Set: 6-31G*
  Basis Set:
  @DF-RHF Final Energy:  -344.89971738598575
    Total Energy =                       -344.8997173859857526
  Basis Set: 6-31G*
  Basis Set:
  Charge       = 0
  Multiplicity = 1
  Basis Set: 6-31G*
  Basis Set:

    Orbital Energies (a.u.)
    -----------------------

    Doubly Occupied:

       1A    -20.597822     2A    -20.539772     3A    -11.372926
       4A    -11.291854     5A    -11.234325     6A    -11.215775
       7A    -11.213381     8A     -1.459379     9A     -1.361330
      10A     -1.067479    11A     -1.028029    12A     -0.919407
      13A     -0.858502    14A     -0.741000    15A     -0.687040
      16A     -0.684034    17A     -0.669932    18A     -0.627999
      19A     -0.599967    20A     -0.567595    21A     -0.545865
      22A     -0.529098    23A     -0.522422    24A     -0.516870
      25A     -0.493650    26A     -0.490084    27A     -0.440294
      28A     -0.427379

  @DF-RHF Final Energy:  -344.89971755061066

   => Energetics <=

    Nuclear Repulsion Energy =            318.2616932409623018
    One-Electron Energy =               -1100.9163963678756772
    Two-Electron Energy =                 437.7549855763023743
    DFT Exchange-Correlation Energy =       0.0000000000000000
    Empirical Dispersion Energy =           0.0000000000000000
    PCM Polarization Energy =               0.0000000000000000
    EFP Energy =                            0.0000000000000000
    Total Energy =                       -344.8997175506109443
    Molecular point group: c1
  Basis Set: 6-31G*
  Basis Set:

  -Total Gradient:
     Atom            X                  Y                   Z
    ------   -----------------  -----------------  -----------------
       1       -0.000014805344    -0.000007668981    -0.000005613594
       2        0.000007444452    -0.000022750146     0.000972382482
       3        0.000006027267    -0.000000091211     0.000026476064
       4        0.000140460140     0.000139274587    -0.001429638555
       5       -0.000015141596     0.000005356038    -0.000007362765
       6        0.000002063349     0.000003513587    -0.000006008767
       7       -0.000006444552     0.000003870520    -0.000010007815
       8       -0.000001009018    -0.000006501430     0.000002937429
       9       -0.000000260218     0.000007315755     0.000002226607
      10       -0.000000777058     0.000000075926     0.000001745959
      11       -0.000662351565    -0.000766816288    -0.000080560047
      12        0.000008519665     0.000009654197     0.000020958694
      13        0.000552633789     0.000653423528     0.000528404636
      14       -0.000009307506     0.000007622826    -0.000004921620
      15       -0.000003590720    -0.000010539072    -0.000001080431
      16        0.000006857791    -0.000016333231    -0.000004503751
      17       -0.000010318874     0.000000593399    -0.000005434525

  **** Optimization is complete! (in 10 steps) ****
    Final optimized geometry and variables:
    Molecular point group: c1

    Geometry (in Angstrom), charge = 0, multiplicity = 1:

    O           -0.757062340558    -0.916902449363    -0.097443118348
    C            0.244737479156    -0.282283982412    -0.025060649141
    C            1.632339131103    -0.882360630253     0.037338901992
    O            0.323621699678     1.038722155641     0.007562805801
    C            1.627938342067    -2.404957346805    -0.010562497308
    H            2.104143281184    -0.517427359493     0.944704109567
    H            2.205660317286    -0.463178394410    -0.783934475589
    H            1.069503760990    -2.819896834258     0.819688309077
    H            2.643655672146    -2.783294867704     0.037427265989
    H            1.172387448879    -2.765205752980    -0.924940130041
    C           -0.763842475185     1.969241448728     0.011375809884
    C           -2.191515176162     1.449382139832     0.075933864841
    H           -0.624837370963     2.571644023898    -0.876824797594
    H           -0.570691237535     2.604834935566     0.865443639155
    H           -2.456111298584     0.857120221628    -0.786897250247
    H           -2.838199270505     2.322560103051     0.109841655361
    H           -2.371169109508     0.857150381039     0.961946912284

  Mulliken Charges: (a.u.)
   Center  Symbol    Alpha    Beta     Spin     Total
       1     O     4.28518  4.28518  0.00000 -0.57037
       2     C     2.60626  2.60626  0.00000  0.78748
       3     C     3.20324  3.20324  0.00000 -0.40648
       4     O     4.32314  4.32314  0.00000 -0.64629
       5     C     3.23839  3.23839  0.00000 -0.47679
       6     H     0.40199  0.40199  0.00000  0.19602
       7     H     0.40163  0.40163  0.00000  0.19674
       8     H     0.41059  0.41059  0.00000  0.17882
       9     H     0.41906  0.41906  0.00000  0.16187
      10     H     0.41063  0.41063  0.00000  0.17875
      11     C     2.99118  2.99118  0.00000  0.01764
      12     C     3.25101  3.25101  0.00000 -0.50201
      13     H     0.41367  0.41367  0.00000  0.17266
      14     H     0.41331  0.41331  0.00000  0.17338
      15     H     0.40205  0.40205  0.00000  0.19590
      16     H     0.42245  0.42245  0.00000  0.15510
      17     H     0.40621  0.40621  0.00000  0.18758

   Total alpha = 28.00000, Total beta = 28.00000, Total charge = -0.00000
