                              Psi4 1.0.54 Driver

  ==> Input File <==

--------------------------------------------------------------------------
set {
	reference rhf
	basis cc-pvtz
}

set_num_threads( 4 )
memory 2 gb

molecule MOL {
0 1

H	 2.441813	 -1.482907	 0.994742
N	 1.462631	 -1.298903	 1.010695
C	 0.797480	 -1.970422	 -0.087704
C	 1.209399	 0.127791	 0.994578
H	 0.990447	 -3.034248	 -0.021448
H	 1.152423	 -1.624832	 -1.060433
C	 -0.697142	 -1.720444	 0.000000
H	 1.700852	 0.584379	 1.845080
H	 1.590368	 0.605947	 0.090228
C	 -0.285762	 0.375020	 1.080864
H	 -1.086008	 -2.203171	 0.901304
H	 -1.189886	 -2.172158	 -0.852805
N	 -0.976577	 -0.298712	 -0.000000
H	 -0.481053	 1.438458	 1.009591
H	 -0.646288	 0.036652	 2.056630
C	 -2.391156	 -0.021003	 -0.000000
H	 -2.853954	 -0.458728	 -0.875714
H	 -2.853954	 -0.458728	 0.875714
H	 -2.614037	 1.049773	 -0.000000

	symmetry c1
}
set optking {
	frozen_dihedral = ("
		7 13 16 19
	")
}

ee,wfn = optimize('scf', return_wfn=True)
oeprop( wfn, 'DIPOLE', 'QUADRUPOLE', 'MULLIKEN_CHARGES')
f=open( 'psi4out.xyz', 'w' )
f.write( "19  " )
f.write( str(ee) + "\n" )
f.write( MOL.save_string_xyz() )
f.close()
--------------------------------------------------------------------------

    Molecular point group: c1
  Charge       = 0
  Multiplicity = 1
  Basis Set: CC-PVTZ
  Basis Set:
  @DF-RHF Final Energy:  -305.30832215076623
    Total Energy =                       -305.3083221507662302
    Molecular point group: c1
  Basis Set: CC-PVTZ
  Basis Set:
  Basis Set: CC-PVTZ
  Basis Set:
  @DF-RHF Final Energy:  -305.30895195294943
    Total Energy =                       -305.3089519529496556
  Basis Set: CC-PVTZ
  Basis Set:
  Basis Set: CC-PVTZ
  Basis Set:
  @DF-RHF Final Energy:  -305.30903998908468
    Total Energy =                       -305.3090399890847948
  Basis Set: CC-PVTZ
  Basis Set:
  Charge       = 0
  Multiplicity = 1
  Basis Set: CC-PVTZ
  Basis Set:

    Orbital Energies (a.u.)
    -----------------------

    Doubly Occupied:

       1A    -15.536772     2A    -15.531265     3A    -11.237325
       4A    -11.237298     5A    -11.235897     6A    -11.235832
       7A    -11.233257     8A     -1.249600     9A     -1.187959
      10A     -1.024017    11A     -0.965830    12A     -0.861810
      13A     -0.858272    14A     -0.757720    15A     -0.692890
      16A     -0.635221    17A     -0.627709    18A     -0.609574
      19A     -0.605484    20A     -0.581492    21A     -0.543766
      22A     -0.528814    23A     -0.512677    24A     -0.490625
      25A     -0.467831    26A     -0.458351    27A     -0.366094
      28A     -0.348573

  @DF-RHF Final Energy:  -305.30904085403483

   => Energetics <=

    Nuclear Repulsion Energy =            340.3664158453808568
    One-Electron Energy =               -1088.1070145704331935
    Two-Electron Energy =                 442.4315578710173327
    DFT Exchange-Correlation Energy =       0.0000000000000000
    Empirical Dispersion Energy =           0.0000000000000000
    PCM Polarization Energy =               0.0000000000000000
    EFP Energy =                            0.0000000000000000
    Total Energy =                       -305.3090408540350040
    Molecular point group: c1
  Basis Set: CC-PVTZ
  Basis Set:

  -Total Gradient:
     Atom            X                  Y                   Z
    ------   -----------------  -----------------  -----------------
       1        0.000009657199     0.000011828579     0.000012990957
       2        0.000019879232    -0.000009503428     0.000019377318
       3       -0.000017442824     0.000122978487    -0.000030874683
       4       -0.000003123853     0.000002102152     0.000028934481
       5       -0.000045382962     0.000024502039     0.000003017663
       6        0.000026475021    -0.000006087657    -0.000023978005
       7       -0.000098617673    -0.000042703473     0.000696905828
       8        0.000015381750    -0.000008074025     0.000002837478
       9       -0.000010817194    -0.000009038703     0.000001911515
      10       -0.000018804638    -0.000015497883    -0.000030729878
      11       -0.000010735552     0.000003931815     0.000007980970
      12       -0.000017228769     0.000013643371    -0.000008184066
      13        0.000037104951    -0.000019639173    -0.000713577435
      14        0.000003769351     0.000000464406     0.000002861042
      15        0.000020772499     0.000003264007     0.000000560284
      16        0.000020331348    -0.000047238110    -0.000819445108
      17        0.000026594395    -0.000004992176    -0.000006694742
      18        0.000019493515    -0.000009272895     0.000008400569
      19        0.000022694208    -0.000010667333     0.000847705811

  **** Optimization is complete! (in 4 steps) ****
    Final optimized geometry and variables:
    Molecular point group: c1

    Geometry (in Angstrom), charge = 0, multiplicity = 1:

    H            2.560659215797    -0.833063187096     0.587212126616
    N            1.583431611361    -0.638019486369     0.593528577505
    C            0.923160563224    -1.290034903707    -0.519296639216
    C            1.346195423384     0.791342861528     0.590616425644
    H            1.101753287723    -2.356932401726    -0.461816836075
    H            1.293701454614    -0.939325454229    -1.484449541658
    C           -0.569173406004    -1.022197651445    -0.446062827074
    H            1.832067030864     1.233155492425     1.452169729330
    H            1.743586046269     1.275341793849    -0.303591395780
    C           -0.147185308926     1.055058966394     0.660682243985
    H           -0.974030680711    -1.506287608365     0.447405651315
    H           -1.058587810094    -1.461482760352    -1.307504626892
    N           -0.831534464216     0.402749910391    -0.437751454838
    H           -0.328638053796     2.121580604126     0.600075135886
    H           -0.523877698859     0.709093725905     1.627707975550
    C           -2.243791643700     0.692575610620    -0.449436456037
    H           -2.698538177041     0.289643457455    -1.345931072439
    H           -2.768946172744     0.273548543855     0.413819803091
    H           -2.401100526888     1.763833208859    -0.442785076936

  Mulliken Charges: (a.u.)
   Center  Symbol    Alpha    Beta     Spin     Total
       1     H     0.43996  0.43996  0.00000  0.12009
       2     N     3.64289  3.64289  0.00000 -0.28578
       3     C     3.04061  3.04061  0.00000 -0.08121
       4     C     3.04087  3.04087  0.00000 -0.08175
       5     H     0.45243  0.45243  0.00000  0.09514
       6     H     0.46531  0.46531  0.00000  0.06938
       7     C     3.03486  3.03486  0.00000 -0.06971
       8     H     0.45243  0.45243  0.00000  0.09514
       9     H     0.46535  0.46535  0.00000  0.06930
      10     C     3.03428  3.03428  0.00000 -0.06855
      11     H     0.46806  0.46806  0.00000  0.06389
      12     H     0.45414  0.45414  0.00000  0.09172
      13     N     3.61430  3.61430  0.00000 -0.22860
      14     H     0.45401  0.45401  0.00000  0.09199
      15     H     0.46863  0.46863  0.00000  0.06275
      16     C     3.09688  3.09688  0.00000 -0.19375
      17     H     0.45191  0.45191  0.00000  0.09618
      18     H     0.47043  0.47043  0.00000  0.05915
      19     H     0.45268  0.45268  0.00000  0.09465

   Total alpha = 28.00000, Total beta = 28.00000, Total charge = -0.00000

*** Psi4 exiting successfully. Buy a developer a beer!
