                              Psi4 1.0.54 Driver

  ==> Input File <==

--------------------------------------------------------------------------
set {
	reference rhf
	basis cc-pvtz
}

set_num_threads( 4 )
memory 2 gb

molecule MOL {
0 1

H	 -3.144994	 -1.202467	 -0.018751
O	 -2.321472	 -0.864941	 -0.318626
C	 -2.021813	 0.336996	 0.342658
C	 -0.669613	 0.837286	 -0.127252
H	 -2.780861	 1.084746	 0.127159
H	 -2.006390	 0.184138	 1.420053
C	 0.490865	 -0.082543	 0.241244
H	 -0.708709	 0.967192	 -1.204587
H	 -0.507562	 1.822272	 0.303070
C	 1.839800	 0.429565	 -0.255472
H	 0.305636	 -1.070211	 -0.165276
H	 0.527397	 -0.195943	 1.322876
C	 1.712449	 1.546874	 -1.285612
H	 2.420879	 0.785786	 0.590789
H	 2.403541	 -0.394072	 -0.686178
H	 1.183619	 2.399563	 -0.873089
H	 2.686115	 1.889847	 -1.616743
H	 1.164834	 1.212129	 -2.160546

	symmetry c1
}
set optking {
	frozen_dihedral = ("
		14 10 7 11
	")
}

ee,wfn = optimize('scf', return_wfn=True)
oeprop( wfn, 'DIPOLE', 'QUADRUPOLE', 'MULLIKEN_CHARGES')
f=open( 'psi4out.xyz', 'w' )
f.write( "18  " )
f.write( str(ee) + "\n" )
f.write( MOL.save_string_xyz() )
f.close()
--------------------------------------------------------------------------

    Molecular point group: c1
  Charge       = 0
  Multiplicity = 1
  Basis Set: CC-PVTZ
  Basis Set:
  @DF-RHF Final Energy:  -271.27383448294108
    Total Energy =                       -271.2738344829411972
    Molecular point group: c1
  Basis Set: CC-PVTZ
  Basis Set:
  Basis Set: CC-PVTZ
  Basis Set:
  @DF-RHF Final Energy:  -271.27294395360690
    Total Energy =                       -271.2729439536068980
  Basis Set: CC-PVTZ
  Basis Set:
  Basis Set: CC-PVTZ
  Basis Set:
  @DF-RHF Final Energy:  -271.27778724300924
    Total Energy =                       -271.2777872430092998
  Basis Set: CC-PVTZ
  Basis Set:
  Basis Set: CC-PVTZ
  Basis Set:
  @DF-RHF Final Energy:  -271.27815405344910
    Total Energy =                       -271.2781540534491569
  Basis Set: CC-PVTZ
  Basis Set:
  Basis Set: CC-PVTZ
  Basis Set:
  @DF-RHF Final Energy:  -271.27820116443934
    Total Energy =                       -271.2782011644392242
  Basis Set: CC-PVTZ
  Basis Set:
  Basis Set: CC-PVTZ
  Basis Set:
  @DF-RHF Final Energy:  -271.27820475553847
    Total Energy =                       -271.2782047555385816
  Basis Set: CC-PVTZ
  Basis Set:
  Charge       = 0
  Multiplicity = 1
  Basis Set: CC-PVTZ
  Basis Set:

    Orbital Energies (a.u.)
    -----------------------

    Doubly Occupied:

       1A    -20.545996     2A    -11.265708     3A    -11.210174
       4A    -11.209536     5A    -11.205152     6A    -11.203127
       7A     -1.363899     8A     -1.072963     9A     -1.006605
      10A     -0.916427    11A     -0.834856    12A     -0.766124
      13A     -0.707794    14A     -0.641609    15A     -0.619375
      16A     -0.602557    17A     -0.561120    18A     -0.552638
      19A     -0.530529    20A     -0.510350    21A     -0.490726
      22A     -0.465814    23A     -0.451038    24A     -0.444020
      25A     -0.429858

  @DF-RHF Final Energy:  -271.27820519640386

   => Energetics <=

    Nuclear Repulsion Energy =            252.2135690172478633
    One-Electron Energy =                -867.7675554509211224
    Two-Electron Energy =                 344.2757812372690864
    DFT Exchange-Correlation Energy =       0.0000000000000000
    Empirical Dispersion Energy =           0.0000000000000000
    PCM Polarization Energy =               0.0000000000000000
    EFP Energy =                            0.0000000000000000
    Total Energy =                       -271.2782051964041443
    Molecular point group: c1
  Basis Set: CC-PVTZ
  Basis Set:

  -Total Gradient:
     Atom            X                  Y                   Z
    ------   -----------------  -----------------  -----------------
       1       -0.000000998814    -0.000002480377     0.000003768225
       2        0.000023966489    -0.000007845182     0.000015154621
       3       -0.000027190531     0.000029816932    -0.000044010797
       4        0.000012136293     0.000009942357     0.000072805726
       5       -0.000008164444    -0.000001255650     0.000005570125
       6        0.000002437931    -0.000005635236    -0.000015781327
       7       -0.002191316576     0.001567707815    -0.005151752488
       8        0.000015084980     0.000003593697    -0.000009334598
       9       -0.000008904766    -0.000004706278     0.000011821031
      10       -0.001881129612     0.005412178888     0.000092446350
      11        0.002136412096    -0.002189633150     0.004316978251
      12       -0.000015004200     0.000005934266    -0.000011514864
      13        0.000008666508    -0.000004521324    -0.000015804496
      14        0.001945353040    -0.004823329215     0.000741164625
      15        0.000004088966     0.000013235929    -0.000008294278
      16       -0.000001710989    -0.000007579964    -0.000003054879
      17       -0.000019771536     0.000004947041     0.000003550260
      18        0.000006045169    -0.000000370549    -0.000003711489

  **** Optimization is complete! (in 7 steps) ****
    Final optimized geometry and variables:
    Molecular point group: c1

    Geometry (in Angstrom), charge = 0, multiplicity = 1:

    H           -2.942812419751    -1.582322594195     0.255724234857
    O           -2.137548194694    -1.216644662184    -0.060051801593
    C           -1.841309640371    -0.030961412344     0.631413043458
    C           -0.520416340867     0.520742738592     0.128932711931
    H           -2.625372444937     0.704508085102     0.469833296038
    H           -1.782072606791    -0.220076235120     1.701412620682
    C            0.663872944118    -0.392006254628     0.437485750897
    H           -0.609974472136     0.687079824678    -0.938237326939
    H           -0.371446475804     1.493442587342     0.589693562141
    C            2.061496674664     0.105618973874    -0.003413706950
    H            0.482777539866    -1.377895016004     0.029639172842
    H            0.691203899347    -0.544627462899     1.513647355999
    C            2.109844073094     1.155254919218    -1.110420375203
    H            2.608259478842     0.459280284476     0.864773218908
    H            2.626972125340    -0.757547526307    -0.340892571524
    H            1.622542947010     2.078667067776    -0.821583223387
    H            3.139335238488     1.392080306581    -1.353852985282
    H            1.633633799037     0.799243900589    -2.017234623557

  Mulliken Charges: (a.u.)
   Center  Symbol    Alpha    Beta     Spin     Total
       1     H     0.39562  0.39562  0.00000  0.20876
       2     O     4.19875  4.19875  0.00000 -0.39750
       3     C     2.97549  2.97549  0.00000  0.04901
       4     C     3.09282  3.09282  0.00000 -0.18564
       5     H     0.46504  0.46504  0.00000  0.06992
       6     H     0.47331  0.47331  0.00000  0.05339
       7     C     3.09615  3.09615  0.00000 -0.19229
       8     H     0.44950  0.44950  0.00000  0.10101
       9     H     0.45278  0.45278  0.00000  0.09444
      10     C     3.08787  3.08787  0.00000 -0.17573
      11     H     0.44190  0.44190  0.00000  0.11620
      12     H     0.45744  0.45744  0.00000  0.08512
      13     C     3.15682  3.15682  0.00000 -0.31365
      14     H     0.45310  0.45310  0.00000  0.09380
      15     H     0.45233  0.45233  0.00000  0.09534
      16     H     0.45378  0.45378  0.00000  0.09243
      17     H     0.44558  0.44558  0.00000  0.10883
      18     H     0.45172  0.45172  0.00000  0.09655

   Total alpha = 25.00000, Total beta = 25.00000, Total charge =  0.00000

*** Psi4 exiting successfully. Buy a developer a beer!
