  ==> Input File <==

--------------------------------------------------------------------------
set {
	reference rhf
	basis 6-31G*
}

set_num_threads( 4 )
memory 2 gb

molecule MOL {
0 1

O	 3.537480	 0.247285	 0.966359
C	 2.843464	 0.164689	 -0.000222
C	 1.546494	 -0.624492	 -0.000609
C	 3.216101	 0.848241	 -1.299858
C	 0.291004	 0.242674	 0.000989
H	 1.557904	 -1.283758	 -0.867573
H	 1.558622	 -1.285963	 0.864672
C	 -0.994322	 -0.586602	 0.000262
H	 0.309117	 0.896430	 -0.865270
H	 0.309661	 0.894078	 0.869017
C	 -2.259874	 0.272531	 0.000494
H	 -1.004862	 -1.240012	 -0.870939
H	 -1.005220	 -1.241071	 0.870675
C	 -3.549786	 -0.549746	 -0.000374
H	 -2.250389	 0.926680	 -0.869574
H	 -2.250838	 0.925513	 0.871430
C	 -4.809590	 0.315458	 -0.000369
H	 -3.560515	 -1.202009	 -0.871156
H	 -3.561123	 -1.202955	 0.869711
H	 -4.844746	 0.956611	 -0.876632
H	 -5.706986	 -0.295590	 -0.001609
H	 -4.845960	 0.954827	 0.877144
H	 2.439821	 1.547567	 -1.596423
H	 4.151280	 1.377044	 -1.178854
H	 3.313427	 0.117656	 -2.097609

	symmetry c1
}
set optking {
	frozen_dihedral = ("
		1 2 3 6
	")
}

ee = optimize('scf')
oeprop('DIPOLE', 'QUADRUPOLE', 'MULLIKEN_CHARGES')
f=open( 'psi4out.xyz', 'w' )
f.write( "25  " )
f.write( str(ee) + "\n" )
f.write( MOL.save_string_xyz() )
f.close()
--------------------------------------------------------------------------

    Molecular point group: c1
  Charge       = 0
  Multiplicity = 1
  Basis Set: 6-31G*
  Basis Set:
  @DF-RHF Final Energy:  -387.13354220862942
    Total Energy =                       -387.1335422086297058
    Molecular point group: c1
  Basis Set: 6-31G*
  Basis Set:
  Basis Set: 6-31G*
  Basis Set:
  @DF-RHF Final Energy:  -387.13376025797618
    Total Energy =                       -387.1337602579761779
  Basis Set: 6-31G*
  Basis Set:
  Basis Set: 6-31G*
  Basis Set:
  @DF-RHF Final Energy:  -387.13405980641943
    Total Energy =                       -387.1340598064193728
  Basis Set: 6-31G*
  Basis Set:
  Basis Set: 6-31G*
  Basis Set:
  @DF-RHF Final Energy:  -387.13411227136049
    Total Energy =                       -387.1341122713610048
  Basis Set: 6-31G*
  Basis Set:
  Charge       = 0
  Multiplicity = 1
  Basis Set: 6-31G*
  Basis Set:

    Orbital Energies (a.u.)
    -----------------------

    Doubly Occupied:

       1A    -20.548002     2A    -11.324016     3A    -11.232528
       4A    -11.229206     5A    -11.227137     6A    -11.223730
       7A    -11.219963     8A    -11.219347     9A    -11.211954
      10A     -1.393019    11A     -1.100708    12A     -1.060368
      13A     -1.011573    14A     -0.970775    15A     -0.896152
      16A     -0.820276    17A     -0.796942    18A     -0.732443
      19A     -0.668623    20A     -0.647342    21A     -0.638007
      22A     -0.612184    23A     -0.605614    24A     -0.588102
      25A     -0.565696    26A     -0.559069    27A     -0.543442
      28A     -0.537226    29A     -0.509637    30A     -0.502095
      31A     -0.487804    32A     -0.480026    33A     -0.469113
      34A     -0.468251    35A     -0.455364    36A     -0.395928

  @DF-RHF Final Energy:  -387.13411178329449

   => Energetics <=

    Nuclear Repulsion Energy =            438.7279473248440240
    One-Electron Energy =               -1393.8207937089716779
    Two-Electron Energy =                 567.9587346008333952
    DFT Exchange-Correlation Energy =       0.0000000000000000
    Empirical Dispersion Energy =           0.0000000000000000
    PCM Polarization Energy =               0.0000000000000000
    EFP Energy =                            0.0000000000000000
    Total Energy =                       -387.1341117832942018
    Molecular point group: c1
  Basis Set: 6-31G*
  Basis Set:

  -Total Gradient:
     Atom            X                  Y                   Z
    ------   -----------------  -----------------  -----------------
       1        0.000331820329    -0.000409932326    -0.000146667020
       2       -0.000249710033     0.000447331207     0.000271508619
       3       -0.000327878035     0.000567426208    -0.000559141944
       4       -0.000092123105     0.000063914904     0.000054128274
       5        0.000031077129     0.000019306173     0.000087011481
       6        0.000304651275    -0.000434577190     0.000350366448
       7       -0.000020732339    -0.000098185758     0.000011181641
       8        0.000005631653     0.000005388125    -0.000057637120
       9        0.000094811466    -0.000087088380     0.000053642953
      10       -0.000020391858     0.000069665120    -0.000083267119
      11        0.000005310738    -0.000030723733     0.000039985834
      12       -0.000033549646     0.000019212444    -0.000040107864
      13       -0.000014295860    -0.000056890987    -0.000023512520
      14       -0.000011847079     0.000019402629     0.000038858064
      15        0.000004215896    -0.000038795153    -0.000001458718
      16        0.000004434216     0.000032778410    -0.000017709441
      17       -0.000012084618    -0.000011507145     0.000018448802
      18        0.000005288479     0.000014551079    -0.000002264322
      19       -0.000008508097    -0.000015316022     0.000001195997
      20        0.000005053168    -0.000003148577     0.000000782378
      21       -0.000011353668     0.000002485459     0.000001415520
      22       -0.000001524670     0.000002867044    -0.000001167761
      23       -0.000010985135    -0.000029730494    -0.000007509708
      24        0.000002763589    -0.000024683571     0.000011265871
      25        0.000019926203    -0.000023749467     0.000000651652

  **** Optimization is complete! (in 5 steps) ****
    Final optimized geometry and variables:
    Molecular point group: c1

    Geometry (in Angstrom), charge = 0, multiplicity = 1:

    O            3.522436049761     0.159229752244     1.039922606058
    C            2.865093428983     0.112242578511     0.044900267901
    C            1.576933639141    -0.690118610889    -0.008170487827
    C            3.290304941772     0.845082580201    -1.210834463981
    C            0.319664259632     0.192932611322    -0.031218122380
    H            1.589396051770    -1.331865806919    -0.886537802297
    H            1.564257432597    -1.326605875742     0.868621790920
    C           -0.969280392442    -0.629955011912     0.016666611288
    H            0.314601102754     0.811407686640    -0.924991873643
    H            0.347509406963     0.871960514895     0.817555853129
    C           -2.232150769201     0.233080772430     0.012509679873
    H           -0.993565323203    -1.309683995378    -0.833337079482
    H           -0.962026151684    -1.254439467047     0.907566581816
    C           -3.522880078363    -0.585852056493     0.074066731262
    H           -2.243026308793     0.852612424913    -0.882805990201
    H           -2.201998018880     0.919062323262     0.857221810515
    C           -4.780847261488     0.281931086531     0.072104795621
    H           -3.555519283672    -1.270408522927    -0.770886644604
    H           -3.513446768933    -1.205328268327     0.968231312984
    H           -4.837243194813     0.888919968377    -0.827120229001
    H           -5.678527340964    -0.326823389385     0.116683624324
    H           -4.794589079702     0.954361792849     0.925164458277
    H            2.531804283654     1.556050190311    -1.522182068816
    H            4.218371803677     1.368068576886    -1.026852836477
    H            3.426596223692     0.141070491886    -2.026921585316

  Mulliken Charges: (a.u.)
   Center  Symbol    Alpha    Beta     Spin     Total
       1     O     4.26017  4.26017  0.00000 -0.52035
       2     C     2.73563  2.73563  0.00000  0.52873
       3     C     3.20255  3.20255  0.00000 -0.40509
       4     C     3.29015  3.29015  0.00000 -0.58031
       5     C     3.16427  3.16427  0.00000 -0.32854
       6     H     0.41509  0.41509  0.00000  0.16982
       7     H     0.39964  0.39964  0.00000  0.20071
       8     C     3.15185  3.15185  0.00000 -0.30370
       9     H     0.41985  0.41985  0.00000  0.16029
      10     H     0.41148  0.41148  0.00000  0.17703
      11     C     3.15163  3.15163  0.00000 -0.30326
      12     H     0.42242  0.42242  0.00000  0.15517
      13     H     0.41919  0.41919  0.00000  0.16162
      14     C     3.15199  3.15199  0.00000 -0.30398
      15     H     0.42385  0.42385  0.00000  0.15230
      16     H     0.42191  0.42191  0.00000  0.15618
      17     C     3.23959  3.23959  0.00000 -0.47918
      18     H     0.42284  0.42284  0.00000  0.15433
      19     H     0.42186  0.42186  0.00000  0.15629
      20     H     0.42170  0.42170  0.00000  0.15660
      21     H     0.41847  0.41847  0.00000  0.16305
      22     H     0.42100  0.42100  0.00000  0.15799
      23     H     0.40732  0.40732  0.00000  0.18536
      24     H     0.39643  0.39643  0.00000  0.20715
      25     H     0.40911  0.40911  0.00000  0.18178

   Total alpha = 36.00000, Total beta = 36.00000, Total charge = -0.00000
