  ==> Input File <==

--------------------------------------------------------------------------
set {
	reference rhf
	basis 6-31G*
}

set_num_threads( 4 )
memory 2 gb

molecule MOL {
0 1

H	 2.631266	 -0.646533	 0.693629
O	 2.016064	 -0.864478	 0.000222
C	 1.050492	 0.053836	 0.000068
C	 -0.318135	 -0.576402	 0.000164
O	 1.285279	 1.218255	 -0.000078
C	 -1.454360	 0.441875	 -0.000474
H	 -0.374042	 -1.230163	 -0.866135
H	 -0.374274	 -1.229227	 0.867154
C	 -2.826123	 -0.230780	 0.000056
H	 -1.357605	 1.085198	 -0.868380
H	 -1.357504	 1.086451	 0.866496
H	 -2.959731	 -0.858053	 -0.876869
H	 -3.619374	 0.509403	 -0.000080
H	 -2.959371	 -0.857318	 0.877556

	symmetry c1
}
set optking {
	frozen_dihedral = ("
		1 2 3 5
	")
}

ee = optimize('scf')
oeprop('DIPOLE', 'QUADRUPOLE', 'MULLIKEN_CHARGES')
f=open( 'psi4out.xyz', 'w' )
f.write( "14  " )
f.write( str(ee) + "\n" )
f.write( MOL.save_string_xyz() )
f.close()
--------------------------------------------------------------------------

    Molecular point group: c1
  Charge       = 0
  Multiplicity = 1
  Basis Set: 6-31G*
  Basis Set:
  @DF-RHF Final Energy:  -305.86804426184142
    Total Energy =                       -305.8680442618415327
    Molecular point group: c1
  Basis Set: 6-31G*
  Basis Set:
  Basis Set: 6-31G*
  Basis Set:
  @DF-RHF Final Energy:  -305.86617332890393
    Total Energy =                       -305.8661733289037556
  Basis Set: 6-31G*
  Basis Set:
  Basis Set: 6-31G*
  Basis Set:
  @DF-RHF Final Energy:  -305.86909104643269
    Total Energy =                       -305.8690910464326862
  Basis Set: 6-31G*
  Basis Set:
  Basis Set: 6-31G*
  Basis Set:
  @DF-RHF Final Energy:  -305.86918694125359
    Total Energy =                       -305.8691869412533606
  Basis Set: 6-31G*
  Basis Set:
  @DF-RHF Final Energy:  -305.86919309886343
    Total Energy =                       -305.8691930988634340
  @DF-RHF Final Energy:  -305.86919433526577
    Total Energy =                       -305.8691943352658882
  @DF-RHF Final Energy:  -305.86919353603093
    Total Energy =                       -305.8691935360310481
  @DF-RHF Final Energy:  -305.86917449772068
    Total Energy =                       -305.8691744977204507
  @DF-RHF Final Energy:  -305.86917771655283
    Total Energy =                       -305.8691777165530539
  @DF-RHF Final Energy:  -305.84699352267523
    Total Energy =                       -305.8469935226750067
  @DF-RHF Final Energy:  -305.86416516267650
    Total Energy =                       -305.8641651626763860
  @DF-RHF Final Energy:  -305.86905805111434
    Total Energy =                       -305.8690580511143366
  @DF-RHF Final Energy:  -305.86918412586431
    Total Energy =                       -305.8691841258642512
  @DF-RHF Final Energy:  -305.86918789170591
    Total Energy =                       -305.8691878917059057
  Basis Set: 6-31G*
  Basis Set:
  @DF-RHF Final Energy:  -305.86918994142735
    Total Energy =                       -305.8691899414273507
  Basis Set: 6-31G*
  Basis Set:
  Basis Set: 6-31G*
  Basis Set:
  @DF-RHF Final Energy:  -305.86919162548406
    Total Energy =                       -305.8691916254841772
  Basis Set: 6-31G*
  Basis Set:
  Basis Set: 6-31G*
  Basis Set:
  @DF-RHF Final Energy:  -305.86919316785941
    Total Energy =                       -305.8691931678594074
  Basis Set: 6-31G*
  Basis Set:
  Charge       = 0
  Multiplicity = 1
  Basis Set: 6-31G*
  Basis Set:

    Orbital Energies (a.u.)
    -----------------------

    Doubly Occupied:

       1A    -20.602865     2A    -20.557736     3A    -11.381881
       4A    -11.240880     5A    -11.225337     6A    -11.217156
       7A     -1.465826     8A     -1.367309     9A     -1.082293
      10A     -0.977754    11A     -0.854670    12A     -0.792757
      13A     -0.704293    14A     -0.682768    15A     -0.662817
      16A     -0.625525    17A     -0.579090    18A     -0.566656
      19A     -0.545018    20A     -0.504458    21A     -0.493204
      22A     -0.482221    23A     -0.480097    24A     -0.444281

  @DF-RHF Final Energy:  -305.86919404031755

   => Energetics <=

    Nuclear Repulsion Energy =            239.4996562942421008
    One-Electron Energy =                -891.6639235463205750
    Two-Electron Energy =                 346.2950732117609505
    DFT Exchange-Correlation Energy =       0.0000000000000000
    Empirical Dispersion Energy =           0.0000000000000000
    PCM Polarization Energy =               0.0000000000000000
    EFP Energy =                            0.0000000000000000
    Total Energy =                       -305.8691940403175522
    Molecular point group: c1
  Basis Set: 6-31G*
  Basis Set:

  -Total Gradient:
     Atom            X                  Y                   Z
    ------   -----------------  -----------------  -----------------
       1       -0.005489850197    -0.007007630260     0.007962193768
       2        0.006552476726     0.008769852881    -0.014946678507
       3       -0.000185860320    -0.002209767785     0.017530582549
       4        0.000037198601    -0.000060821917    -0.000010356130
       5       -0.000962779313     0.000485340664    -0.010556257615
       6        0.000017316680     0.000014143392    -0.000026582174
       7        0.000023890620    -0.000010570465     0.000016036060
       8       -0.000016751838     0.000014569097     0.000015033827
       9        0.000017533331    -0.000001429947     0.000007992224
      10        0.000004711992     0.000001562672     0.000004303298
      11       -0.000006174704     0.000014810324     0.000003139739
      12        0.000000130529    -0.000002448849    -0.000003394222
      13        0.000014156068     0.000000031927     0.000001318367
      14       -0.000005998179    -0.000007641731     0.000002668815

  **** Optimization is complete! (in 18 steps) ****
    Final optimized geometry and variables:
    Molecular point group: c1

    Geometry (in Angstrom), charge = 0, multiplicity = 1:

    H            2.726651862573    -0.698784357520     0.531617787651
    O            2.029808084189    -0.860003146763    -0.094189293782
    C            1.052549245703     0.061207599945     0.042252870560
    C           -0.315924067113    -0.568475724568     0.019350992553
    O            1.277212247404     1.222911210551     0.072673304208
    C           -1.456614517488     0.443216091248    -0.024153700483
    H           -0.346368262546    -1.239177045589    -0.835132052684
    H           -0.390464046207    -1.209045469222     0.895304533772
    C           -2.825453036212    -0.235253604229    -0.041136472136
    H           -1.343676389457     1.070519187194    -0.902053036292
    H           -1.381691767132     1.104859261909     0.832113241940
    H           -2.936946822701    -0.879711863254    -0.908579502474
    H           -3.621577564724     0.501152815141    -0.072951558331
    H           -2.975764549362    -0.845645905857     0.845047210489

  Mulliken Charges: (a.u.)
   Center  Symbol    Alpha    Beta     Spin     Total
       1     H     0.26632  0.26632  0.00000  0.46737
       2     O     4.36144  4.36144  0.00000 -0.72288
       3     C     2.62877  2.62877  0.00000  0.74245
       4     C     3.20899  3.20899  0.00000 -0.41797
       5     O     4.26079  4.26079  0.00000 -0.52157
       6     C     3.15264  3.15264  0.00000 -0.30529
       7     H     0.39744  0.39744  0.00000  0.20512
       8     H     0.40353  0.40353  0.00000  0.19293
       9     C     3.24278  3.24278  0.00000 -0.48557
      10     H     0.41017  0.41017  0.00000  0.17966
      11     H     0.41069  0.41069  0.00000  0.17862
      12     H     0.42050  0.42050  0.00000  0.15900
      13     H     0.41450  0.41450  0.00000  0.17100
      14     H     0.42142  0.42142  0.00000  0.15716

   Total alpha = 24.00000, Total beta = 24.00000, Total charge =  0.00000
