  ==> Input File <==

--------------------------------------------------------------------------
set {
	reference rhf
	basis 6-31G*
}

set_num_threads( 4 )
memory 2 gb

molecule MOL {
0 1

O	 1.846825	 1.296220	 0.000415
C	 1.705091	 0.115954	 0.001797
C	 0.381791	 -0.609817	 0.001258
O	 2.721346	 -0.737485	 -0.000216
C	 -0.823008	 0.326187	 0.001381
H	 0.371250	 -1.265087	 -0.865474
H	 0.370908	 -1.265746	 0.867490
C	 -1.530566	 0.361304	 1.356811
H	 -1.519193	 0.013001	 -0.770259
H	 -0.499451	 1.325620	 -0.272031
C	 -2.742244	 1.294781	 1.374574
H	 -1.849402	 -0.644347	 1.627008
H	 -0.826633	 0.673758	 2.126702
C	 -3.448074	 1.330381	 2.729487
H	 -3.447608	 0.982438	 0.607734
H	 -2.425214	 2.299941	 1.105718
H	 -3.807812	 0.344576	 3.010542
H	 -4.301896	 2.000508	 2.710281
H	 -2.777091	 1.672142	 3.512616
C	 4.024888	 -0.184556	 -0.001949
H	 4.179030	 0.422472	 -0.882452
H	 4.701782	 -1.024608	 -0.003642
H	 4.181981	 0.421185	 0.878906

	symmetry c1
}
set optking {
	frozen_dihedral = ("
		9 5 3 6
	")
}

ee = optimize('scf')
oeprop('DIPOLE', 'QUADRUPOLE', 'MULLIKEN_CHARGES')
f=open( 'psi4out.xyz', 'w' )
f.write( "23  " )
f.write( str(ee) + "\n" )
f.write( MOL.save_string_xyz() )
f.close()
--------------------------------------------------------------------------

    Molecular point group: c1
  Charge       = 0
  Multiplicity = 1
  Basis Set: 6-31G*
  Basis Set:
  @DF-RHF Final Energy:  -422.97217776051184
    Total Energy =                       -422.9721777605118405
    Molecular point group: c1
  Basis Set: 6-31G*
  Basis Set:
  Basis Set: 6-31G*
  Basis Set:
  @DF-RHF Final Energy:  -422.97238961591262
    Total Energy =                       -422.9723896159121068
  Basis Set: 6-31G*
  Basis Set:
  Basis Set: 6-31G*
  Basis Set:
  @DF-RHF Final Energy:  -422.97237018904883
    Total Energy =                       -422.9723701890493430
  Basis Set: 6-31G*
  Basis Set:
  Basis Set: 6-31G*
  Basis Set:
  @DF-RHF Final Energy:  -422.97256539749935
    Total Energy =                       -422.9725653974998067
  Basis Set: 6-31G*
  Basis Set:
  @DF-RHF Final Energy:  -422.97257062995237
    Total Energy =                       -422.9725706299515195
  Basis Set: 6-31G*
  Basis Set:
  @DF-RHF Final Energy:  -422.97257368652788
    Total Energy =                       -422.9725736865274257
  Basis Set: 6-31G*
  Basis Set:
  Basis Set: 6-31G*
  Basis Set:
  @DF-RHF Final Energy:  -422.97257602649353
    Total Energy =                       -422.9725760264927885
  Basis Set: 6-31G*
  Basis Set:
  Basis Set: 6-31G*
  Basis Set:
  @DF-RHF Final Energy:  -422.97257736270473
    Total Energy =                       -422.9725773627050103
  Basis Set: 6-31G*
  Basis Set:
  Charge       = 0
  Multiplicity = 1
  Basis Set: 6-31G*
  Basis Set:

    Orbital Energies (a.u.)
    -----------------------

    Doubly Occupied:

       1A    -20.604193     2A    -20.546307     3A    -11.373272
       4A    -11.281231     5A    -11.235204     6A    -11.217633
       7A    -11.215289     8A    -11.214129     9A    -11.207673
      10A     -1.470126    11A     -1.363421    12A     -1.090313
      13A     -1.041880    14A     -0.986344    15A     -0.930941
      16A     -0.843927    17A     -0.794314    18A     -0.766870
      19A     -0.702793    20A     -0.680699    21A     -0.672203
      22A     -0.640815    23A     -0.611702    24A     -0.599016
      25A     -0.569882    26A     -0.556864    27A     -0.554383
      28A     -0.530428    29A     -0.523256    30A     -0.498528
      31A     -0.488168    32A     -0.466895    33A     -0.463348
      34A     -0.456642    35A     -0.452501    36A     -0.439215

  @DF-RHF Final Energy:  -422.97257735183103

   => Energetics <=

    Nuclear Repulsion Energy =            457.0918093185776456
    One-Electron Energy =               -1481.9479641620118855
    Two-Electron Energy =                 601.8835774916035462
    DFT Exchange-Correlation Energy =       0.0000000000000000
    Empirical Dispersion Energy =           0.0000000000000000
    PCM Polarization Energy =               0.0000000000000000
    EFP Energy =                            0.0000000000000000
    Total Energy =                       -422.9725773518307506
    Molecular point group: c1
  Basis Set: 6-31G*
  Basis Set:

  -Total Gradient:
     Atom            X                  Y                   Z
    ------   -----------------  -----------------  -----------------
       1        0.000038326090    -0.000030380331    -0.000002060163
       2       -0.000031612995     0.000008108462    -0.000010866118
       3        0.002206731878     0.003087641856    -0.002438714545
       4        0.000022627927     0.000031204134    -0.000008423981
       5       -0.002002680575    -0.002795575162     0.002842471542
       6       -0.001527899000    -0.002089039121     0.001581854735
       7       -0.000015047413    -0.000003384618    -0.000000224340
       8        0.000012995112    -0.000005321769    -0.000005038423
       9        0.001306972936     0.001808516535    -0.001974304570
      10       -0.000000337502    -0.000001687024    -0.000009232904
      11       -0.000008206893    -0.000011332457     0.000000852058
      12       -0.000003110092     0.000003050407    -0.000006083179
      13       -0.000006436894    -0.000004881290     0.000016346951
      14        0.000002206354     0.000009310000     0.000003128417
      15       -0.000003158017    -0.000003765452     0.000006035082
      16        0.000000635782    -0.000005291183    -0.000009409685
      17       -0.000001103250     0.000002509491    -0.000002563946
      18        0.000001232887     0.000004588114     0.000003763120
      19        0.000000470820    -0.000002968410     0.000002973626
      20       -0.000001031526    -0.000007850008     0.000017950746
      21       -0.000003347526     0.000001081747    -0.000004710675
      22        0.000005081154     0.000003854621    -0.000002356277
      23        0.000006690733     0.000001611462    -0.000001387469

  **** Optimization is complete! (in 9 steps) ****
    Final optimized geometry and variables:
    Molecular point group: c1

    Geometry (in Angstrom), charge = 0, multiplicity = 1:

    O            1.576607687743     0.937893735160    -0.499956447833
    C            1.432695692253    -0.238368955542    -0.594709455429
    C            0.112544119343    -0.971223464528    -0.634472004581
    O            2.448682062495    -1.088635763546    -0.666433246298
    C           -1.123217981295    -0.059476864670    -0.619970296505
    H            0.121928656240    -1.631564945308    -1.495147767625
    H            0.112446993208    -1.641006141750     0.222059527336
    C           -1.819435200282    -0.000107744688     0.740203150524
    H           -1.821028262104    -0.389664264634    -1.384207286485
    H           -0.820621179632     0.940850285381    -0.906499423052
    C           -3.029191612375     0.934645045384     0.753755473156
    H           -2.134432129393    -1.000994580786     1.032251815824
    H           -1.102689880657     0.328493309939     1.490720531908
    C           -3.721324840921     0.994853867815     2.114961855068
    H           -3.743447430575     0.609931797285    -0.000226637620
    H           -2.712668664987     1.934122308834     0.464785183076
    H           -4.080028862821     0.014728653713     2.416847811237
    H           -4.574042806027     1.666336548225     2.093100062486
    H           -3.041374365144     1.348878358822     2.884599340836
    C            3.752611143740    -0.538051783902    -0.623137204633
    H            3.906549705472     0.139597073872    -1.450485412458
    H            4.428902116952    -1.375551667932    -0.694899692691
    H            3.910543219878    -0.007620486664     0.304876064680

  Mulliken Charges: (a.u.)
   Center  Symbol    Alpha    Beta     Spin     Total
       1     O     4.28558  4.28558  0.00000 -0.57117
       2     C     2.61038  2.61038  0.00000  0.77925
       3     C     3.21120  3.21120  0.00000 -0.42241
       4     O     4.30568  4.30568  0.00000 -0.61136
       5     C     3.16089  3.16089  0.00000 -0.32178
       6     H     0.39689  0.39689  0.00000  0.20621
       7     H     0.39844  0.39844  0.00000  0.20313
       8     C     3.15397  3.15397  0.00000 -0.30795
       9     H     0.41916  0.41916  0.00000  0.16167
      10     H     0.39774  0.39774  0.00000  0.20452
      11     C     3.15290  3.15290  0.00000 -0.30581
      12     H     0.42507  0.42507  0.00000  0.14987
      13     H     0.41891  0.41891  0.00000  0.16218
      14     C     3.23953  3.23953  0.00000 -0.47906
      15     H     0.42353  0.42353  0.00000  0.15294
      16     H     0.41923  0.41923  0.00000  0.16154
      17     H     0.42251  0.42251  0.00000  0.15499
      18     H     0.41905  0.41905  0.00000  0.16191
      19     H     0.42077  0.42077  0.00000  0.15846
      20     C     3.09213  3.09213  0.00000 -0.18427
      21     H     0.40888  0.40888  0.00000  0.18224
      22     H     0.40841  0.40841  0.00000  0.18317
      23     H     0.40914  0.40914  0.00000  0.18172

   Total alpha = 36.00000, Total beta = 36.00000, Total charge =  0.00000
