  ==> Input File <==

--------------------------------------------------------------------------
set {
	reference rhf
	basis 6-31G*
}

set_num_threads( 4 )
memory 2 gb

molecule MOL {
0 1

H	 5.268524	 0.192471	 1.070992
C	 4.673736	 -0.214914	 0.259335
C	 3.185378	 -0.203514	 0.605509
H	 4.871837	 0.380453	 -0.627026
H	 5.025590	 -1.224632	 0.065769
C	 2.317601	 -0.778379	 -0.516234
H	 2.874655	 0.814325	 0.817774
H	 3.023650	 -0.778480	 1.515976
C	 0.873802	 -1.055771	 -0.096990
H	 2.314779	 -0.096807	 -1.359498
H	 2.757659	 -1.710410	 -0.863665
C	 0.035344	 0.193877	 0.127978
H	 0.370236	 -1.631361	 -0.872160
H	 0.840726	 -1.674767	 0.796836
C	 -1.257880	 0.040545	 0.909499
O	 0.366169	 1.255964	 -0.306685
C	 -2.283091	 -0.881788	 0.233181
H	 -1.672460	 1.033701	 1.033914
H	 -1.020606	 -0.348294	 1.898028
C	 -3.608042	 -0.936107	 0.996179
H	 -2.466206	 -0.531887	 -0.780551
H	 -1.880971	 -1.887966	 0.147289
C	 -4.636709	 -1.850883	 0.332903
H	 -4.016045	 0.068330	 1.078039
H	 -3.423412	 -1.275823	 2.012988
H	 -4.866066	 -1.517060	 -0.674908
H	 -4.270900	 -2.871704	 0.267935
H	 -5.565061	 -1.867720	 0.894826

	symmetry c1
}
set optking {
	frozen_dihedral = ("
		10 6 3 2
	")
}

ee = optimize('scf')
oeprop('DIPOLE', 'QUADRUPOLE', 'MULLIKEN_CHARGES')
f=open( 'psi4out.xyz', 'w' )
f.write( "28  " )
f.write( str(ee) + "\n" )
f.write( MOL.save_string_xyz() )
f.close()
--------------------------------------------------------------------------

    Molecular point group: c1
  Charge       = 0
  Multiplicity = 1
  Basis Set: 6-31G*
  Basis Set:
  @DF-RHF Final Energy:  -426.16870637649993
    Total Energy =                       -426.1687063765002677
    Molecular point group: c1
  Basis Set: 6-31G*
  Basis Set:
  Basis Set: 6-31G*
  Basis Set:
  @DF-RHF Final Energy:  -426.16873604956368
    Total Energy =                       -426.1687360495637904
  Basis Set: 6-31G*
  Basis Set:
  Basis Set: 6-31G*
  Basis Set:
  @DF-RHF Final Energy:  -426.16788150161608
    Total Energy =                       -426.1678815016159660
  Basis Set: 6-31G*
  Basis Set:
  Basis Set: 6-31G*
  Basis Set:
  @DF-RHF Final Energy:  -426.16876543296314
    Total Energy =                       -426.1687654329631414
  Basis Set: 6-31G*
  Basis Set:
  @DF-RHF Final Energy:  -426.16876680176972
    Total Energy =                       -426.1687668017698343
  Basis Set: 6-31G*
  Basis Set:
  @DF-RHF Final Energy:  -426.16862544407206
    Total Energy =                       -426.1686254440724042
  Basis Set: 6-31G*
  Basis Set:
  Basis Set: 6-31G*
  Basis Set:
  @DF-RHF Final Energy:  -426.16877576355421
    Total Energy =                       -426.1687757635540947
  Basis Set: 6-31G*
  Basis Set:
  Basis Set: 6-31G*
  Basis Set:
  @DF-RHF Final Energy:  -426.16877683587791
    Total Energy =                       -426.1687768358781341
  Basis Set: 6-31G*
  Basis Set:
  Charge       = 0
  Multiplicity = 1
  Basis Set: 6-31G*
  Basis Set:

    Orbital Energies (a.u.)
    -----------------------

    Doubly Occupied:

       1A    -20.548078     2A    -11.322128     3A    -11.232421
       4A    -11.229759     5A    -11.228788     6A    -11.226112
       7A    -11.216576     8A    -11.216351     9A    -11.212088
      10A    -11.206249    11A     -1.393164    12A     -1.095169
      13A     -1.077233    14A     -1.022572    15A     -0.990778
      16A     -0.907339    17A     -0.873194    18A     -0.809254
      19A     -0.799882    20A     -0.722770    21A     -0.668696
      22A     -0.653199    23A     -0.628785    24A     -0.620050
      25A     -0.607976    26A     -0.586891    27A     -0.577697
      28A     -0.576064    29A     -0.542598    30A     -0.533627
      31A     -0.519431    32A     -0.505920    33A     -0.500048
      34A     -0.484981    35A     -0.479458    36A     -0.476118
      37A     -0.471796    38A     -0.464344    39A     -0.454984
      40A     -0.392139

  @DF-RHF Final Energy:  -426.16877728308339

   => Energetics <=

    Nuclear Repulsion Energy =            531.0363497154129391
    One-Electron Energy =               -1630.2608425699779673
    Two-Electron Energy =                 673.0557155714814144
    DFT Exchange-Correlation Energy =       0.0000000000000000
    Empirical Dispersion Energy =           0.0000000000000000
    PCM Polarization Energy =               0.0000000000000000
    EFP Energy =                            0.0000000000000000
    Total Energy =                       -426.1687772830837275
    Molecular point group: c1
  Basis Set: 6-31G*
  Basis Set:

  -Total Gradient:
     Atom            X                  Y                   Z
    ------   -----------------  -----------------  -----------------
       1       -0.000006179530     0.000004037413     0.000000465676
       2        0.000143793962    -0.001404902297     0.000614402611
       3       -0.000603004525     0.002157720241    -0.000674311990
       4        0.000001502372    -0.000005428737    -0.000002361362
       5        0.000001626936    -0.000002563830     0.000005935655
       6        0.002195413908    -0.001728020886    -0.000753424092
       7       -0.000000391634     0.000004123831    -0.000003556515
       8       -0.000010508327    -0.000006197413    -0.000004767449
       9        0.000011833799    -0.000010063236    -0.000008384788
      10       -0.001714326188     0.000980979335     0.000797647036
      11       -0.000001100051     0.000008234475     0.000006289415
      12        0.000020766843     0.000014290578     0.000014842129
      13        0.000017084478     0.000002316831     0.000001387431
      14       -0.000014357787     0.000003059710     0.000007504323
      15        0.000003013890    -0.000036830854    -0.000016323316
      16       -0.000008267349    -0.000002345840    -0.000006838171
      17       -0.000011575199    -0.000012244305     0.000029378421
      18       -0.000002237199    -0.000009996510    -0.000004612366
      19        0.000002077631     0.000000495711     0.000009376698
      20       -0.000013364317     0.000025403649    -0.000024492807
      21        0.000013825779     0.000025505363     0.000010980290
      22       -0.000025505205     0.000004928097    -0.000009050809
      23        0.000010029704    -0.000025452675     0.000019065312
      24       -0.000016642766     0.000002473950    -0.000013490294
      25        0.000003077209     0.000017286087    -0.000001254409
      26       -0.000000444992     0.000007914431     0.000009950342
      27        0.000000357048    -0.000004937624    -0.000010365083
      28        0.000003501507    -0.000009785498     0.000006008111

  **** Optimization is complete! (in 9 steps) ****
    Final optimized geometry and variables:
    Molecular point group: c1

    Geometry (in Angstrom), charge = 0, multiplicity = 1:

    H            5.279923643106     0.688372810527     0.817889636849
    C            4.696798688186     0.249845438459     0.014033963297
    C            3.206528292750     0.242199994917     0.352983788478
    H            4.891608893799     0.825403093675    -0.886506641595
    H            5.065941710588    -0.758418552777    -0.151655016817
    C            2.350473858681    -0.348593523708    -0.771106666610
    H            2.872955597501     1.251310502992     0.569015140111
    H            3.057485718569    -0.338922958060     1.262081016011
    C            0.902257275705    -0.621398925458    -0.361151258252
    H            2.343362044604     0.331225104492    -1.615829292282
    H            2.790850122849    -1.283766444770    -1.107950501725
    C            0.071153665270     0.631075062169    -0.125123368148
    H            0.398665075713    -1.183240510760    -1.146470456809
    H            0.860830770762    -1.251376457871     0.524417333181
    C           -1.220380999771     0.479849997500     0.659446668698
    O            0.405947989186     1.693909551513    -0.555087691417
    C           -2.252394947407    -0.432764720621    -0.019685287597
    H           -1.629400530046     1.474333651036     0.791319965781
    H           -0.982188253127     0.083516382151     1.644777804894
    C           -3.575346173147    -0.485175697115     0.746884577463
    H           -2.436625926517    -0.075317650670    -1.030558264988
    H           -1.855764018892    -1.440424068313    -0.113277781414
    C           -4.608336696965    -1.395675345386     0.084444944071
    H           -3.980389081585     0.520166507412     0.832283803055
    H           -3.388728952132    -0.827813377289     1.762355189473
    H           -4.840793425695    -1.058011872145    -0.921367378909
    H           -4.244834313236    -2.417002875134     0.014685377288
    H           -5.534617324890    -1.412541704501     0.649813343762

  Mulliken Charges: (a.u.)
   Center  Symbol    Alpha    Beta     Spin     Total
       1     H     0.41925  0.41925  0.00000  0.16150
       2     C     3.23999  3.23999  0.00000 -0.47997
       3     C     3.15770  3.15770  0.00000 -0.31540
       4     H     0.41949  0.41949  0.00000  0.16102
       5     H     0.42354  0.42354  0.00000  0.15292
       6     C     3.14898  3.14898  0.00000 -0.29795
       7     H     0.40763  0.40763  0.00000  0.18473
       8     H     0.42836  0.42836  0.00000  0.14327
       9     C     3.21222  3.21222  0.00000 -0.42444
      10     H     0.40642  0.40642  0.00000  0.18716
      11     H     0.42168  0.42168  0.00000  0.15664
      12     C     2.73143  2.73143  0.00000  0.53714
      13     H     0.40302  0.40302  0.00000  0.19396
      14     H     0.41337  0.41337  0.00000  0.17326
      15     C     3.20150  3.20150  0.00000 -0.40299
      16     O     4.26688  4.26688  0.00000 -0.53377
      17     C     3.16384  3.16384  0.00000 -0.32768
      18     H     0.39984  0.39984  0.00000  0.20033
      19     H     0.41286  0.41286  0.00000  0.17429
      20     C     3.15182  3.15182  0.00000 -0.30363
      21     H     0.41378  0.41378  0.00000  0.17244
      22     H     0.41859  0.41859  0.00000  0.16283
      23     C     3.24033  3.24033  0.00000 -0.48066
      24     H     0.41836  0.41836  0.00000  0.16328
      25     H     0.42144  0.42144  0.00000  0.15712
      26     H     0.41961  0.41961  0.00000  0.16078
      27     H     0.42120  0.42120  0.00000  0.15760
      28     H     0.41688  0.41688  0.00000  0.16624

   Total alpha = 40.00000, Total beta = 40.00000, Total charge = -0.00000
