                              Psi4 1.0.54 Driver

  ==> Input File <==

--------------------------------------------------------------------------
set {
	reference rhf
	basis cc-pvtz
}

set_num_threads( 4 )
memory 2 gb

molecule MOL {
0 1

H	 -3.162190	 0.493205	 -0.000107
C	 -2.363908	 -0.234727	 0.000005
O	 -1.158738	 0.454634	 -0.000087
H	 -2.464314	 -0.863616	 -0.882153
H	 -2.464327	 -0.863359	 0.882345
C	 -0.028611	 -0.359694	 0.000037
C	 1.212847	 0.509314	 -0.000053
H	 -0.034155	 -1.007047	 -0.877198
H	 -0.034195	 -1.006836	 0.877430
C	 1.013367	 1.809643	 -0.770575
H	 1.485566	 0.722161	 1.027685
H	 2.031296	 -0.057662	 -0.429741
H	 0.213788	 2.404590	 -0.341857
H	 1.914438	 2.410334	 -0.754404
H	 0.763463	 1.619565	 -1.809077

	symmetry c1
}
set optking {
	frozen_dihedral = ("
		11 7 6 8
	")
}

ee,wfn = optimize('scf', return_wfn=True)
oeprop( wfn, 'DIPOLE', 'QUADRUPOLE', 'MULLIKEN_CHARGES')
f=open( 'psi4out.xyz', 'w' )
f.write( "15  " )
f.write( str(ee) + "\n" )
f.write( MOL.save_string_xyz() )
f.close()
--------------------------------------------------------------------------

    Molecular point group: c1
  Charge       = 0
  Multiplicity = 1
  Basis Set: CC-PVTZ
  Basis Set:
  @DF-RHF Final Energy:  -232.22353485287931
    Total Energy =                       -232.2235348528793111
    Molecular point group: c1
  Basis Set: CC-PVTZ
  Basis Set:
  Basis Set: CC-PVTZ
  Basis Set:
  @DF-RHF Final Energy:  -232.22427210659023
    Total Energy =                       -232.2242721065904334
  Basis Set: CC-PVTZ
  Basis Set:
  Basis Set: CC-PVTZ
  Basis Set:
  @DF-RHF Final Energy:  -232.22487412162837
    Total Energy =                       -232.2248741216283747
  Basis Set: CC-PVTZ
  Basis Set:
  Basis Set: CC-PVTZ
  Basis Set:
  @DF-RHF Final Energy:  -232.22490092954231
    Total Energy =                       -232.2249009295425139
  Basis Set: CC-PVTZ
  Basis Set:
  Basis Set: CC-PVTZ
  Basis Set:
  @DF-RHF Final Energy:  -232.22490271778372
    Total Energy =                       -232.2249027177838911
  Basis Set: CC-PVTZ
  Basis Set:
  Charge       = 0
  Multiplicity = 1
  Basis Set: CC-PVTZ
  Basis Set:

    Orbital Energies (a.u.)
    -----------------------

    Doubly Occupied:

       1A    -20.548948     2A    -11.265089     3A    -11.262740
       4A    -11.213992     5A    -11.200762     6A     -1.383650
       7A     -1.052926     8A     -0.950962     9A     -0.890502
      10A     -0.795926    11A     -0.673296    12A     -0.661312
      13A     -0.636485    14A     -0.598811    15A     -0.558271
      16A     -0.543864    17A     -0.505980    18A     -0.485514
      19A     -0.473749    20A     -0.460669    21A     -0.414279

  @DF-RHF Final Energy:  -232.22490279290679

   => Energetics <=

    Nuclear Repulsion Energy =            193.3121380641040901
    One-Electron Energy =                -697.9186160963568000
    Two-Electron Energy =                 272.3815752393459775
    DFT Exchange-Correlation Energy =       0.0000000000000000
    Empirical Dispersion Energy =           0.0000000000000000
    PCM Polarization Energy =               0.0000000000000000
    EFP Energy =                            0.0000000000000000
    Total Energy =                       -232.2249027929067324
    Molecular point group: c1
  Basis Set: CC-PVTZ
  Basis Set:

  -Total Gradient:
     Atom            X                  Y                   Z
    ------   -----------------  -----------------  -----------------
       1       -0.000002142331     0.000003529347     0.000000240857
       2        0.000007745057     0.000003673751    -0.000002853474
       3       -0.000034478577     0.000027894233     0.000004768283
       4        0.000001561945    -0.000001362710    -0.000001666056
       5        0.000005019160     0.000000833313     0.000001507943
       6       -0.002728391582     0.004051431543    -0.003729385836
       7       -0.003520761580     0.004948237769     0.000679694607
       8        0.002862045482    -0.004198254806     0.002996013324
       9        0.000008531144     0.000001610079    -0.000002971491
      10        0.000002393223    -0.000006309665    -0.000009264427
      11        0.003403914788    -0.004830980676     0.000065174324
      12        0.000000766995    -0.000002572246    -0.000000569255
      13       -0.000002370867    -0.000001805833    -0.000003410701
      14       -0.000003540088    -0.000002600862     0.000001908135
      15       -0.000000292771     0.000006676763     0.000000813767

  **** Optimization is complete! (in 6 steps) ****
    Final optimized geometry and variables:
    Molecular point group: c1

    Geometry (in Angstrom), charge = 0, multiplicity = 1:

    H           -2.905291334866    -0.026815644009     0.224734135767
    C           -2.080548577408    -0.723507483347     0.183225018927
    O           -0.902059710456     0.010050107720     0.181535028172
    H           -2.176191765070    -1.325655373818    -0.717881840823
    H           -2.137450111759    -1.385022175923     1.045142406461
    C            0.253829027506    -0.761460837455     0.124129102196
    C            1.500383730813     0.115525980264     0.164004614826
    H            0.263308558177    -1.390678582787    -0.766188934309
    H            0.278015836336    -1.450223428993     0.968866232548
    C            1.399202786953     1.403205402154    -0.643715471483
    H            1.770797613856     0.318013957923     1.194895877978
    H            2.318417949770    -0.486129254509    -0.223961467044
    H            0.631024272618     2.053834846172    -0.250670897798
    H            2.342700480652     1.936453954237    -0.623478213242
    H            1.156567527071     1.194708208513    -1.680327810862

  Mulliken Charges: (a.u.)
   Center  Symbol    Alpha    Beta     Spin     Total
       1     H     0.44735  0.44735  0.00000  0.10530
       2     C     3.03064  3.03064  0.00000 -0.06129
       3     O     4.17192  4.17192  0.00000 -0.34383
       4     H     0.47176  0.47176  0.00000  0.05649
       5     H     0.47156  0.47156  0.00000  0.05688
       6     C     2.96997  2.96997  0.00000  0.06005
       7     C     3.08588  3.08588  0.00000 -0.17177
       8     H     0.47322  0.47322  0.00000  0.05355
       9     H     0.46907  0.46907  0.00000  0.06187
      10     C     3.14312  3.14312  0.00000 -0.28624
      11     H     0.45291  0.45291  0.00000  0.09418
      12     H     0.45745  0.45745  0.00000  0.08511
      13     H     0.44559  0.44559  0.00000  0.10882
      14     H     0.45234  0.45234  0.00000  0.09532
      15     H     0.45721  0.45721  0.00000  0.08558

   Total alpha = 21.00000, Total beta = 21.00000, Total charge = -0.00000

*** Psi4 exiting successfully. Buy a developer a beer!
