                              Psi4 1.0.54 Driver

  ==> Input File <==

--------------------------------------------------------------------------
set {
	reference rhf
	basis cc-pvtz
}

set_num_threads( 4 )
memory 2 gb

molecule MOL {
0 1

H	 1.128311	 0.207724	 1.465118
C	 1.134565	 0.093781	 0.372499
C	 0.062554	 0.862911	 -0.350953
O	 1.948932	 -0.587720	 -0.146651
C	 0.630839	 1.981444	 -1.229901
H	 -0.637508	 1.248162	 0.379109
H	 -0.465518	 0.148305	 -0.978291
C	 1.278410	 3.110136	 -0.432808
H	 -0.172869	 2.382204	 -1.836547
H	 1.353388	 1.561635	 -1.924255
H	 0.563547	 3.569383	 0.240705
H	 1.656550	 3.880555	 -1.093947
H	 2.108767	 2.753207	 0.166480

	symmetry c1
}
set optking {
	frozen_dihedral = ("
		6 3 2 4
	")
}

ee,wfn = optimize('scf', return_wfn=True)
oeprop( wfn, 'DIPOLE', 'QUADRUPOLE', 'MULLIKEN_CHARGES')
f=open( 'psi4out.xyz', 'w' )
f.write( "13  " )
f.write( str(ee) + "\n" )
f.write( MOL.save_string_xyz() )
f.close()
--------------------------------------------------------------------------

    Molecular point group: c1
  Charge       = 0
  Multiplicity = 1
  Basis Set: CC-PVTZ
  Basis Set:
  @DF-RHF Final Energy:  -231.06830245447037
    Total Energy =                       -231.0683024544704836
    Molecular point group: c1
  Basis Set: CC-PVTZ
  Basis Set:
  Basis Set: CC-PVTZ
  Basis Set:
  @DF-RHF Final Energy:  -231.06844652910814
    Total Energy =                       -231.0684465291082574
  Basis Set: CC-PVTZ
  Basis Set:
  Basis Set: CC-PVTZ
  Basis Set:
  @DF-RHF Final Energy:  -231.06796694911944
    Total Energy =                       -231.0679669491194375
  Basis Set: CC-PVTZ
  Basis Set:
  Basis Set: CC-PVTZ
  Basis Set:
  @DF-RHF Final Energy:  -231.06865169215732
    Total Energy =                       -231.0686516921576299
  Basis Set: CC-PVTZ
  Basis Set:
  Basis Set: CC-PVTZ
  Basis Set:
  @DF-RHF Final Energy:  -231.06866233981856
    Total Energy =                       -231.0686623398184167
  Basis Set: CC-PVTZ
  Basis Set:
  Charge       = 0
  Multiplicity = 1
  Basis Set: CC-PVTZ
  Basis Set:

    Orbital Energies (a.u.)
    -----------------------

    Doubly Occupied:

       1A    -20.552604     2A    -11.322309     3A    -11.234092
       4A    -11.231720     5A    -11.218857     6A     -1.407974
       7A     -1.082617     8A     -0.972197     9A     -0.854053
      10A     -0.773177    11A     -0.687857    12A     -0.643794
      13A     -0.620628    14A     -0.597577    15A     -0.559218
      16A     -0.537676    17A     -0.504931    18A     -0.489597
      19A     -0.480808    20A     -0.412195

  @DF-RHF Final Energy:  -231.06866328825856

   => Energetics <=

    Nuclear Repulsion Energy =            175.1800845322814553
    One-Electron Energy =                -660.1297368531901384
    Two-Electron Energy =                 253.8809890326500636
    DFT Exchange-Correlation Energy =       0.0000000000000000
    Empirical Dispersion Energy =           0.0000000000000000
    PCM Polarization Energy =               0.0000000000000000
    EFP Energy =                            0.0000000000000000
    Total Energy =                       -231.0686632882586196
    Molecular point group: c1
  Basis Set: CC-PVTZ
  Basis Set:

  -Total Gradient:
     Atom            X                  Y                   Z
    ------   -----------------  -----------------  -----------------
       1       -0.000027255354     0.000024794785    -0.000186690963
       2        0.000235421660     0.000170577665     0.000068054622
       3        0.000063692139     0.000241399148     0.000128110867
       4       -0.000212394534    -0.000147871750     0.000053683853
       5        0.000025412888    -0.000008345940    -0.000024597316
       6       -0.000142728285    -0.000257435741    -0.000022206241
       7        0.000039159727    -0.000013967081     0.000012356128
       8       -0.000029287432    -0.000053263529    -0.000025287007
       9        0.000017502348     0.000008358520    -0.000001641482
      10       -0.000002392475     0.000014754076    -0.000035007138
      11       -0.000022711382    -0.000003183509     0.000042348588
      12        0.000009072860     0.000035141335    -0.000047398641
      13        0.000046507844    -0.000010957982     0.000038274729

  **** Optimization is complete! (in 6 steps) ****
    Final optimized geometry and variables:
    Molecular point group: c1

    Geometry (in Angstrom), charge = 0, multiplicity = 1:

    H            0.097162892257    -0.915175777363     1.827312808623
    C            0.087467456610    -1.004778096835     0.735358526914
    C           -0.974985013163    -0.223453470547    -0.004194456608
    O            0.885431943311    -1.689250676832     0.193452393273
    C           -0.381056744773     0.895937136226    -0.867926739976
    H           -1.688881513167     0.181396170410     0.705023856689
    H           -1.499969664271    -0.927917229500    -0.639522287466
    C            0.299968870018     1.998285302518    -0.061808915250
    H           -1.179725283377     1.325776882713    -1.462005350870
    H            0.325565678508     0.457201902713    -1.561918205315
    H           -0.391154717876     2.458658329430     0.636722814158
    H            0.674854899808     2.775799945674    -0.716369838067
    H            1.142719158332     1.617225982360     0.504884179158

  Mulliken Charges: (a.u.)
   Center  Symbol    Alpha    Beta     Spin     Total
       1     H     0.45498  0.45498  0.00000  0.09003
       2     C     2.91421  2.91421  0.00000  0.17158
       3     C     3.09198  3.09198  0.00000 -0.18396
       4     O     4.16847  4.16847  0.00000 -0.33693
       5     C     3.08962  3.08962  0.00000 -0.17925
       6     H     0.44928  0.44928  0.00000  0.10145
       7     H     0.43829  0.43829  0.00000  0.12342
       8     C     3.15108  3.15108  0.00000 -0.30216
       9     H     0.44719  0.44719  0.00000  0.10562
      10     H     0.44313  0.44313  0.00000  0.11374
      11     H     0.45507  0.45507  0.00000  0.08986
      12     H     0.44505  0.44505  0.00000  0.10989
      13     H     0.45165  0.45165  0.00000  0.09670

   Total alpha = 20.00000, Total beta = 20.00000, Total charge = -0.00000

*** Psi4 exiting successfully. Buy a developer a beer!
