  ==> Input File <==

--------------------------------------------------------------------------
set {
	reference rhf
	basis cc-pvtz
}

set_num_threads( 4 )
memory 2 gb

molecule MOL {
0 1

H	 -2.816458	 -0.841657	 -0.064679
N	 -1.878861	 -0.711874	 0.250184
C	 -1.341419	 0.551458	 -0.220231
H	 -1.333674	 -1.468530	 -0.105118
C	 -1.542286	 0.690316	 -1.711881
H	 -1.783307	 1.419087	 0.268134
H	 -0.276103	 0.572189	 -0.018431
O	 -2.910853	 0.753612	 -1.977824
H	 -1.049763	 1.593843	 -2.068578
H	 -1.099929	 -0.162826	 -2.221193
C	 -3.233290	 0.813776	 -3.327504
H	 -4.309475	 0.862214	 -3.410359
H	 -2.806751	 1.696470	 -3.799319
H	 -2.879873	 -0.065709	 -3.860576

	symmetry c1
}
set optking {
	frozen_dihedral = ("
		6 3 2 4
	")
}

ee = optimize('scf')
oeprop('DIPOLE', 'QUADRUPOLE', 'MULLIKEN_CHARGES')
f=open( 'psi4out.xyz', 'w' )
f.write( "14  " )
f.write( str(ee) + "\n" )
f.write( MOL.save_string_xyz() )
f.close()
--------------------------------------------------------------------------

    Molecular point group: c1
  Charge       = 0
  Multiplicity = 1
  Basis Set: CC-PVTZ
  Basis Set:
  @DF-RHF Final Energy:  -248.22364959737320
    Total Energy =                       -248.2236495973731394
    Molecular point group: c1
  Basis Set: CC-PVTZ
  Basis Set:
  Basis Set: CC-PVTZ
  Basis Set:
  @DF-RHF Final Energy:  -248.22551415349949
    Total Energy =                       -248.2255141534994323
  Basis Set: CC-PVTZ
  Basis Set:
  Basis Set: CC-PVTZ
  Basis Set:
  @DF-RHF Final Energy:  -248.22573922360229
    Total Energy =                       -248.2257392236020905
  Basis Set: CC-PVTZ
  Basis Set:
  Basis Set: CC-PVTZ
  Basis Set:
  @DF-RHF Final Energy:  -248.22574267231727
    Total Energy =                       -248.2257426723172671
  Basis Set: CC-PVTZ
  Basis Set:
  Charge       = 0
  Multiplicity = 1
  Basis Set: CC-PVTZ
  Basis Set:

    Orbital Energies (a.u.)
    -----------------------

    Doubly Occupied:

       1A    -20.553950     2A    -15.523709     3A    -11.266820
       4A    -11.266654     5A    -11.240284     6A     -1.388027
       7A     -1.176586     8A     -1.001022     9A     -0.909926
      10A     -0.823391    11A     -0.686764    12A     -0.674231
      13A     -0.647028    14A     -0.636467    15A     -0.586057
      16A     -0.551817    17A     -0.520975    18A     -0.507409
      19A     -0.481489    20A     -0.423387    21A     -0.382497

  @DF-RHF Final Energy:  -248.22574297803203

   => Energetics <=

    Nuclear Repulsion Energy =            194.3363498671061507
    One-Electron Energy =                -722.6272049957046875
    Two-Electron Energy =                 280.0651121505664491
    DFT Exchange-Correlation Energy =       0.0000000000000000
    Empirical Dispersion Energy =           0.0000000000000000
    PCM Polarization Energy =               0.0000000000000000
    EFP Energy =                            0.0000000000000000
    Total Energy =                       -248.2257429780320876
    Molecular point group: c1
  Basis Set: CC-PVTZ
  Basis Set:

  -Total Gradient:
     Atom            X                  Y                   Z
    ------   -----------------  -----------------  -----------------
       1       -0.000008921412    -0.000018397659     0.000001171888
       2       -0.000563121158    -0.000114281307    -0.000697587620
       3       -0.000561372676     0.000013191552    -0.000516856137
       4        0.000539725891     0.000097026967     0.000659441087
       5        0.000054325950     0.000011632029     0.000046918139
       6        0.000572436956     0.000004731352     0.000506190828
       7        0.000003224452     0.000002768984    -0.000017415743
       8       -0.000017095288    -0.000012532046     0.000003228111
       9       -0.000003534122     0.000008381618    -0.000009757169
      10       -0.000025216255     0.000010098529     0.000019034415
      11        0.000009696327     0.000000235019    -0.000002534346
      12       -0.000000695431    -0.000000934454     0.000003038608
      13        0.000000456054    -0.000000799723     0.000004149276
      14        0.000000090711    -0.000001120860     0.000000978660

  **** Optimization is complete! (in 5 steps) ****
    Final optimized geometry and variables:
    Molecular point group: c1

    Geometry (in Angstrom), charge = 0, multiplicity = 1:

    H           -0.630385280421    -1.213864443470     1.490603917337
    N            0.326344779061    -1.096818886800     1.748630054765
    C            0.857824608914     0.124482031002     1.178625105682
    H            0.829221174786    -1.895699600497     1.424207754849
    C            0.649828126354     0.290903578469    -0.315116129304
    H            0.405293517947     0.967012968879     1.688628426015
    H            1.921703055132     0.169381189987     1.385063636338
    O           -0.717808607916     0.315559979172    -0.582431644552
    H            1.116903879862     1.215753596459    -0.653540023364
    H            1.120729471725    -0.532338780498    -0.853841388411
    C           -1.043690555309     0.434622800380    -1.927351617851
    H           -2.120963778442     0.442229277728    -2.008772731897
    H           -0.654554978717     1.357784586575    -2.351016139286
    H           -0.654470414372    -0.399743382512    -2.506806984532

  Mulliken Charges: (a.u.)
   Center  Symbol    Alpha    Beta     Spin     Total
       1     H     0.42359  0.42359  0.00000  0.15281
       2     N     3.69037  3.69037  0.00000 -0.38074
       3     C     3.02852  3.02852  0.00000 -0.05705
       4     H     0.43365  0.43365  0.00000  0.13270
       5     C     2.96937  2.96937  0.00000  0.06126
       6     H     0.45303  0.45303  0.00000  0.09393
       7     H     0.45512  0.45512  0.00000  0.08976
       8     O     4.17636  4.17636  0.00000 -0.35273
       9     H     0.47150  0.47150  0.00000  0.05699
      10     H     0.47837  0.47837  0.00000  0.04325
      11     C     3.03131  3.03131  0.00000 -0.06263
      12     H     0.44714  0.44714  0.00000  0.10573
      13     H     0.47028  0.47028  0.00000  0.05943
      14     H     0.47137  0.47137  0.00000  0.05726

   Total alpha = 21.00000, Total beta = 21.00000, Total charge = -0.00000
