                              Psi4 1.0.54 Driver

  ==> Input File <==

--------------------------------------------------------------------------
set {
	reference rhf
	basis cc-pvtz
}

set_num_threads( 4 )
memory 2 gb

molecule MOL {
0 1

H	 -3.117913	 1.835751	 0.020990
C	 -2.471384	 2.181662	 0.824252
O	 -1.130473	 2.061050	 0.485206
H	 -2.673446	 3.226903	 1.007362
H	 -2.708860	 1.617007	 1.724060
C	 -0.718530	 0.758693	 0.228682
C	 0.718529	 0.758687	 -0.228709
H	 -0.801900	 0.152038	 1.130341
H	 -1.338562	 0.303277	 -0.540465
O	 1.401606	 -0.295166	 0.366636
H	 0.748705	 0.673477	 -1.312803
H	 1.176496	 1.708671	 0.046552
C	 2.714315	 -0.441627	 -0.061017
H	 2.765292	 -0.641548	 -1.128869
H	 3.305661	 0.447341	 0.150952
H	 3.143725	 -1.278506	 0.470147

	symmetry c1
}
set optking {
	frozen_dihedral = ("
		3 6 7 11
	")
}

ee,wfn = optimize('scf', return_wfn=True)
oeprop( wfn, 'DIPOLE', 'QUADRUPOLE', 'MULLIKEN_CHARGES')
f=open( 'psi4out.xyz', 'w' )
f.write( "16  " )
f.write( str(ee) + "\n" )
f.write( MOL.save_string_xyz() )
f.close()
--------------------------------------------------------------------------

    Molecular point group: c1
  Charge       = 0
  Multiplicity = 1
  Basis Set: CC-PVTZ
  Basis Set:
  @DF-RHF Final Energy:  -307.09483645439713
    Total Energy =                       -307.0948364543974094
    Molecular point group: c1
  Basis Set: CC-PVTZ
  Basis Set:
  Basis Set: CC-PVTZ
  Basis Set:
  @DF-RHF Final Energy:  -307.09539858323808
    Total Energy =                       -307.0953985832380795
  Basis Set: CC-PVTZ
  Basis Set:
  Basis Set: CC-PVTZ
  Basis Set:
  @DF-RHF Final Energy:  -307.09544764593335
    Total Energy =                       -307.0954476459329499
  Basis Set: CC-PVTZ
  Basis Set:
  Charge       = 0
  Multiplicity = 1
  Basis Set: CC-PVTZ
  Basis Set:

    Orbital Energies (a.u.)
    -----------------------

    Doubly Occupied:

       1A    -20.551738     2A    -20.551280     3A    -11.266401
       4A    -11.265715     5A    -11.263890     6A    -11.263728
       7A     -1.390965     8A     -1.379388     9A     -1.029276
      10A     -0.941025    11A     -0.884462    12A     -0.832167
      13A     -0.691483    14A     -0.677264    15A     -0.659952
      16A     -0.647716    17A     -0.625558    18A     -0.600512
      19A     -0.565817    20A     -0.524102    21A     -0.508843
      22A     -0.483739    23A     -0.467828    24A     -0.422823
      25A     -0.416979

  @DF-RHF Final Energy:  -307.09545123427347

   => Energetics <=

    Nuclear Repulsion Energy =            255.0570644316634343
    One-Electron Energy =                -924.4797330491671801
    Two-Electron Energy =                 362.3272173832303906
    DFT Exchange-Correlation Energy =       0.0000000000000000
    Empirical Dispersion Energy =           0.0000000000000000
    PCM Polarization Energy =               0.0000000000000000
    EFP Energy =                            0.0000000000000000
    Total Energy =                       -307.0954512342733551
    Molecular point group: c1
  Basis Set: CC-PVTZ
  Basis Set:

  -Total Gradient:
     Atom            X                  Y                   Z
    ------   -----------------  -----------------  -----------------
       1        0.000020868824     0.000021883615     0.000042264205
       2       -0.000067033673    -0.000013850366     0.000015312401
       3        0.000784319172    -0.000297096899     0.002704245468
       4        0.000016211597    -0.000026054750    -0.000007773418
       5        0.000007317138     0.000028084964    -0.000044836945
       6       -0.001146803723    -0.000479434240    -0.003416237943
       7        0.000297928323     0.004336087517     0.000574997407
       8        0.000033777404     0.000004162587    -0.000041648490
       9        0.000000718203     0.000029728281     0.000020843892
      10       -0.000049171022     0.000161047307    -0.000130152904
      11        0.000107033578    -0.003711823170     0.000287232219
      12       -0.000063958610    -0.000013686117    -0.000003265392
      13        0.000115834916    -0.000032690293    -0.000022526529
      14        0.000005610370     0.000005207487     0.000048577202
      15       -0.000039148409    -0.000043950106    -0.000011000734
      16       -0.000023504092     0.000032384186    -0.000016030440

  **** Optimization is complete! (in 4 steps) ****
    Final optimized geometry and variables:
    Molecular point group: c1

    Geometry (in Angstrom), charge = 0, multiplicity = 1:

    H           -3.217697425724     1.004347271939    -0.191968394378
    C           -2.538368694197     1.365685921351     0.576893840179
    O           -1.211578529156     1.237663077977     0.186079196184
    H           -2.733145407160     2.414333420534     0.748063300564
    H           -2.736603909282     0.817700044728     1.495275041676
    C           -0.810491875210    -0.074713144649    -0.056512595885
    C            0.643498371697    -0.070827038487    -0.507809732495
    H           -0.881728635812    -0.665767699106     0.851885904756
    H           -1.451577620439    -0.535112482811    -0.804585779108
    O            1.290627992017    -1.159061010236     0.078519249961
    H            0.713627495683    -0.160045581451    -1.589558932127
    H            1.103795402974     0.863522263775    -0.203075501239
    C            2.621437440793    -1.299517033339    -0.293445059404
    H            2.721934885131    -1.455893383757    -1.365315408675
    H            3.206012088810    -0.424613752866    -0.018122673568
    H            3.020088488359    -2.160881542701     0.222346300519

  Mulliken Charges: (a.u.)
   Center  Symbol    Alpha    Beta     Spin     Total
       1     H     0.47152  0.47152  0.00000  0.05696
       2     C     3.02914  3.02914  0.00000 -0.05828
       3     O     4.17461  4.17461  0.00000 -0.34923
       4     H     0.44670  0.44670  0.00000  0.10660
       5     H     0.47100  0.47100  0.00000  0.05800
       6     C     2.96629  2.96629  0.00000  0.06741
       7     C     2.96636  2.96636  0.00000  0.06728
       8     H     0.46669  0.46669  0.00000  0.06662
       9     H     0.47395  0.47395  0.00000  0.05210
      10     O     4.17502  4.17502  0.00000 -0.35003
      11     H     0.47439  0.47439  0.00000  0.05121
      12     H     0.46561  0.46561  0.00000  0.06878
      13     C     3.02901  3.02901  0.00000 -0.05803
      14     H     0.47190  0.47190  0.00000  0.05620
      15     H     0.47105  0.47105  0.00000  0.05789
      16     H     0.44675  0.44675  0.00000  0.10650

   Total alpha = 25.00000, Total beta = 25.00000, Total charge =  0.00000

*** Psi4 exiting successfully. Buy a developer a beer!
