                              Psi4 1.0.54 Driver

  ==> Input File <==

--------------------------------------------------------------------------
set {
	reference rhf
	basis cc-pvtz
}

set_num_threads( 4 )
memory 2 gb

molecule MOL {
0 1

O	 2.007067	 -0.015008	 0.773249
C	 1.121787	 0.124983	 0.000110
C	 -0.170912	 -0.649867	 -0.000147
O	 1.155801	 1.003387	 -0.988639
C	 -1.413045	 0.229353	 0.001137
H	 -0.152877	 -1.303435	 -0.866175
H	 -0.152278	 -1.305116	 0.864586
C	 -2.702562	 -0.586401	 0.000228
H	 -1.390744	 0.882001	 -0.864365
H	 -1.390549	 0.879837	 0.868264
C	 -3.953810	 0.284959	 -0.000782
H	 -2.717793	 -1.238567	 -0.869075
H	 -2.719108	 -1.238472	 0.869576
H	 -3.983727	 0.924403	 -0.876454
H	 -4.852989	 -0.320147	 -0.001515
H	 -3.985140	 0.924399	 0.874841
C	 2.315701	 1.802026	 -1.107506
H	 2.462558	 2.396006	 -0.217648
H	 2.150436	 2.441977	 -1.958987
H	 3.188065	 1.186002	 -1.267873

	symmetry c1
}
set optking {
	frozen_dihedral = ("
		1 2 3 6
	")
}

ee,wfn = optimize('scf', return_wfn=True)
oeprop( wfn, 'DIPOLE', 'QUADRUPOLE', 'MULLIKEN_CHARGES')
f=open( 'psi4out.xyz', 'w' )
f.write( "20  " )
f.write( str(ee) + "\n" )
f.write( MOL.save_string_xyz() )
f.close()
--------------------------------------------------------------------------

    Molecular point group: c1
  Charge       = 0
  Multiplicity = 1
  Basis Set: CC-PVTZ
  Basis Set:
  @DF-RHF Final Energy:  -384.08152818289790
    Total Energy =                       -384.0815281828980687
    Molecular point group: c1
  Basis Set: CC-PVTZ
  Basis Set:
  Basis Set: CC-PVTZ
  Basis Set:
  @DF-RHF Final Energy:  -384.08069144812447
    Total Energy =                       -384.0806914481252079
  Basis Set: CC-PVTZ
  Basis Set:
  Basis Set: CC-PVTZ
  Basis Set:
  @DF-RHF Final Energy:  -384.08163441806420
    Total Energy =                       -384.0816344180639135
  Basis Set: CC-PVTZ
  Basis Set:
  Basis Set: CC-PVTZ
  Basis Set:
  @DF-RHF Final Energy:  -384.08183367520627
    Total Energy =                       -384.0818336752060986
  Basis Set: CC-PVTZ
  Basis Set:
  Basis Set: CC-PVTZ
  Basis Set:
  @DF-RHF Final Energy:  -384.08183825697915
    Total Energy =                       -384.0818382569792675
  Basis Set: CC-PVTZ
  Basis Set:
  Charge       = 0
  Multiplicity = 1
  Basis Set: CC-PVTZ
  Basis Set:

    Orbital Energies (a.u.)
    -----------------------

    Doubly Occupied:

       1A    -20.597205     2A    -20.532590     3A    -11.363818
       4A    -11.278794     5A    -11.233062     6A    -11.225518
       7A    -11.221796     8A    -11.212303     9A     -1.472195
      10A     -1.364629    11A     -1.093733    12A     -1.026003
      13A     -0.967427    14A     -0.892413    15A     -0.807560
      16A     -0.776214    17A     -0.695777    18A     -0.684028
      19A     -0.676636    20A     -0.649208    21A     -0.596780
      22A     -0.593359    23A     -0.579035    24A     -0.550402
      25A     -0.533561    26A     -0.523556    27A     -0.509210
      28A     -0.489044    29A     -0.481484    30A     -0.474524
      31A     -0.459001    32A     -0.431811

  @DF-RHF Final Energy:  -384.08183908266602

   => Energetics <=

    Nuclear Repulsion Energy =            384.1314281611734600
    One-Electron Energy =               -1284.4411840766213118
    Two-Electron Energy =                 516.2279168327817160
    DFT Exchange-Correlation Energy =       0.0000000000000000
    Empirical Dispersion Energy =           0.0000000000000000
    PCM Polarization Energy =               0.0000000000000000
    EFP Energy =                            0.0000000000000000
    Total Energy =                       -384.0818390826660789
    Molecular point group: c1
  Basis Set: CC-PVTZ
  Basis Set:

  -Total Gradient:
     Atom            X                  Y                   Z
    ------   -----------------  -----------------  -----------------
       1        0.000247236395    -0.000433008653    -0.000481859847
       2       -0.000270895453     0.000499598812     0.000829689983
       3       -0.000241039142     0.000368105840    -0.000643851341
       4        0.000010413049     0.000058201185    -0.000054138648
       5        0.000004566415     0.000021273940     0.000011405027
       6        0.000294195307    -0.000456825582     0.000368492151
       7       -0.000006536506    -0.000016506767    -0.000010229900
       8        0.000003751368    -0.000022623013    -0.000006787181
       9        0.000016667850     0.000008530520     0.000011737231
      10       -0.000004833939    -0.000006401128    -0.000034916830
      11       -0.000005565041     0.000012039231     0.000014029758
      12       -0.000002246529    -0.000000196527     0.000006070357
      13       -0.000004165085    -0.000008662219    -0.000007536535
      14       -0.000001202683    -0.000004884650     0.000007385676
      15       -0.000006596754     0.000002010364     0.000001800339
      16       -0.000004829618    -0.000000247027    -0.000009794259
      17       -0.000053175970    -0.000020335528     0.000000942537
      18        0.000003606665    -0.000002009660    -0.000008248449
      19        0.000006408290     0.000001355427     0.000005205491
      20        0.000014241378     0.000000585438     0.000000604440

  **** Optimization is complete! (in 6 steps) ****
    Final optimized geometry and variables:
    Molecular point group: c1

    Geometry (in Angstrom), charge = 0, multiplicity = 1:

    O            2.203331966883    -0.209747411712     0.908324412577
    C            1.303521489030    -0.097324080812     0.146847583002
    C            0.047096722272    -0.929378690958     0.178662645865
    O            1.308026887439     0.769060466230    -0.852748518883
    C           -1.246694237692    -0.114135413600     0.174335997975
    H            0.074561139278    -1.583907017477    -0.687305793737
    H            0.108790712683    -1.551727610504     1.059893629084
    C           -2.487072193428    -0.999251335332     0.254545134727
    H           -1.288587908526     0.493576795494    -0.721245372194
    H           -1.240242372196     0.572439002828     1.016491295672
    C           -3.785702266336    -0.200175880699     0.258770040734
    H           -2.490183377650    -1.688331755502    -0.585606836774
    H           -2.436875798497    -1.610910591211     1.150784872099
    H           -3.880856878093     0.396482856746    -0.642140976383
    H           -4.647562604759    -0.854738597345     0.314750475669
    H           -3.827084904329     0.474507307107     1.107192016573
    C            2.449391650643     1.590379094319    -0.994178682080
    H            2.594744380135     2.195805680374    -0.111952281375
    H            2.260308755450     2.218242218247    -1.849747838570
    H            3.332134858551     0.990625443236    -1.159166951069

  Mulliken Charges: (a.u.)
   Center  Symbol    Alpha    Beta     Spin     Total
       1     O     4.19956  4.19956  0.00000 -0.39913
       2     C     2.81158  2.81158  0.00000  0.37685
       3     C     3.07840  3.07840  0.00000 -0.15679
       4     O     4.14837  4.14837  0.00000 -0.29675
       5     C     3.09554  3.09554  0.00000 -0.19108
       6     H     0.44730  0.44730  0.00000  0.10539
       7     H     0.43671  0.43671  0.00000  0.12658
       8     C     3.08882  3.08882  0.00000 -0.17765
       9     H     0.44300  0.44300  0.00000  0.11399
      10     H     0.45009  0.45009  0.00000  0.09983
      11     C     3.14909  3.14909  0.00000 -0.29817
      12     H     0.45373  0.45373  0.00000  0.09253
      13     H     0.45227  0.45227  0.00000  0.09546
      14     H     0.45437  0.45437  0.00000  0.09126
      15     H     0.44740  0.44740  0.00000  0.10520
      16     H     0.45403  0.45403  0.00000  0.09194
      17     C     3.03678  3.03678  0.00000 -0.07357
      18     H     0.45411  0.45411  0.00000  0.09178
      19     H     0.44586  0.44586  0.00000  0.10829
      20     H     0.45299  0.45299  0.00000  0.09402

   Total alpha = 32.00000, Total beta = 32.00000, Total charge =  0.00000

*** Psi4 exiting successfully. Buy a developer a beer!
