  ==> Input File <==

--------------------------------------------------------------------------
set {
	reference rhf
	basis 6-31G*
}

set_num_threads( 1 )
memory 2 gb

molecule MOL {
0 1

H	 -1.775173	 0.995369	 -0.630970
N	 -1.852125	 0.165761	 -0.074816
C	 -0.563778	 -0.502042	 0.037919
H	 -2.517188	 -0.428760	 -0.531973
C	 0.575259	 0.508231	 -0.048326
H	 -0.482092	 -1.204004	 -0.786564
H	 -0.460411	 -1.085169	 0.956626
C	 1.954651	 -0.143624	 0.035137
H	 0.475158	 1.060484	 -0.977307
H	 0.469181	 1.234488	 0.755973
H	 2.103292	 -0.853109	 -0.774172
H	 2.742821	 0.599562	 -0.030094
H	 2.083613	 -0.679371	 0.971560

	symmetry c1
}
set optking {
	frozen_dihedral = ("
		6 3 5 9
	")
}

ee = energy('scf')
oeprop('DIPOLE', 'QUADRUPOLE', 'MULLIKEN_CHARGES')
f=open( 'psi4out.xyz', 'w' )
f.write( "13  " )
f.write( str(ee) + "\n" )
f.write( MOL.save_string_xyz() )
f.close()
--------------------------------------------------------------------------

    Molecular point group: c1

    Geometry (in Angstrom), charge = 0, multiplicity = 1:

       Center              X                  Y                   Z               Mass
    ------------   -----------------  -----------------  -----------------  -----------------
           H         -1.780556012606     0.990144786918    -0.600397794244     1.007825032070
           N         -1.857508012606     0.160536786918    -0.044243794244    14.003074004780
           C         -0.569161012606    -0.507266213082     0.068491205756    12.000000000000
           H         -2.522571012606    -0.433984213082    -0.501400794244     1.007825032070
           C          0.569875987394     0.503006786918    -0.017753794244    12.000000000000
           H         -0.487475012606    -1.209228213082    -0.755991794244     1.007825032070
           H         -0.465794012606    -1.090393213082     0.987198205756     1.007825032070
           C          1.949267987394    -0.148848213082     0.065709205756    12.000000000000
           H          0.469774987394     1.055259786918    -0.946734794244     1.007825032070
           H          0.463797987394     1.229263786918     0.786545205756     1.007825032070
           H          2.097908987394    -0.858333213082    -0.743599794244     1.007825032070
           H          2.737437987394     0.594337786918     0.000478205756     1.007825032070
           H          2.078229987394    -0.684595213082     1.002132205756     1.007825032070

  Charge       = 0
  Multiplicity = 1
  Basis Set: 6-31G*
  Basis Set:

    Orbital Energies (a.u.)
    -----------------------

    Doubly Occupied:

       1A    -15.529714     2A    -11.240161     3A    -11.218173
       4A    -11.212485     5A     -1.177055     6A     -1.037458
       7A     -0.899172     8A     -0.806526     9A     -0.647478
      10A     -0.641883    11A     -0.604926    12A     -0.557642
      13A     -0.546101    14A     -0.496955    15A     -0.480164
      16A     -0.470158    17A     -0.376273

  @DF-RHF Final Energy:  -173.27801560908568

   => Energetics <=

    Nuclear Repulsion Energy =            132.0058846343665095
    One-Electron Energy =                -494.6831248259675249
    Two-Electron Energy =                 189.3992245825153873
    DFT Exchange-Correlation Energy =       0.0000000000000000
    Empirical Dispersion Energy =           0.0000000000000000
    PCM Polarization Energy =               0.0000000000000000
    EFP Energy =                            0.0000000000000000
    Total Energy =                       -173.2780156090856281

  Mulliken Charges: (a.u.)
   Center  Symbol    Alpha    Beta     Spin     Total
       1     H     0.33351  0.33351  0.00000  0.33298
       2     N     3.92627  3.92627  0.00000 -0.85253
       3     C     3.04792  3.04792  0.00000 -0.09583
       4     H     0.33331  0.33331  0.00000  0.33338
       5     C     3.16335  3.16335  0.00000 -0.32671
       6     H     0.43414  0.43414  0.00000  0.13173
       7     H     0.42107  0.42107  0.00000  0.15786
       8     C     3.24268  3.24268  0.00000 -0.48536
       9     H     0.42584  0.42584  0.00000  0.14831
      10     H     0.41413  0.41413  0.00000  0.17174
      11     H     0.42113  0.42113  0.00000  0.15774
      12     H     0.41743  0.41743  0.00000  0.16515
      13     H     0.41923  0.41923  0.00000  0.16155

   Total alpha = 17.00000, Total beta = 17.00000, Total charge = -0.00000
