  ==> Input File <==

--------------------------------------------------------------------------
set {
	reference rhf
	basis cc-pvtz
}

set_num_threads( 4 )
memory 2 gb

molecule MOL {
0 1

H	 -0.898954	 -1.036931	 -0.813471
O	 -1.432053	 -0.565244	 -0.200812
C	 -0.727158	 0.534527	 0.310686
C	 0.680222	 0.664433	 -0.252229
H	 -1.306802	 1.408001	 0.044211
H	 -0.690821	 0.490158	 1.397609
C	 1.605391	 -0.489360	 0.123098
H	 0.615089	 0.745647	 -1.332226
H	 1.101414	 1.597893	 0.110950
H	 1.247627	 -1.432485	 -0.275204
H	 2.601435	 -0.332816	 -0.273062
H	 1.691776	 -0.589902	 1.200774

	symmetry c1
}
set optking {
	frozen_dihedral = ("
		1 2 3 4
	")
}

ee = optimize('scf')
oeprop('DIPOLE', 'QUADRUPOLE', 'MULLIKEN_CHARGES')
f=open( 'psi4out.xyz', 'w' )
f.write( "12  " )
f.write( str(ee) + "\n" )
f.write( MOL.save_string_xyz() )
f.close()
--------------------------------------------------------------------------

    Molecular point group: c1
  Charge       = 0
  Multiplicity = 1
  Basis Set: CC-PVTZ
  Basis Set:
  @DF-RHF Final Energy:  -193.18756679200757
    Total Energy =                       -193.1875667920077149
    Molecular point group: c1
  Basis Set: CC-PVTZ
  Basis Set:
  Basis Set: CC-PVTZ
  Basis Set:
  @DF-RHF Final Energy:  -193.18795088295403
    Total Energy =                       -193.1879508829538281
  Basis Set: CC-PVTZ
  Basis Set:
  Basis Set: CC-PVTZ
  Basis Set:
  @DF-RHF Final Energy:  -193.18809241309506
    Total Energy =                       -193.1880924130952053
  Basis Set: CC-PVTZ
  Basis Set:
  Basis Set: CC-PVTZ
  Basis Set:
  @DF-RHF Final Energy:  -193.18809636545220
    Total Energy =                       -193.1880963654521111
  Basis Set: CC-PVTZ
  Basis Set:
  Basis Set: CC-PVTZ
  Basis Set:
  @DF-RHF Final Energy:  -193.18810039117648
    Total Energy =                       -193.1881003911764196
  Basis Set: CC-PVTZ
  Basis Set:
  Charge       = 0
  Multiplicity = 1
  Basis Set: CC-PVTZ
  Basis Set:

    Orbital Energies (a.u.)
    -----------------------

    Doubly Occupied:

       1A    -20.543244     2A    -11.265393     3A    -11.225357
       4A    -11.217986     5A     -1.361786     6A     -1.055779
       7A     -0.929346     8A     -0.820680     9A     -0.669916
      10A     -0.645263    11A     -0.633383    12A     -0.577434
      13A     -0.551179    14A     -0.512153    15A     -0.493619
      16A     -0.466260    17A     -0.434617

  @DF-RHF Final Energy:  -193.18810056533570

   => Energetics <=

    Nuclear Repulsion Energy =            133.2303229175763875
    One-Electron Energy =                -526.0300609747832823
    Two-Electron Energy =                 199.6116374918711074
    DFT Exchange-Correlation Energy =       0.0000000000000000
    Empirical Dispersion Energy =           0.0000000000000000
    PCM Polarization Energy =               0.0000000000000000
    EFP Energy =                            0.0000000000000000
    Total Energy =                       -193.1881005653358159
    Molecular point group: c1
  Basis Set: CC-PVTZ
  Basis Set:

  -Total Gradient:
     Atom            X                  Y                   Z
    ------   -----------------  -----------------  -----------------
       1        0.000160957198    -0.000254728569     0.000330634873
       2       -0.000233225335     0.000409177527    -0.000489491288
       3        0.000175467811    -0.000311177130     0.000371436347
       4       -0.000095469378     0.000162761222    -0.000201210646
       5       -0.000001176102    -0.000002152136    -0.000004556832
       6        0.000001788412    -0.000003724271     0.000000063166
       7       -0.000005014026    -0.000000483633    -0.000012768484
       8        0.000003080794    -0.000011490397     0.000009215793
       9       -0.000000985060     0.000009715056     0.000000272029
      10       -0.000001553801    -0.000006816961    -0.000000463249
      11        0.000004045384     0.000005017272     0.000001341313
      12       -0.000007915896     0.000003902019    -0.000004473023

  **** Optimization is complete! (in 6 steps) ****
    Final optimized geometry and variables:
    Molecular point group: c1

    Geometry (in Angstrom), charge = 0, multiplicity = 1:

    H           -0.927840683566    -1.047507680791    -0.809579650539
    O           -1.447396081952    -0.567097482694    -0.193742385420
    C           -0.729320644306     0.525792169056     0.321065607936
    C            0.679759628095     0.655352805863    -0.235383655260
    H           -1.287228521692     1.428843583630     0.099109605634
    H           -0.688640179692     0.425848350701     1.401497481994
    C            1.611226976916    -0.491252344897     0.151148986103
    H            0.624755571177     0.742036151163    -1.317957950507
    H            1.095152924769     1.591121563847     0.124667319868
    H            1.249639830732    -1.449999396813    -0.204249980088
    H            2.599601426895    -0.343057035857    -0.267098721401
    H            1.711296746135    -0.561470308829     1.228538731990

  Mulliken Charges: (a.u.)
   Center  Symbol    Alpha    Beta     Spin     Total
       1     H     0.39184  0.39184  0.00000  0.21632
       2     O     4.20835  4.20835  0.00000 -0.41670
       3     C     2.95104  2.95104  0.00000  0.09792
       4     C     3.10663  3.10663  0.00000 -0.21326
       5     H     0.46391  0.46391  0.00000  0.07218
       6     H     0.47387  0.47387  0.00000  0.05225
       7     C     3.14248  3.14248  0.00000 -0.28495
       8     H     0.45169  0.45169  0.00000  0.09662
       9     H     0.45116  0.45116  0.00000  0.09769
      10     H     0.45946  0.45946  0.00000  0.08108
      11     H     0.44735  0.44735  0.00000  0.10529
      12     H     0.45222  0.45222  0.00000  0.09557

   Total alpha = 17.00000, Total beta = 17.00000, Total charge = -0.00000
