  ==> Input File <==

--------------------------------------------------------------------------
set {
	reference rhf
	basis 6-31G*
}

set_num_threads( 4 )
memory 2 gb

molecule MOL {
0 1

H	 -3.265009	 0.763222	 -0.464635
C	 -2.802131	 1.721225	 -0.236349
O	 -1.438094	 1.705284	 -0.509269
H	 -3.250289	 2.483606	 -0.858500
H	 -2.999059	 1.959348	 0.808134
C	 -0.719715	 0.768384	 0.229244
C	 0.719720	 0.768376	 -0.229267
H	 -0.757643	 1.014399	 1.291192
H	 -1.136994	 -0.228283	 0.100652
O	 1.392611	 -0.295398	 0.366430
H	 0.750534	 0.687200	 -1.313918
H	 1.185043	 1.714359	 0.050526
C	 2.706965	 -0.449871	 -0.062409
H	 2.756559	 -0.644779	 -1.131878
H	 3.305899	 0.433456	 0.155466
H	 3.125548	 -1.294566	 0.467107

	symmetry c1
}
set optking {
	frozen_dihedral = ("
		3 6 7 11
	")
}

ee = optimize('scf')
oeprop('DIPOLE', 'QUADRUPOLE', 'MULLIKEN_CHARGES')
f=open( 'psi4out.xyz', 'w' )
f.write( "16  " )
f.write( str(ee) + "\n" )
f.write( MOL.save_string_xyz() )
f.close()
--------------------------------------------------------------------------

    Molecular point group: c1
  Charge       = 0
  Multiplicity = 1
  Basis Set: 6-31G*
  Basis Set:
  @DF-RHF Final Energy:  -306.97914624321311
    Total Energy =                       -306.9791462432130515
    Molecular point group: c1
  Basis Set: 6-31G*
  Basis Set:
  Basis Set: 6-31G*
  Basis Set:
  @DF-RHF Final Energy:  -306.97961578581146
    Total Energy =                       -306.9796157858114611
  Basis Set: 6-31G*
  Basis Set:
  Basis Set: 6-31G*
  Basis Set:
  @DF-RHF Final Energy:  -306.97966920758688
    Total Energy =                       -306.9796692075870510
  Basis Set: 6-31G*
  Basis Set:
  Basis Set: 6-31G*
  Basis Set:
  @DF-RHF Final Energy:  -306.97967244319250
    Total Energy =                       -306.9796724431926123
  Basis Set: 6-31G*
  Basis Set:
  Charge       = 0
  Multiplicity = 1
  Basis Set: 6-31G*
  Basis Set:

    Orbital Energies (a.u.)
    -----------------------

    Doubly Occupied:

       1A    -20.559016     2A    -20.558740     3A    -11.267227
       4A    -11.267184     5A    -11.267120     6A    -11.266534
       7A     -1.389171     8A     -1.377826     9A     -1.030399
      10A     -0.941662    11A     -0.883480    12A     -0.831207
      13A     -0.691129    14A     -0.674704    15A     -0.659488
      16A     -0.647545    17A     -0.619862    18A     -0.600354
      19A     -0.576400    20A     -0.517476    21A     -0.508482
      22A     -0.483255    23A     -0.466426    24A     -0.418144
      25A     -0.418024

  @DF-RHF Final Energy:  -306.97967259092832

   => Energetics <=

    Nuclear Repulsion Energy =            254.7448301825937733
    One-Electron Energy =                -923.6072963347728546
    Two-Electron Energy =                 361.8827935612507076
    DFT Exchange-Correlation Energy =       0.0000000000000000
    Empirical Dispersion Energy =           0.0000000000000000
    PCM Polarization Energy =               0.0000000000000000
    EFP Energy =                            0.0000000000000000
    Total Energy =                       -306.9796725909283737
    Molecular point group: c1
  Basis Set: 6-31G*
  Basis Set:

  -Total Gradient:
     Atom            X                  Y                   Z
    ------   -----------------  -----------------  -----------------
       1        0.000009506826     0.000000814361     0.000002161500
       2       -0.000003393843     0.000017011813    -0.000017055584
       3       -0.000315998765    -0.001069897134    -0.000972548539
       4       -0.000012199031     0.000001249073     0.000000568935
       5        0.000006571544    -0.000005384545     0.000001288960
       6        0.000398531126     0.001811168238     0.001234516207
       7       -0.000010486012    -0.002670949292    -0.000114216083
       8       -0.000002368011     0.000004141676     0.000008058779
       9        0.000004335926     0.000000014469    -0.000007794388
      10        0.000007061802     0.000031160519    -0.000018756726
      11       -0.000076081480     0.001899019627    -0.000148120773
      12       -0.000000977459    -0.000005260452     0.000015521820
      13       -0.000001479297    -0.000017332724     0.000019467983
      14       -0.000009856880     0.000004846047     0.000002471224
      15       -0.000005376653     0.000002953127    -0.000002996853
      16        0.000012210210    -0.000003554802    -0.000002566460

  **** Optimization is complete! (in 5 steps) ****
    Final optimized geometry and variables:
    Molecular point group: c1

    Geometry (in Angstrom), charge = 0, multiplicity = 1:

    H           -3.284515552223     0.130036112628    -0.247378281107
    C           -2.761028222671     1.073701691418    -0.106913263369
    O           -1.417749707603     0.966473409020    -0.456885120334
    H           -3.207297121231     1.821171380172    -0.748289928110
    H           -2.878737261493     1.382632224693     0.929897736879
    C           -0.704728213305     0.026828748991     0.287063019607
    C            0.730908036556     0.049529665391    -0.195354339038
    H           -0.747107452374     0.255294741390     1.350139456728
    H           -1.115158563712    -0.970883533627     0.145282338365
    O            1.402313170329    -1.014213908609     0.404526806421
    H            0.747862015517    -0.027009485662    -1.280525118413
    H            1.194709064581     0.998346782321     0.069185725253
    C            2.751007440115    -1.101775760278     0.069864122520
    H            2.886340107553    -1.238513743993    -1.001176716213
    H            3.295233727671    -0.210367086985     0.375584738748
    H            3.161257155024    -1.957944448265     0.587422709777

  Mulliken Charges: (a.u.)
   Center  Symbol    Alpha    Beta     Spin     Total
       1     H     0.42841  0.42841  0.00000  0.14318
       2     C     3.07952  3.07952  0.00000 -0.15904
       3     O     4.30988  4.30988  0.00000 -0.61977
       4     H     0.41155  0.41155  0.00000  0.17691
       5     H     0.42869  0.42869  0.00000  0.14261
       6     C     2.99385  2.99385  0.00000  0.01231
       7     C     2.99397  2.99397  0.00000  0.01206
       8     H     0.42533  0.42533  0.00000  0.14934
       9     H     0.42285  0.42285  0.00000  0.15430
      10     O     4.30952  4.30952  0.00000 -0.61905
      11     H     0.42253  0.42253  0.00000  0.15494
      12     H     0.42589  0.42589  0.00000  0.14821
      13     C     3.07961  3.07961  0.00000 -0.15923
      14     H     0.42826  0.42826  0.00000  0.14348
      15     H     0.42862  0.42862  0.00000  0.14275
      16     H     0.41150  0.41150  0.00000  0.17699

   Total alpha = 25.00000, Total beta = 25.00000, Total charge =  0.00000
