  ==> Input File <==

--------------------------------------------------------------------------
set {
	reference rhf
	basis 6-31G*
}

set_num_threads( 4 )
memory 2 gb

molecule MOL {
0 1

H	 2.247647	 0.904876	 1.145903
O	 1.378631	 0.519956	 1.204512
C	 1.050492	 0.053836	 0.000068
C	 -0.318135	 -0.576402	 0.000164
O	 1.779280	 0.145339	 -0.933470
C	 -1.454360	 0.441875	 -0.000474
H	 -0.374042	 -1.230163	 -0.866135
H	 -0.374274	 -1.229227	 0.867154
C	 -2.826123	 -0.230780	 0.000056
H	 -1.357605	 1.085198	 -0.868380
H	 -1.357504	 1.086451	 0.866496
H	 -2.959731	 -0.858053	 -0.876869
H	 -3.619374	 0.509403	 -0.000080
H	 -2.959371	 -0.857318	 0.877556

	symmetry c1
}
set optking {
	frozen_dihedral = ("
		2 3 4 7
	")
}

ee = optimize('scf')
oeprop('DIPOLE', 'QUADRUPOLE', 'MULLIKEN_CHARGES')
f=open( 'psi4out.xyz', 'w' )
f.write( "14  " )
f.write( str(ee) + "\n" )
f.write( MOL.save_string_xyz() )
f.close()
--------------------------------------------------------------------------

    Molecular point group: c1
  Charge       = 0
  Multiplicity = 1
  Basis Set: 6-31G*
  Basis Set:
  @DF-RHF Final Energy:  -305.87891349636203
    Total Energy =                       -305.8789134963622018
    Molecular point group: c1
  Basis Set: 6-31G*
  Basis Set:
  Basis Set: 6-31G*
  Basis Set:
  @DF-RHF Final Energy:  -305.87932231231667
    Total Energy =                       -305.8793223123167309
  Basis Set: 6-31G*
  Basis Set:
  Basis Set: 6-31G*
  Basis Set:
  @DF-RHF Final Energy:  -305.87879990318527
    Total Energy =                       -305.8787999031851541
  Basis Set: 6-31G*
  Basis Set:
  Basis Set: 6-31G*
  Basis Set:
  @DF-RHF Final Energy:  -305.87939216654183
    Total Energy =                       -305.8793921665417201
  Basis Set: 6-31G*
  Basis Set:
  Basis Set: 6-31G*
  Basis Set:
  @DF-RHF Final Energy:  -305.87939723525164
    Total Energy =                       -305.8793972352517585
  Basis Set: 6-31G*
  Basis Set:
  Charge       = 0
  Multiplicity = 1
  Basis Set: 6-31G*
  Basis Set:

    Orbital Energies (a.u.)
    -----------------------

    Doubly Occupied:

       1A    -20.613362     2A    -20.549795     3A    -11.380048
       4A    -11.239465     5A    -11.236139     6A    -11.221412
       7A     -1.474074     8A     -1.364499     9A     -1.086726
      10A     -0.979840    11A     -0.850793    12A     -0.810074
      13A     -0.701885    14A     -0.685324    15A     -0.641092
      16A     -0.635966    17A     -0.593708    18A     -0.566501
      19A     -0.553663    20A     -0.517944    21A     -0.499716
      22A     -0.489160    23A     -0.472092    24A     -0.438154

  @DF-RHF Final Energy:  -305.87939762398270

   => Energetics <=

    Nuclear Repulsion Energy =            240.4113586602792907
    One-Electron Energy =                -893.3786472092616577
    Two-Electron Energy =                 347.0878909249997832
    DFT Exchange-Correlation Energy =       0.0000000000000000
    Empirical Dispersion Energy =           0.0000000000000000
    PCM Polarization Energy =               0.0000000000000000
    EFP Energy =                            0.0000000000000000
    Total Energy =                       -305.8793976239826407
    Molecular point group: c1
  Basis Set: 6-31G*
  Basis Set:

  -Total Gradient:
     Atom            X                  Y                   Z
    ------   -----------------  -----------------  -----------------
       1        0.000005260476     0.000032975377     0.000010993985
       2        0.000169696185    -0.000316268032     0.000055839561
       3       -0.000185067767     0.000306099310    -0.000051992553
       4       -0.000152969572     0.000340734161    -0.000261726723
       5       -0.000001187088    -0.000005863199     0.000036691488
       6       -0.000007338694    -0.000045622097     0.000014391675
       7        0.000157506131    -0.000348494580     0.000190126551
       8        0.000000620435    -0.000009229823    -0.000008181923
       9        0.000022089003     0.000030100429     0.000018628425
      10       -0.000006844262    -0.000039520614    -0.000002262849
      11       -0.000032898100     0.000033556053     0.000003649518
      12        0.000014049898     0.000017877816    -0.000009172023
      13       -0.000008604763     0.000007610438     0.000012959847
      14        0.000025688112    -0.000003955239    -0.000009944978

  **** Optimization is complete! (in 6 steps) ****
    Final optimized geometry and variables:
    Molecular point group: c1

    Geometry (in Angstrom), charge = 0, multiplicity = 1:

    H            2.277074997359     0.858563061846     1.064501679050
    O            1.431236940831     0.428576038071     1.145830265550
    C            1.078027200280    -0.021304113299    -0.058137674603
    C           -0.275491782527    -0.680550477962    -0.047579814342
    O            1.769217669541     0.122155206192    -1.013864907069
    C           -1.406362743473     0.360097015870    -0.055399744638
    H           -0.335527646634    -1.313088100286    -0.923908009263
    H           -0.355097143378    -1.303310700286     0.836755960042
    C           -2.785520469277    -0.295843528603    -0.069238339156
    H           -1.295823849811     0.997165374644    -0.928132220054
    H           -1.311960789172     0.998546473852     0.817200232033
    H           -2.915386728505    -0.917914462442    -0.949703993111
    H           -3.569838840212     0.453850799797    -0.074061331770
    H           -2.930593634446    -0.922509835601     0.805766020016

  Mulliken Charges: (a.u.)
   Center  Symbol    Alpha    Beta     Spin     Total
       1     H     0.26777  0.26777  0.00000  0.46445
       2     O     4.34762  4.34762  0.00000 -0.69524
       3     C     2.63377  2.63377  0.00000  0.73246
       4     C     3.19638  3.19638  0.00000 -0.39277
       5     O     4.27823  4.27823  0.00000 -0.55646
       6     C     3.16601  3.16601  0.00000 -0.33202
       7     H     0.39802  0.39802  0.00000  0.20395
       8     H     0.40272  0.40272  0.00000  0.19455
       9     C     3.24101  3.24101  0.00000 -0.48202
      10     H     0.40953  0.40953  0.00000  0.18093
      11     H     0.40815  0.40815  0.00000  0.18369
      12     H     0.41774  0.41774  0.00000  0.16451
      13     H     0.41436  0.41436  0.00000  0.17129
      14     H     0.41867  0.41867  0.00000  0.16267

   Total alpha = 24.00000, Total beta = 24.00000, Total charge = -0.00000
