                              Psi4 1.0.54 Driver

  ==> Input File <==

--------------------------------------------------------------------------
set {
	reference rhf
	basis cc-pvtz
}

set_num_threads( 4 )
memory 2 gb

molecule MOL {
0 1

H	 2.042947	 -1.203092	 -0.973992
C	 1.243678	 -0.508953	 -1.171915
O	 0.462329	 -0.453336	 -0.000137
H	 0.661779	 -0.866743	 -2.011914
H	 1.664600	 0.460663	 -1.406239
C	 -0.590565	 0.341382	 0.000062
O	 -1.693898	 -0.053880	 0.000252
H	 -0.340426	 1.403822	 0.000200

	symmetry c1
}
set optking {
	frozen_dihedral = ("
		2 3 6 7
	")
}

ee,wfn = optimize('scf', return_wfn=True)
oeprop( wfn, 'DIPOLE', 'QUADRUPOLE', 'MULLIKEN_CHARGES')
f=open( 'psi4out.xyz', 'w' )
f.write( "8  " )
f.write( str(ee) + "\n" )
f.write( MOL.save_string_xyz() )
f.close()
--------------------------------------------------------------------------

    Molecular point group: c1
  Charge       = 0
  Multiplicity = 1
  Basis Set: CC-PVTZ
  Basis Set:
  @DF-RHF Final Energy:  -227.86017320207432
    Total Energy =                       -227.8601732020741792
    Molecular point group: c1
  Basis Set: CC-PVTZ
  Basis Set:
  Basis Set: CC-PVTZ
  Basis Set:
  @DF-RHF Final Energy:  -227.86057936098510
    Total Energy =                       -227.8605793609849286
  Basis Set: CC-PVTZ
  Basis Set:
  Basis Set: CC-PVTZ
  Basis Set:
  @DF-RHF Final Energy:  -227.86062539890801
    Total Energy =                       -227.8606253989078994
  Basis Set: CC-PVTZ
  Basis Set:
  Basis Set: CC-PVTZ
  Basis Set:
  @DF-RHF Final Energy:  -227.86053369022630
    Total Energy =                       -227.8605336902262479
  Basis Set: CC-PVTZ
  Basis Set:
  Basis Set: CC-PVTZ
  Basis Set:
  @DF-RHF Final Energy:  -227.86063534505985
    Total Energy =                       -227.8606353450596202
  Basis Set: CC-PVTZ
  Basis Set:
  Charge       = 0
  Multiplicity = 1
  Basis Set: CC-PVTZ
  Basis Set:

    Orbital Energies (a.u.)
    -----------------------

    Doubly Occupied:

       1A    -20.593734     2A    -20.561628     3A    -11.376414
       4A    -11.299282     5A     -1.474565     6A     -1.387174
       7A     -0.986971     8A     -0.840636     9A     -0.740473
      10A     -0.691049    11A     -0.673238    12A     -0.625759
      13A     -0.566994    14A     -0.518279    15A     -0.476229
      16A     -0.461066

  @DF-RHF Final Energy:  -227.86063574875084

   => Energetics <=

    Nuclear Repulsion Energy =            121.8519262591746184
    One-Electron Energy =                -552.8781451684996000
    Two-Electron Energy =                 203.1655831605741582
    DFT Exchange-Correlation Energy =       0.0000000000000000
    Empirical Dispersion Energy =           0.0000000000000000
    PCM Polarization Energy =               0.0000000000000000
    EFP Energy =                            0.0000000000000000
    Total Energy =                       -227.8606357487508376
    Molecular point group: c1
  Basis Set: CC-PVTZ
  Basis Set:

  -Total Gradient:
     Atom            X                  Y                   Z
    ------   -----------------  -----------------  -----------------
       1       -0.000014566717     0.000010152766     0.000030419712
       2       -0.002114472589    -0.002217475464    -0.001384744528
       3        0.003099387813     0.003406400549    -0.000189861311
       4       -0.000002819898     0.000001917191     0.000007561398
       5        0.000008157385     0.000000970185     0.000001193612
       6       -0.001040193665    -0.001462314371     0.005934234670
       7        0.000069816668     0.000271489471    -0.004385457078
       8       -0.000005308996    -0.000011140328    -0.000013346473

  **** Optimization is complete! (in 6 steps) ****
    Final optimized geometry and variables:
    Molecular point group: c1

    Geometry (in Angstrom), charge = 0, multiplicity = 1:

    H            2.159613669713    -1.079889232545    -0.696419688635
    C            1.338875645860    -0.405814943963    -0.876112112548
    O            0.566656171980    -0.377923380170     0.304644890141
    H            0.744859808177    -0.766632079064    -1.705509848677
    H            1.731296083631     0.578397509720    -1.111524853066
    C           -0.412058011102     0.530121702242     0.337247087368
    O           -1.551311750686     0.266607363077     0.295631053860
    H           -0.044029778609     1.554690498158     0.402813088023

  Mulliken Charges: (a.u.)
   Center  Symbol    Alpha    Beta     Spin     Total
       1     H     0.44280  0.44280  0.00000  0.11440
       2     C     3.02401  3.02401  0.00000 -0.04802
       3     O     4.14677  4.14677  0.00000 -0.29355
       4     H     0.45567  0.45567  0.00000  0.08866
       5     H     0.46724  0.46724  0.00000  0.06553
       6     C     2.83220  2.83220  0.00000  0.33560
       7     O     4.16139  4.16139  0.00000 -0.32279
       8     H     0.46992  0.46992  0.00000  0.06016

   Total alpha = 16.00000, Total beta = 16.00000, Total charge =  0.00000

*** Psi4 exiting successfully. Buy a developer a beer!
