                              Psi4 1.0.54 Driver

  ==> Input File <==

--------------------------------------------------------------------------
set {
	reference rhf
	basis cc-pvtz
}

set_num_threads( 4 )
memory 2 gb

molecule MOL {
0 1

H	 3.273419	 0.176595	 -0.102789
N	 2.433987	 -0.362316	 -0.080024
C	 1.263552	 0.494993	 0.021953
H	 2.497638	 -0.973615	 0.707122
C	 -0.016533	 -0.325589	 -0.026925
H	 1.280915	 1.180773	 -0.818522
H	 1.263064	 1.106893	 0.925038
C	 -1.280353	 0.525521	 0.047747
H	 -0.016686	 -0.912532	 -0.939714
H	 -0.014099	 -1.037598	 0.796369
C	 -2.415326	 -0.014567	 -0.816042
H	 -1.047586	 1.541341	 -0.260304
H	 -1.614282	 0.589750	 1.079852
H	 -2.124350	 -0.059459	 -1.860096
H	 -3.296360	 0.612837	 -0.744676
H	 -2.697201	 -1.016528	 -0.509770

	symmetry c1
}
set optking {
	frozen_dihedral = ("
		12 8 5 9
	")
}

ee,wfn = optimize('scf', return_wfn=True)
oeprop( wfn, 'DIPOLE', 'QUADRUPOLE', 'MULLIKEN_CHARGES')
f=open( 'psi4out.xyz', 'w' )
f.write( "16  " )
f.write( str(ee) + "\n" )
f.write( MOL.save_string_xyz() )
f.close()
--------------------------------------------------------------------------

    Molecular point group: c1
  Charge       = 0
  Multiplicity = 1
  Basis Set: CC-PVTZ
  Basis Set:
  @DF-RHF Final Energy:  -212.39675064395533
    Total Energy =                       -212.3967506439553290
    Molecular point group: c1
  Basis Set: CC-PVTZ
  Basis Set:
  Basis Set: CC-PVTZ
  Basis Set:
  @DF-RHF Final Energy:  -212.39701608585256
    Total Energy =                       -212.3970160858526128
  Basis Set: CC-PVTZ
  Basis Set:
  Basis Set: CC-PVTZ
  Basis Set:
  @DF-RHF Final Energy:  -212.39707719916970
    Total Energy =                       -212.3970771991698143
  Basis Set: CC-PVTZ
  Basis Set:
  Basis Set: CC-PVTZ
  Basis Set:
  @DF-RHF Final Energy:  -212.39707873734548
    Total Energy =                       -212.3970787373455664
  Basis Set: CC-PVTZ
  Basis Set:
  Charge       = 0
  Multiplicity = 1
  Basis Set: CC-PVTZ
  Basis Set:

    Orbital Energies (a.u.)
    -----------------------

    Doubly Occupied:

       1A    -15.526685     2A    -11.238750     3A    -11.212862
       4A    -11.207741     5A    -11.206096     6A     -1.178624
       7A     -1.059048     8A     -0.959955     9A     -0.845368
      10A     -0.792849    11A     -0.664657    12A     -0.630303
      13A     -0.615505    14A     -0.576699    15A     -0.561997
      16A     -0.529790    17A     -0.498453    18A     -0.473549
      19A     -0.464432    20A     -0.456875    21A     -0.384116

  @DF-RHF Final Energy:  -212.39707885189182

   => Energetics <=

    Nuclear Repulsion Energy =            186.5386029158677843
    One-Electron Energy =                -655.7026578043280551
    Two-Electron Energy =                 256.7669760365682805
    DFT Exchange-Correlation Energy =       0.0000000000000000
    Empirical Dispersion Energy =           0.0000000000000000
    PCM Polarization Energy =               0.0000000000000000
    EFP Energy =                            0.0000000000000000
    Total Energy =                       -212.3970788518919903
    Molecular point group: c1
  Basis Set: CC-PVTZ
  Basis Set:

  -Total Gradient:
     Atom            X                  Y                   Z
    ------   -----------------  -----------------  -----------------
       1        0.000003547014     0.000003377597     0.000003831532
       2        0.000004205621    -0.000008737169    -0.000004340140
       3       -0.000020992802     0.000014441910    -0.000006726875
       4        0.000000802071    -0.000002442106     0.000005476333
       5        0.002567850818     0.004005481262    -0.001493784479
       6       -0.000000428594    -0.000006065568     0.000001092668
       7        0.000002735698    -0.000008573497    -0.000004951472
       8       -0.001583155763    -0.001912301537    -0.004239509913
       9       -0.001876394968    -0.003017730879     0.001917530551
      10       -0.000001069651    -0.000002170910     0.000008161642
      11       -0.000007569500     0.000002600856    -0.000005226332
      12        0.000901538767     0.000928928142     0.003799617317
      13       -0.000006371222    -0.000002137262     0.000005787086
      14        0.000002562167     0.000000527352     0.000012498038
      15        0.000006178847    -0.000002149594    -0.000000223987
      16        0.000006561490     0.000006951404     0.000000768030

  **** Optimization is complete! (in 5 steps) ****
    Final optimized geometry and variables:
    Molecular point group: c1

    Geometry (in Angstrom), charge = 0, multiplicity = 1:

    H            3.256352037108     0.107009041784     0.133719344080
    N            2.413986639673    -0.427824754901     0.130431122138
    C            1.244937725563     0.434573917791     0.181992411932
    H            2.445995906942    -1.033447052871     0.923825575531
    C           -0.036330594298    -0.378345583046     0.093213941898
    H            1.294358680567     1.113657241195    -0.662571325160
    H            1.212241343706     1.054606429954     1.079494991348
    C           -1.309647336509     0.473866989876     0.187008373717
    H           -0.034365312902    -0.961992052696    -0.821122827652
    H           -0.041120603997    -1.112921360117     0.895876894538
    C           -2.473792783960    -0.077009455300    -0.627364612323
    H           -1.091685793150     1.495028783432    -0.113728845148
    H           -1.610544248928     0.550049456215     1.227961767315
    H           -2.232687196234    -0.102069283334    -1.684565374991
    H           -3.363916924658     0.529051409149    -0.502671892883
    H           -2.717308511575    -1.089441439653    -0.322062618692

  Mulliken Charges: (a.u.)
   Center  Symbol    Alpha    Beta     Spin     Total
       1     H     0.43021  0.43021  0.00000  0.13958
       2     N     3.68960  3.68960  0.00000 -0.37919
       3     C     3.02597  3.02597  0.00000 -0.05195
       4     H     0.43076  0.43076  0.00000  0.13847
       5     C     3.08216  3.08216  0.00000 -0.16433
       6     H     0.45683  0.45683  0.00000  0.08634
       7     H     0.46775  0.46775  0.00000  0.06449
       8     C     3.09108  3.09108  0.00000 -0.18217
       9     H     0.45006  0.45006  0.00000  0.09989
      10     H     0.45932  0.45932  0.00000  0.08136
      11     C     3.14702  3.14702  0.00000 -0.29404
      12     H     0.45608  0.45608  0.00000  0.08784
      13     H     0.45452  0.45452  0.00000  0.09097
      14     H     0.45448  0.45448  0.00000  0.09105
      15     H     0.44982  0.44982  0.00000  0.10037
      16     H     0.45434  0.45434  0.00000  0.09132

   Total alpha = 21.00000, Total beta = 21.00000, Total charge = -0.00000

*** Psi4 exiting successfully. Buy a developer a beer!
