  ==> Input File <==

--------------------------------------------------------------------------
set {
	reference rhf
	basis 6-31G*
}

set_num_threads( 4 )
memory 2 gb

molecule MOL {
0 1

O	 -2.821601	 1.309235	 -0.001213
C	 -2.668563	 0.129746	 -0.000350
C	 -3.801572	 -0.864014	 -0.000442
O	 -1.481751	 -0.454642	 0.000584
H	 -4.417280	 -0.689587	 -0.874708
H	 -3.443784	 -1.883046	 -0.000565
H	 -4.417179	 -0.689832	 0.873954
C	 -0.334255	 0.388708	 0.000906
C	 0.891947	 -0.504646	 0.000751
H	 -0.365390	 1.025305	 -0.873475
H	 -0.365484	 1.024911	 0.875569
C	 2.191998	 0.301789	 0.000897
H	 0.855148	 -1.151283	 -0.871571
H	 0.855132	 -1.151660	 0.872805
C	 1.956851	 1.811382	 -0.077583
H	 2.760904	 0.074639	 0.900806
H	 2.812229	 -0.007808	 -0.838475
C	 3.255335	 2.616866	 -0.076080
H	 1.337506	 2.122524	 0.760676
H	 1.390452	 2.040410	 -0.977476
H	 3.828822	 2.434803	 0.828343
H	 3.056151	 3.682417	 -0.132303
H	 3.882000	 2.352333	 -0.923029

	symmetry c1
}
set optking {
	frozen_dihedral = ("
		16 12 9 13
	")
}

ee = optimize('scf')
oeprop('DIPOLE', 'QUADRUPOLE', 'MULLIKEN_CHARGES')
f=open( 'psi4out.xyz', 'w' )
f.write( "23  " )
f.write( str(ee) + "\n" )
f.write( MOL.save_string_xyz() )
f.close()
--------------------------------------------------------------------------

    Molecular point group: c1
  Charge       = 0
  Multiplicity = 1
  Basis Set: 6-31G*
  Basis Set:
  @DF-RHF Final Energy:  -422.96487779235849
    Total Energy =                       -422.9648777923584930
    Molecular point group: c1
  Basis Set: 6-31G*
  Basis Set:
  Basis Set: 6-31G*
  Basis Set:
  @DF-RHF Final Energy:  -422.96508156060281
    Total Energy =                       -422.9650815606026981
  Basis Set: 6-31G*
  Basis Set:
  Basis Set: 6-31G*
  Basis Set:
  @DF-RHF Final Energy:  -422.96908616882297
    Total Energy =                       -422.9690861688228551
  Basis Set: 6-31G*
  Basis Set:
  Basis Set: 6-31G*
  Basis Set:
  @DF-RHF Final Energy:  -422.96980667257361
    Total Energy =                       -422.9698066725729859
  Basis Set: 6-31G*
  Basis Set:
  @DF-RHF Final Energy:  -422.96990292191435
    Total Energy =                       -422.9699029219141266
  @DF-RHF Final Energy:  -422.96991548134258
    Total Energy =                       -422.9699154813426958
  @DF-RHF Final Energy:  -422.96992417590724
    Total Energy =                       -422.9699241759070674
  @DF-RHF Final Energy:  -422.96992910122077
    Total Energy =                       -422.9699291012207141
  @DF-RHF Final Energy:  -422.96992440621892
    Total Energy =                       -422.9699244062192065
  Basis Set: 6-31G*
  Basis Set:
  @DF-RHF Final Energy:  -422.96991784654000
    Total Energy =                       -422.9699178465400564
  Basis Set: 6-31G*
  Basis Set:
  Basis Set: 6-31G*
  Basis Set:
  @DF-RHF Final Energy:  -422.96992829701873
    Total Energy =                       -422.9699282970200329
  Basis Set: 6-31G*
  Basis Set:
  Basis Set: 6-31G*
  Basis Set:
  @DF-RHF Final Energy:  -422.96992930272290
    Total Energy =                       -422.9699293027238127
  Basis Set: 6-31G*
  Basis Set:
  Charge       = 0
  Multiplicity = 1
  Basis Set: 6-31G*
  Basis Set:

    Orbital Energies (a.u.)
    -----------------------

    Doubly Occupied:

       1A    -20.602596     2A    -20.540287     3A    -11.373861
       4A    -11.281100     5A    -11.232210     6A    -11.224363
       7A    -11.223797     8A    -11.222422     9A    -11.213163
      10A     -1.467594    11A     -1.360461    12A     -1.090199
      13A     -1.040259    14A     -1.001300    15A     -0.931272
      16A     -0.854296    17A     -0.788718    18A     -0.776964
      19A     -0.691133    20A     -0.684639    21A     -0.665268
      22A     -0.643637    23A     -0.604872    24A     -0.588408
      25A     -0.576205    26A     -0.569372    27A     -0.567922
      28A     -0.527801    29A     -0.524095    30A     -0.513765
      31A     -0.499202    32A     -0.473949    33A     -0.463055
      34A     -0.461796    35A     -0.445937    36A     -0.435611

  @DF-RHF Final Energy:  -422.96992928882048

   => Energetics <=

    Nuclear Repulsion Energy =            456.9348961452088815
    One-Electron Energy =               -1481.4865930855512488
    Two-Electron Energy =                 601.5817676515216590
    DFT Exchange-Correlation Energy =       0.0000000000000000
    Empirical Dispersion Energy =           0.0000000000000000
    PCM Polarization Energy =               0.0000000000000000
    EFP Energy =                            0.0000000000000000
    Total Energy =                       -422.9699292888208220
    Molecular point group: c1
  Basis Set: 6-31G*
  Basis Set:

  -Total Gradient:
     Atom            X                  Y                   Z
    ------   -----------------  -----------------  -----------------
       1        0.000004055280    -0.000000934508    -0.000003291605
       2        0.000000087626     0.000005082356    -0.000006751538
       3        0.000000649259     0.000002189009     0.000012068314
       4        0.000006176415    -0.000003170766    -0.000023846025
       5        0.000003668592     0.000000472506    -0.000001673486
       6        0.000001400536    -0.000005542082    -0.000000531716
       7       -0.000001360186     0.000000950151    -0.000002071742
       8       -0.000004679641    -0.000001198581     0.000067647271
       9       -0.000910923950     0.001596441727    -0.001623917213
      10       -0.000009988746    -0.000002080582    -0.000012612995
      11        0.000011025995     0.000005431742    -0.000009679146
      12       -0.000953655100     0.001594861207     0.001511592663
      13        0.000907214108    -0.001590798679     0.001115652643
      14       -0.000007215648     0.000004546688    -0.000001044975
      15       -0.000000464066    -0.000004260717    -0.000009671464
      16        0.000956403147    -0.001602592311    -0.001016680077
      17       -0.000002612118     0.000000952965    -0.000000657513
      18        0.000001033412     0.000000095512     0.000004306148
      19       -0.000005964212    -0.000003522699     0.000000381029
      20        0.000004566084     0.000002101040    -0.000000936735
      21        0.000001336230    -0.000000666102    -0.000000342170
      22        0.000000603638     0.000000976976     0.000002003340
      23       -0.000001356644     0.000000665152     0.000000056992

  **** Optimization is complete! (in 13 steps) ****
    Final optimized geometry and variables:
    Molecular point group: c1

    Geometry (in Angstrom), charge = 0, multiplicity = 1:

    O           -2.638265815119     0.681105984852     0.065828794828
    C           -2.408979385990    -0.485533548058     0.031295203875
    C           -3.475578679827    -1.550088586964     0.008597154387
    O           -1.187214554667    -0.991923526373     0.008860123801
    H           -4.108558815638    -1.390043482848    -0.856025474025
    H           -3.052882294883    -2.543416527853    -0.024400714103
    H           -4.093807317852    -1.442021309529     0.891781786800
    C           -0.095777120348    -0.075357876657     0.027334920615
    C            1.171506167655    -0.914495669218    -0.004066524422
    H           -0.180724850671     0.580930938297    -0.826598699401
    H           -0.166160033439     0.528697164853     0.920811411401
    C            2.512989234361    -0.132380328824     0.021105729150
    H            1.132464433914    -1.553116098279    -0.880221251466
    H            1.132652397736    -1.588348575398     0.845700299938
    C            2.446271861617     1.395312914775    -0.097331153386
    H            3.051719161502    -0.387072062021     0.929391069761
    H            3.136528117744    -0.500108755146    -0.789184172296
    C            3.837061675746     2.028556479254    -0.063927503103
    H            1.849869543098     1.811999846971     0.709592682684
    H            1.952438297345     1.676402446982    -1.023751992070
    H            4.350391327543     1.798408628310     0.865324070179
    H            3.777136292327     3.108797655411    -0.150316681297
    H            4.453678295650     1.664414274387    -0.880737062639

  Mulliken Charges: (a.u.)
   Center  Symbol    Alpha    Beta     Spin     Total
       1     O     4.28408  4.28408  0.00000 -0.56817
       2     C     2.61544  2.61544  0.00000  0.76911
       3     C     3.28778  3.28778  0.00000 -0.57556
       4     O     4.31346  4.31346  0.00000 -0.62692
       5     H     0.39757  0.39757  0.00000  0.20487
       6     H     0.39990  0.39990  0.00000  0.20020
       7     H     0.39757  0.39757  0.00000  0.20486
       8     C     2.99944  2.99944  0.00000  0.00113
       9     C     3.16856  3.16856  0.00000 -0.33713
      10     H     0.40911  0.40911  0.00000  0.18179
      11     H     0.40978  0.40978  0.00000  0.18045
      12     C     3.16027  3.16027  0.00000 -0.32054
      13     H     0.41186  0.41186  0.00000  0.17629
      14     H     0.41192  0.41192  0.00000  0.17616
      15     C     3.16023  3.16023  0.00000 -0.32046
      16     H     0.41797  0.41797  0.00000  0.16407
      17     H     0.41796  0.41796  0.00000  0.16408
      18     C     3.23935  3.23935  0.00000 -0.47871
      19     H     0.41933  0.41933  0.00000  0.16134
      20     H     0.41974  0.41974  0.00000  0.16052
      21     H     0.42083  0.42083  0.00000  0.15835
      22     H     0.41693  0.41693  0.00000  0.16614
      23     H     0.42093  0.42093  0.00000  0.15814

   Total alpha = 36.00000, Total beta = 36.00000, Total charge = -0.00000
