  ==> Input File <==

--------------------------------------------------------------------------
set {
	reference rhf
	basis 6-31G*
}

set_num_threads( 4 )
memory 2 gb

molecule MOL {
0 1

O	 2.114709	 2.532004	 -1.780383
C	 1.691832	 1.974161	 -2.746170
C	 0.407973	 1.164381	 -2.716174
C	 2.415937	 2.039272	 -4.075301
C	 -0.275965	 1.133511	 -1.352535
H	 -0.260796	 1.572000	 -3.473131
H	 0.642575	 0.155182	 -3.052151
C	 -1.564612	 0.309454	 -1.361482
H	 -0.490078	 2.150316	 -1.038860
H	 0.414172	 0.731700	 -0.617411
C	 -2.259874	 0.272531	 0.000494
H	 -2.250745	 0.715715	 -2.103251
H	 -1.342937	 -0.708602	 -1.678484
C	 -3.549786	 -0.549746	 -0.000374
H	 -2.482584	 1.289672	 0.318054
H	 -1.575201	 -0.134227	 0.742631
C	 -4.809590	 0.315458	 -0.000369
H	 -3.560515	 -1.202009	 -0.871156
H	 -3.561123	 -1.202955	 0.869711
H	 -4.844746	 0.956611	 -0.876632
H	 -5.706986	 -0.295590	 -0.001609
H	 -4.845960	 0.954827	 0.877144
H	 1.772243	 2.469679	 -4.836896
H	 3.308757	 2.640686	 -3.975260
H	 2.686463	 1.041528	 -4.408402

	symmetry c1
}
set optking {
	frozen_dihedral = ("
		15 11 14 18
	")
}

ee = optimize('scf')
oeprop('DIPOLE', 'QUADRUPOLE', 'MULLIKEN_CHARGES')
f=open( 'psi4out.xyz', 'w' )
f.write( "25  " )
f.write( str(ee) + "\n" )
f.write( MOL.save_string_xyz() )
f.close()
--------------------------------------------------------------------------

    Molecular point group: c1
  Charge       = 0
  Multiplicity = 1
  Basis Set: 6-31G*
  Basis Set:
  @DF-RHF Final Energy:  -387.13145592680354
    Total Energy =                       -387.1314559268041648
    Molecular point group: c1
  Basis Set: 6-31G*
  Basis Set:
  Basis Set: 6-31G*
  Basis Set:
  @DF-RHF Final Energy:  -387.13174897642108
    Total Energy =                       -387.1317489764212496
  Basis Set: 6-31G*
  Basis Set:
  Basis Set: 6-31G*
  Basis Set:
  @DF-RHF Final Energy:  -387.13184336665580
    Total Energy =                       -387.1318433666558576
  Basis Set: 6-31G*
  Basis Set:
  Charge       = 0
  Multiplicity = 1
  Basis Set: 6-31G*
  Basis Set:

    Orbital Energies (a.u.)
    -----------------------

    Doubly Occupied:

       1A    -20.550496     2A    -11.326334     3A    -11.231955
       4A    -11.228374     5A    -11.217250     6A    -11.216478
       7A    -11.215239     8A    -11.213403     9A    -11.208927
      10A     -1.395802    11A     -1.093028    12A     -1.055051
      13A     -1.013880    14A     -0.968260    15A     -0.891391
      16A     -0.818035    17A     -0.787571    18A     -0.729792
      19A     -0.658267    20A     -0.652960    21A     -0.624831
      22A     -0.621263    23A     -0.607281    24A     -0.587841
      25A     -0.569441    26A     -0.557082    27A     -0.533605
      28A     -0.526632    29A     -0.515804    30A     -0.491024
      31A     -0.485064    32A     -0.478264    33A     -0.463525
      34A     -0.455618    35A     -0.449755    36A     -0.399374

  @DF-RHF Final Energy:  -387.13184293706274

   => Energetics <=

    Nuclear Repulsion Energy =            440.6645322090008676
    One-Electron Energy =               -1397.9149618643045869
    Two-Electron Energy =                 570.1185867182408629
    DFT Exchange-Correlation Energy =       0.0000000000000000
    Empirical Dispersion Energy =           0.0000000000000000
    PCM Polarization Energy =               0.0000000000000000
    EFP Energy =                            0.0000000000000000
    Total Energy =                       -387.1318429370628564
    Molecular point group: c1
  Basis Set: 6-31G*
  Basis Set:

  -Total Gradient:
     Atom            X                  Y                   Z
    ------   -----------------  -----------------  -----------------
       1        0.000236493023    -0.000363977407     0.000105610745
       2       -0.000721680544     0.001101954097    -0.000350269550
       3        0.000227169361    -0.000339077095     0.000109932760
       4        0.000239214929    -0.000351198777     0.000113552415
       5        0.000004794905    -0.000008218771     0.000016181556
       6        0.000079963159     0.000048797335     0.000003494199
       7       -0.000075758786    -0.000049642306     0.000003699829
       8        0.000009148803    -0.000110470384     0.000042580519
       9        0.000019679165     0.000013087639    -0.000032977016
      10       -0.000020968465     0.000009247918     0.000024499708
      11        0.000333226341    -0.000485144237     0.003175867700
      12        0.000010365486     0.000031757355     0.000024020973
      13       -0.000022229556    -0.000013523441    -0.000069796046
      14        0.001427746263    -0.002552683358     0.001300794285
      15       -0.000506061625     0.000818188397    -0.002829397292
      16       -0.000005927837     0.000026231002    -0.000037743352
      17        0.000028974201     0.000014687347     0.000025092101
      18       -0.001266610669     0.002164906374    -0.001606967745
      19        0.000014632372     0.000042944719    -0.000019841460
      20       -0.000001389732     0.000005580014     0.000008174258
      21        0.000001607008    -0.000010447531    -0.000008421297
      22       -0.000024776493     0.000021737537    -0.000001499732
      23       -0.000036291987    -0.000000916871     0.000084058199
      24        0.000009992056    -0.000010933795     0.000000479266
      25        0.000038688615    -0.000002885761    -0.000081125022

  **** Optimization is complete! (in 4 steps) ****
    Final optimized geometry and variables:
    Molecular point group: c1

    Geometry (in Angstrom), charge = 0, multiplicity = 1:

    O            2.747009578977     1.533259393631    -0.232983678722
    C            2.330025453711     0.961862210031    -1.193377227700
    C            1.060453651585     0.130241253008    -1.152867363169
    C            3.053707592269     1.021522895573    -2.522999533534
    C            0.379726747684     0.100671348515     0.212461081857
    H            0.383390509171     0.519117039697    -1.912328895782
    H            1.311715964985    -0.877934582216    -1.479647380434
    C           -0.895052726900    -0.743966483604     0.214303261621
    H            0.150269400342     1.116833453361     0.517366341652
    H            1.077736362696    -0.283190556836     0.949927325916
    C           -1.578081039574    -0.794306485850     1.584734447940
    H           -1.594542953616    -0.347811495999    -0.520972744881
    H           -0.661232373180    -1.758209623003    -0.105695103479
    C           -2.902374047118    -1.585928946578     1.572795114693
    H           -1.770702930727     0.227957361606     1.902499344222
    H           -0.887463739789    -1.220886502204     2.306674594073
    C           -4.138440329329    -0.684360424881     1.528961688049
    H           -2.927619848222    -2.236100994491     0.701666754971
    H           -2.964736898664    -2.229753771729     2.444750555294
    H           -4.114610641542    -0.027147911608     0.663761201093
    H           -5.051445107159    -1.269546305959     1.473110044251
    H           -4.198526472857    -0.059114048293     2.415065203266
    H            2.404409502289     1.434522647455    -3.289444093510
    H            3.938239096770     1.636113816353    -2.429699927622
    H            3.337866953774     0.023848108971    -2.844815932884

  Mulliken Charges: (a.u.)
   Center  Symbol    Alpha    Beta     Spin     Total
       1     O     4.26113  4.26113  0.00000 -0.52226
       2     C     2.73572  2.73572  0.00000  0.52856
       3     C     3.21075  3.21075  0.00000 -0.42149
       4     C     3.28664  3.28664  0.00000 -0.57329
       5     C     3.14847  3.14847  0.00000 -0.29693
       6     H     0.41010  0.41010  0.00000  0.17979
       7     H     0.40993  0.40993  0.00000  0.18014
       8     C     3.15581  3.15581  0.00000 -0.31162
       9     H     0.41213  0.41213  0.00000  0.17574
      10     H     0.41222  0.41222  0.00000  0.17556
      11     C     3.15457  3.15457  0.00000 -0.30915
      12     H     0.42491  0.42491  0.00000  0.15017
      13     H     0.42438  0.42438  0.00000  0.15123
      14     C     3.15508  3.15508  0.00000 -0.31015
      15     H     0.42017  0.42017  0.00000  0.15966
      16     H     0.41927  0.41927  0.00000  0.16145
      17     C     3.23999  3.23999  0.00000 -0.47998
      18     H     0.42165  0.42165  0.00000  0.15669
      19     H     0.41932  0.41932  0.00000  0.16135
      20     H     0.42275  0.42275  0.00000  0.15451
      21     H     0.42037  0.42037  0.00000  0.15926
      22     H     0.42075  0.42075  0.00000  0.15851
      23     H     0.40881  0.40881  0.00000  0.18237
      24     H     0.39645  0.39645  0.00000  0.20710
      25     H     0.40862  0.40862  0.00000  0.18276

   Total alpha = 36.00000, Total beta = 36.00000, Total charge = -0.00000
