  ==> Input File <==

--------------------------------------------------------------------------
set {
	reference rhf
	basis cc-pvtz
}

set_num_threads( 4 )
memory 2 gb

molecule MOL {
0 1

H	 -0.750452	 0.829866	 1.329117
C	 0.277463	 0.893704	 0.990778
N	 0.526300	 -0.128137	 0.000000
H	 0.916420	 0.735221	 1.850229
H	 0.442724	 1.909182	 0.624628
C	 -0.247113	 0.037112	 -1.209233
H	 1.498142	 -0.159404	 -0.219555
H	 -0.996493	 -0.743733	 -1.271440
H	 0.397975	 -0.057351	 -2.073512
H	 -0.763794	 0.997171	 -1.271673

	symmetry c1
}
set optking {
	frozen_dihedral = ("
		2 3 6 8
	")
}

ee = optimize('scf')
oeprop('DIPOLE', 'QUADRUPOLE', 'MULLIKEN_CHARGES')
f=open( 'psi4out.xyz', 'w' )
f.write( "10  " )
f.write( str(ee) + "\n" )
f.write( MOL.save_string_xyz() )
f.close()
--------------------------------------------------------------------------

    Molecular point group: c1
  Charge       = 0
  Multiplicity = 1
  Basis Set: CC-PVTZ
  Basis Set:
  @DF-RHF Final Energy:  -134.28831443214318
    Total Energy =                       -134.2883144321430962
    Molecular point group: c1
  Basis Set: CC-PVTZ
  Basis Set:
  Basis Set: CC-PVTZ
  Basis Set:
  @DF-RHF Final Energy:  -134.28867626874325
    Total Energy =                       -134.2886762687431883
  Basis Set: CC-PVTZ
  Basis Set:
  Basis Set: CC-PVTZ
  Basis Set:
  @DF-RHF Final Energy:  -134.28874100237971
    Total Energy =                       -134.2887410023797372
  Basis Set: CC-PVTZ
  Basis Set:
  Charge       = 0
  Multiplicity = 1
  Basis Set: CC-PVTZ
  Basis Set:

    Orbital Energies (a.u.)
    -----------------------

    Doubly Occupied:

       1A    -15.530374     2A    -11.234405     3A    -11.234067
       4A     -1.197106     5A     -0.948294     6A     -0.854712
       7A     -0.660486     8A     -0.612360     9A     -0.589482
      10A     -0.544548    11A     -0.508445    12A     -0.506152
      13A     -0.361182

  @DF-RHF Final Energy:  -134.28874174109387

   => Energetics <=

    Nuclear Repulsion Energy =             84.4926337266313112
    One-Electron Energy =                -347.9995222391548850
    Two-Electron Energy =                 129.2181467714296161
    DFT Exchange-Correlation Energy =       0.0000000000000000
    Empirical Dispersion Energy =           0.0000000000000000
    PCM Polarization Energy =               0.0000000000000000
    EFP Energy =                            0.0000000000000000
    Total Energy =                       -134.2887417410939577
    Molecular point group: c1
  Basis Set: CC-PVTZ
  Basis Set:

  -Total Gradient:
     Atom            X                  Y                   Z
    ------   -----------------  -----------------  -----------------
       1        0.000028418782    -0.000038983691    -0.000057200907
       2        0.001674418329     0.001253298291    -0.000820603510
       3       -0.001815437377    -0.002175174733     0.000834123292
       4       -0.000001803010     0.000006047739     0.000034238485
       5       -0.000014356544    -0.000017889015    -0.000014367132
       6       -0.001690809099     0.002599935281     0.001390676356
       7       -0.000007589604     0.000018849499     0.000042379410
       8        0.001842316900    -0.001650949482    -0.001374847797
       9       -0.000001061282     0.000009605153    -0.000010141983
      10       -0.000014097097    -0.000004739041    -0.000024256214

  **** Optimization is complete! (in 4 steps) ****
    Final optimized geometry and variables:
    Molecular point group: c1

    Geometry (in Angstrom), charge = 0, multiplicity = 1:

    H           -0.931640317498     0.548552250364     1.428599816179
    C            0.092861253290     0.611536472102     1.080165039936
    N            0.336421567004    -0.407319157637     0.083912438404
    H            0.737583773825     0.447447860656     1.934577266501
    H            0.257475237854     1.627810705551     0.717634341161
    C           -0.438940609577    -0.262148730194    -1.137902672606
    H            1.307395477512    -0.434682361420    -0.130432989321
    H           -1.189999591367    -1.040331315349    -1.219250673003
    H            0.200054203076    -0.352018112942    -2.009369418539
    H           -0.934520266902     0.702556033282    -1.200195053224

  Mulliken Charges: (a.u.)
   Center  Symbol    Alpha    Beta     Spin     Total
       1     H     0.45631  0.45631  0.00000  0.08739
       2     C     3.08335  3.08335  0.00000 -0.16670
       3     N     3.63108  3.63108  0.00000 -0.26216
       4     H     0.45314  0.45314  0.00000  0.09372
       5     H     0.47394  0.47394  0.00000  0.05212
       6     C     3.07635  3.07635  0.00000 -0.15270
       7     H     0.44072  0.44072  0.00000  0.11856
       8     H     0.45603  0.45603  0.00000  0.08794
       9     H     0.46005  0.46005  0.00000  0.07990
      10     H     0.46904  0.46904  0.00000  0.06193

   Total alpha = 13.00000, Total beta = 13.00000, Total charge =  0.00000
