  ==> Input File <==

--------------------------------------------------------------------------
set {
	reference rhf
	basis 6-31G*
}

set_num_threads( 4 )
memory 2 gb

molecule MOL {
0 1

H	 -2.595951	 1.108464	 -2.067436
C	 -1.878858	 0.447560	 -1.620621
C	 -2.076860	 -0.007332	 -0.404944
H	 -1.009335	 0.174091	 -2.188121
O	 -1.180634	 -0.819263	 0.215062
H	 -2.944435	 0.248729	 0.177242
C	 0.051604	 -1.018856	 -0.387932
C	 1.043764	 0.054862	 -0.001873
H	 -0.017620	 -1.041351	 -1.469781
H	 0.437898	 -1.966374	 -0.042284
F	 2.212596	 -0.199467	 -0.571921
F	 0.652529	 1.252447	 -0.405055
F	 1.230877	 0.110694	 1.300533

	symmetry c1
}
set optking {
	frozen_dihedral = ("
		6 3 5 7
	")
}

ee = optimize('scf')
oeprop('DIPOLE', 'QUADRUPOLE', 'MULLIKEN_CHARGES')
f=open( 'psi4out.xyz', 'w' )
f.write( "13  " )
f.write( str(ee) + "\n" )
f.write( MOL.save_string_xyz() )
f.close()
--------------------------------------------------------------------------

    Molecular point group: c1
  Charge       = 0
  Multiplicity = 1
  Basis Set: 6-31G*
  Basis Set:
  @DF-RHF Final Energy:  -527.52634170043643
    Total Energy =                       -527.5263417004362054
    Molecular point group: c1
  Basis Set: 6-31G*
  Basis Set:
  Basis Set: 6-31G*
  Basis Set:
  @DF-RHF Final Energy:  -527.53098249402842
    Total Energy =                       -527.5309824940288763
  Basis Set: 6-31G*
  Basis Set:
  Basis Set: 6-31G*
  Basis Set:
  @DF-RHF Final Energy:  -527.53362621903409
    Total Energy =                       -527.5336262190342040
  Basis Set: 6-31G*
  Basis Set:
  Basis Set: 6-31G*
  Basis Set:
  @DF-RHF Final Energy:  -527.53427677468335
    Total Energy =                       -527.5342767746830077
  Basis Set: 6-31G*
  Basis Set:
  @DF-RHF Final Energy:  -527.53454683126188
    Total Energy =                       -527.5345468312618777
  Basis Set: 6-31G*
  Basis Set:
  @DF-RHF Final Energy:  -527.53464062638500
    Total Energy =                       -527.5346406263849985
  Basis Set: 6-31G*
  Basis Set:
  Basis Set: 6-31G*
  Basis Set:
  @DF-RHF Final Energy:  -527.53469666630053
    Total Energy =                       -527.5346966663006469
  Basis Set: 6-31G*
  Basis Set:
  Basis Set: 6-31G*
  Basis Set:
  @DF-RHF Final Energy:  -527.53470425300338
    Total Energy =                       -527.5347042530033832
  Basis Set: 6-31G*
  Basis Set:
  Charge       = 0
  Multiplicity = 1
  Basis Set: 6-31G*
  Basis Set:

    Orbital Energies (a.u.)
    -----------------------

    Doubly Occupied:

       1A    -26.342176     2A    -26.339989     3A    -26.338369
       4A    -20.611609     5A    -11.501803     6A    -11.316388
       7A    -11.303926     8A    -11.220535     9A     -1.739421
      10A     -1.637227    11A     -1.635610    12A     -1.438577
      13A     -1.080315    14A     -1.023637    15A     -0.932275
      16A     -0.838318    17A     -0.829018    18A     -0.825036
      19A     -0.765920    20A     -0.728956    21A     -0.708346
      22A     -0.699179    23A     -0.676551    24A     -0.657687
      25A     -0.655536    26A     -0.640380    27A     -0.633356
      28A     -0.597564    29A     -0.549290    30A     -0.524726
      31A     -0.515905    32A     -0.357156

  @DF-RHF Final Energy:  -527.53470494031330

   => Energetics <=

    Nuclear Repulsion Energy =            418.0716864108386517
    One-Electron Energy =               -1559.8832205044382135
    Two-Electron Energy =                 614.2768291532864851
    DFT Exchange-Correlation Energy =       0.0000000000000000
    Empirical Dispersion Energy =           0.0000000000000000
    PCM Polarization Energy =               0.0000000000000000
    EFP Energy =                            0.0000000000000000
    Total Energy =                       -527.5347049403131905
    Molecular point group: c1
  Basis Set: 6-31G*
  Basis Set:

  -Total Gradient:
     Atom            X                  Y                   Z
    ------   -----------------  -----------------  -----------------
       1        0.000006499373     0.000006684694    -0.000002451875
       2       -0.000004825286     0.000014307946    -0.000005691946
       3       -0.000993794310    -0.001514730378    -0.000439042966
       4        0.000008655754    -0.000008169795     0.000008674734
       5       -0.000794440329    -0.001941073702    -0.001132944769
       6        0.001079579214     0.001839316374     0.000707202457
       7        0.000711021456     0.001585092248     0.000869177255
       8       -0.000036045975     0.000013587346     0.000043749791
       9       -0.000019369006    -0.000001094557    -0.000006096698
      10       -0.000015175998     0.000006477037     0.000007291238
      11        0.000029485133    -0.000008017362    -0.000007900158
      12        0.000025902278     0.000012110501    -0.000003118413
      13        0.000002507713    -0.000004490348    -0.000038848652

  **** Optimization is complete! (in 9 steps) ****
    Final optimized geometry and variables:
    Molecular point group: c1

    Geometry (in Angstrom), charge = 0, multiplicity = 1:

    H           -3.053259430614     1.065151802668    -1.869083237699
    C           -2.222625669084     0.478716641156    -1.527094326778
    C           -2.245581953234     0.019712956074    -0.293570726853
    H           -1.418913857504     0.324331361359    -2.220363344488
    O           -1.337403526301    -0.748139220567     0.356396885735
    H           -3.059352307634     0.235778334065     0.371139312314
    C           -0.087242744104    -1.009115408914    -0.191287537592
    C            0.932707503551     0.023805712834     0.232106066181
    H           -0.100495470011    -1.067650845262    -1.269975291535
    H            0.239304832888    -1.960739763633     0.201744943328
    F            2.116257556304    -0.308114204805    -0.265200226828
    F            0.641236920335     1.235762192719    -0.200916685226
    F            1.048885101233     0.084178772323     1.544187144034

  Mulliken Charges: (a.u.)
   Center  Symbol    Alpha    Beta     Spin     Total
       1     H     0.40396  0.40396  0.00000  0.19209
       2     C     3.24097  3.24097  0.00000 -0.48193
       3     C     2.89748  2.89748  0.00000  0.20505
       4     H     0.40826  0.40826  0.00000  0.18347
       5     O     4.30834  4.30834  0.00000 -0.61668
       6     H     0.39649  0.39649  0.00000  0.20702
       7     C     3.05757  3.05757  0.00000 -0.11514
       8     C     2.45824  2.45824  0.00000  1.08351
       9     H     0.40198  0.40198  0.00000  0.19604
      10     H     0.39113  0.39113  0.00000  0.21775
      11     F     4.68353  4.68353  0.00000 -0.36706
      12     F     4.67591  4.67591  0.00000 -0.35181
      13     F     4.67616  4.67616  0.00000 -0.35232

   Total alpha = 32.00000, Total beta = 32.00000, Total charge =  0.00000
