  ==> Input File <==

--------------------------------------------------------------------------
set {
	reference rhf
	basis 6-31G*
}

set_num_threads( 1 )
memory 2 gb

molecule MOL {
0 1

H	 0.978501	 2.531359	 -0.287209
O	 1.269868	 1.868913	 0.324447
C	 0.709265	 0.639550	 -0.033818
C	 -0.793441	 0.596080	 0.058728
H	 1.136916	 -0.095293	 0.638732
H	 1.013477	 0.354111	 -1.040299
C	 -1.530462	 -0.493172	 -0.025500
H	 -1.268471	 1.554324	 0.202247
H	 -1.092586	 -1.461565	 -0.186463
H	 -2.602122	 -0.450675	 0.050101

	symmetry c1
}
set optking {
	frozen_dihedral = ("
		5 3 2 1,
		3 4 7 9
	")
}

ee = energy('scf')
oeprop('DIPOLE', 'QUADRUPOLE', 'MULLIKEN_CHARGES')
f=open( 'psi4out.xyz', 'w' )
f.write( "10  " )
f.write( str(ee) + "\n" )
f.write( MOL.save_string_xyz() )
f.close()
--------------------------------------------------------------------------

    Molecular point group: c1

    Geometry (in Angstrom), charge = 0, multiplicity = 1:

       Center              X                  Y                   Z               Mass
    ------------   -----------------  -----------------  -----------------  -----------------
           H          0.994228683867     1.820598008423    -0.365680926019     1.007825032070
           O          1.285595683867     1.158152008423     0.245975073981    15.994914619560
           C          0.724992683867    -0.071210991577    -0.112289926019    12.000000000000
           C         -0.777713316133    -0.114680991577    -0.019743926019    12.000000000000
           H          1.152643683867    -0.806053991577     0.560260073981     1.007825032070
           H          1.029204683867    -0.356649991577    -1.118770926019     1.007825032070
           C         -1.514734316133    -1.203932991577    -0.103971926019    12.000000000000
           H         -1.252743316133     0.843563008423     0.123775073981     1.007825032070
           H         -1.076858316133    -2.172325991577    -0.264934926019     1.007825032070
           H         -2.586394316133    -1.161435991577    -0.028370926019     1.007825032070

  Charge       = 0
  Multiplicity = 1
  Basis Set: 6-31G*
  Basis Set:

    Orbital Energies (a.u.)
    -----------------------

    Doubly Occupied:

       1A    -20.561659     2A    -11.276900     3A    -11.232124
       4A    -11.221323     5A     -1.370267     6A     -1.062680
       7A     -0.920341     8A     -0.778807     9A     -0.697158
      10A     -0.640324    11A     -0.623022    12A     -0.580801
      13A     -0.530548    14A     -0.500912    15A     -0.446457
      16A     -0.363303

  @DF-RHF Final Energy:  -191.91269075328879

   => Energetics <=

    Nuclear Repulsion Energy =            116.9611470198188670
    One-Electron Energy =                -492.1344231556813611
    Two-Electron Energy =                 183.2605853825734812
    DFT Exchange-Correlation Energy =       0.0000000000000000
    Empirical Dispersion Energy =           0.0000000000000000
    PCM Polarization Energy =               0.0000000000000000
    EFP Energy =                            0.0000000000000000
    Total Energy =                       -191.9126907532889845

  Mulliken Charges: (a.u.)
   Center  Symbol    Alpha    Beta     Spin     Total
       1     H     0.28195  0.28195  0.00000  0.43611
       2     O     4.36784  4.36784  0.00000 -0.73568
       3     C     3.00287  3.00287  0.00000 -0.00574
       4     C     3.09005  3.09005  0.00000 -0.18010
       5     H     0.40644  0.40644  0.00000  0.18712
       6     H     0.42176  0.42176  0.00000  0.15649
       7     C     3.19877  3.19877  0.00000 -0.39753
       8     H     0.40816  0.40816  0.00000  0.18368
       9     H     0.41344  0.41344  0.00000  0.17311
      10     H     0.40873  0.40873  0.00000  0.18254

   Total alpha = 16.00000, Total beta = 16.00000, Total charge = -0.00000
