                              Psi4 1.0.54 Driver

  ==> Input File <==

--------------------------------------------------------------------------
set {
	reference rhf
	basis cc-pvtz
}

set_num_threads( 4 )
memory 2 gb

molecule MOL {
0 1

O	 -1.937843	 -2.246412	 -0.049564
C	 -0.871730	 -1.731924	 -0.026059
C	 0.446622	 -2.463905	 -0.022658
O	 -0.695554	 -0.422406	 0.000602
C	 0.298401	 -3.976541	 -0.053273
H	 0.992202	 -2.138272	 0.856122
H	 1.014924	 -2.105483	 -0.873835
H	 -0.254793	 -4.331160	 0.806051
H	 1.274598	 -4.445980	 -0.049353
H	 -0.231876	 -4.298093	 -0.939635
C	 -1.852370	 0.402254	 0.000718
C	 -3.063338	 -0.501097	 -0.000437
H	 -1.831732	 1.039442	 -0.872158
H	 -1.832493	 1.038301	 0.874430
H	 -3.071944	 -1.133732	 -0.879113
H	 -3.966302	 0.097976	 -0.000483
H	 -3.072764	 -1.134834	 0.877435

	symmetry c1
}
set optking {
	frozen_dihedral = ("
		2 4 11 13
	")
}

ee,wfn = optimize('scf', return_wfn=True)
oeprop( wfn, 'DIPOLE', 'QUADRUPOLE', 'MULLIKEN_CHARGES')
f=open( 'psi4out.xyz', 'w' )
f.write( "17  " )
f.write( str(ee) + "\n" )
f.write( MOL.save_string_xyz() )
f.close()
--------------------------------------------------------------------------

    Molecular point group: c1
  Charge       = 0
  Multiplicity = 1
  Basis Set: CC-PVTZ
  Basis Set:
  @DF-RHF Final Energy:  -344.96530718270367
    Total Energy =                       -344.9653071827037252
    Molecular point group: c1
  Basis Set: CC-PVTZ
  Basis Set:
  Basis Set: CC-PVTZ
  Basis Set:
  @DF-RHF Final Energy:  -344.83619828683265
    Total Energy =                       -344.8361982868327686
  Basis Set: CC-PVTZ
  Basis Set:
  Basis Set: CC-PVTZ
  Basis Set:
  @DF-RHF Final Energy:  -344.88002131649711
    Total Energy =                       -344.8800213164971638
  Basis Set: CC-PVTZ
  Basis Set:
  Basis Set: CC-PVTZ
  Basis Set:
  @DF-RHF Final Energy:  -344.98266870462317
    Total Energy =                       -344.9826687046231655
  Basis Set: CC-PVTZ
  Basis Set:
  @DF-RHF Final Energy:  -345.01202830001557
    Total Energy =                       -345.0120283000153449
  @DF-RHF Final Energy:  -345.02656835148662
    Total Energy =                       -345.0265683514866737
  @DF-RHF Final Energy:  -345.02767305068323
    Total Energy =                       -345.0276730506828358
  @DF-RHF Final Energy:  -345.02480762935073
    Total Energy =                       -345.0248076293505619
  @DF-RHF Final Energy:  -345.02712090259490
    Total Energy =                       -345.0271209025948451
  Basis Set: CC-PVTZ
  Basis Set:
  @DF-RHF Final Energy:  -345.02798375951841
    Total Energy =                       -345.0279837595182926
  Basis Set: CC-PVTZ
  Basis Set:
  Basis Set: CC-PVTZ
  Basis Set:
  @DF-RHF Final Energy:  -345.02802374711439
    Total Energy =                       -345.0280237471142755
  Basis Set: CC-PVTZ
  Basis Set:
  Basis Set: CC-PVTZ
  Basis Set:
  @DF-RHF Final Energy:  -345.02804215924675
    Total Energy =                       -345.0280421592466951
  Basis Set: CC-PVTZ
  Basis Set:
  Charge       = 0
  Multiplicity = 1
  Basis Set: CC-PVTZ
  Basis Set:

    Orbital Energies (a.u.)
    -----------------------

    Doubly Occupied:

       1A    -20.589745     2A    -20.528052     3A    -11.364892
       4A    -11.289511     5A    -11.232721     6A    -11.213580
       7A    -11.211510     8A     -1.462197     9A     -1.364123
      10A     -1.068172    11A     -1.028570    12A     -0.920273
      13A     -0.859088    14A     -0.741988    15A     -0.689493
      16A     -0.686581    17A     -0.673408    18A     -0.628548
      19A     -0.601831    20A     -0.569296    21A     -0.546169
      22A     -0.530271    23A     -0.523322    24A     -0.517513
      25A     -0.494549    26A     -0.491511    27A     -0.443473
      28A     -0.430577

  @DF-RHF Final Energy:  -345.02804305461052

   => Energetics <=

    Nuclear Repulsion Energy =            318.7148238003869665
    One-Electron Energy =               -1102.0838062857633304
    Two-Electron Energy =                 438.3409394307660136
    DFT Exchange-Correlation Energy =       0.0000000000000000
    Empirical Dispersion Energy =           0.0000000000000000
    PCM Polarization Energy =               0.0000000000000000
    EFP Energy =                            0.0000000000000000
    Total Energy =                       -345.0280430546103503
    Molecular point group: c1
  Basis Set: CC-PVTZ
  Basis Set:

  -Total Gradient:
     Atom            X                  Y                   Z
    ------   -----------------  -----------------  -----------------
       1        0.000023102693    -0.000032621918    -0.000072317468
       2       -0.000940503706    -0.000355964690     0.000354234568
       3       -0.000031844782    -0.000023588177     0.000024300922
       4        0.001289834448     0.000771530755    -0.000317048212
       5        0.000025798445    -0.000022236717     0.000004804844
       6       -0.000001890429     0.000017200608    -0.000000257982
       7        0.000008805756    -0.000010624911    -0.000004043515
       8        0.000006806867     0.000013808766    -0.000000450680
       9       -0.000002545830     0.000006862076    -0.000015206580
      10        0.000009092688    -0.000015291006     0.000003285589
      11        0.000359161781    -0.000743349621    -0.000600872717
      12       -0.000020129019    -0.000057663906     0.000016798339
      13       -0.000713293148     0.000406762438     0.000635416813
      14       -0.000021935310     0.000001048976    -0.000051126099
      15        0.000023145103     0.000011700697     0.000012913789
      16       -0.000003803537     0.000000543565     0.000007405703
      17       -0.000009802021     0.000031883069     0.000002162683

  **** Optimization is complete! (in 13 steps) ****
    Final optimized geometry and variables:
    Molecular point group: c1

    Geometry (in Angstrom), charge = 0, multiplicity = 1:

    O            0.430246816097    -0.890066203198    -0.665005838437
    C            0.218631664003    -0.171801078624     0.250755200742
    C            0.740567108093    -0.400929805759     1.650511426174
    O           -0.492447233258     0.939091244870     0.210591427635
    C            1.591075411223    -1.654002826355     1.781657528232
    H           -0.118238645097    -0.436501765209     2.311595748472
    H            1.296890125034     0.484925301107     1.935562793370
    H            1.027714175083    -2.537572468739     1.513190641327
    H            1.934707769310    -1.764574463479     2.803093034036
    H            2.456050103407    -1.607938900616     1.133569766136
    C           -1.196937655925     1.480236438537    -0.908471208939
    C           -1.252382754216     0.697978995810    -2.207116066939
    H           -0.757203681181     2.453513940624    -1.079006132863
    H           -2.201850477290     1.640961523401    -0.542892472878
    H           -0.279324249150     0.563891689891    -2.651593542511
    H           -1.869388809683     1.276986876112    -2.887323931103
    H           -1.704229834560    -0.274055915998    -2.079492471563

  Mulliken Charges: (a.u.)
   Center  Symbol    Alpha    Beta     Spin     Total
       1     O     4.19810  4.19810  0.00000 -0.39620
       2     C     2.80700  2.80700  0.00000  0.38601
       3     C     3.08924  3.08924  0.00000 -0.17848
       4     O     4.15517  4.15517  0.00000 -0.31034
       5     C     3.14041  3.14041  0.00000 -0.28082
       6     H     0.44298  0.44298  0.00000  0.11404
       7     H     0.44229  0.44229  0.00000  0.11543
       8     H     0.44880  0.44880  0.00000  0.10241
       9     H     0.45098  0.45098  0.00000  0.09805
      10     H     0.44887  0.44887  0.00000  0.10226
      11     C     2.98402  2.98402  0.00000  0.03196
      12     C     3.14806  3.14806  0.00000 -0.29612
      13     H     0.45364  0.45364  0.00000  0.09272
      14     H     0.45299  0.45299  0.00000  0.09402
      15     H     0.44071  0.44071  0.00000  0.11858
      16     H     0.45268  0.45268  0.00000  0.09464
      17     H     0.44407  0.44407  0.00000  0.11185

   Total alpha = 28.00000, Total beta = 28.00000, Total charge = -0.00000

*** Psi4 exiting successfully. Buy a developer a beer!
