                              Psi4 1.0.54 Driver

  ==> Input File <==

--------------------------------------------------------------------------
set {
	reference rhf
	basis cc-pvtz
}

set_num_threads( 4 )
memory 2 gb

molecule MOL {
0 1

H	 -3.294565	 0.569785	 0.000000
C	 -2.246225	 0.343737	 0.000000
C	 -1.809462	 -0.973484	 0.000000
C	 -1.312577	 1.353775	 0.000000
H	 -2.523539	 -1.775124	 0.000000
C	 -0.467257	 -1.267606	 0.000000
H	 -1.631287	 2.379013	 0.000000
C	 0.046966	 1.074396	 0.000000
H	 -0.119372	 -2.281828	 0.000000
C	 0.471772	 -0.241514	 0.000000
H	 0.748162	 1.882966	 0.000000
O	 1.760432	 -0.625184	 0.000000
C	 2.692837	 0.063732	 0.777287
H	 2.770542	 1.102828	 0.477371
H	 3.642535	 -0.421073	 0.614793
H	 2.446202	 0.013444	 1.831967

	symmetry c1
}
set optking {
	frozen_dihedral = ("
		13 12 10 8
	")
}

ee,wfn = optimize('scf', return_wfn=True)
oeprop( wfn, 'DIPOLE', 'QUADRUPOLE', 'MULLIKEN_CHARGES')
f=open( 'psi4out.xyz', 'w' )
f.write( "16  " )
f.write( str(ee) + "\n" )
f.write( MOL.save_string_xyz() )
f.close()
--------------------------------------------------------------------------

    Molecular point group: c1
  Charge       = 0
  Multiplicity = 1
  Basis Set: CC-PVTZ
  Basis Set:
  @DF-RHF Final Energy:  -344.70100343473445
    Total Energy =                       -344.7010034347342753
    Molecular point group: c1
  Basis Set: CC-PVTZ
  Basis Set:
  Basis Set: CC-PVTZ
  Basis Set:
  @DF-RHF Final Energy:  -344.70141520092960
    Total Energy =                       -344.7014152009296026
  Basis Set: CC-PVTZ
  Basis Set:
  Basis Set: CC-PVTZ
  Basis Set:
  @DF-RHF Final Energy:  -344.70179565488098
    Total Energy =                       -344.7017956548810389
  Basis Set: CC-PVTZ
  Basis Set:
  Basis Set: CC-PVTZ
  Basis Set:
  @DF-RHF Final Energy:  -344.70182645911984
    Total Energy =                       -344.7018264591197294
  Basis Set: CC-PVTZ
  Basis Set:
  Charge       = 0
  Multiplicity = 1
  Basis Set: CC-PVTZ
  Basis Set:

    Orbital Energies (a.u.)
    -----------------------

    Doubly Occupied:

       1A    -20.574152     2A    -11.290400     3A    -11.276794
       4A    -11.231774     5A    -11.230490     6A    -11.223329
       7A    -11.219716     8A    -11.219571     9A     -1.412822
      10A     -1.151742    11A     -1.023841    12A     -1.017531
      13A     -0.940782    14A     -0.836148    15A     -0.809139
      16A     -0.722557    17A     -0.668735    18A     -0.666848
      19A     -0.652928    20A     -0.617750    21A     -0.593342
      22A     -0.583471    23A     -0.531095    24A     -0.517346
      25A     -0.509708    26A     -0.485032    27A     -0.455060
      28A     -0.339866    29A     -0.315432

  @DF-RHF Final Energy:  -344.70183067580257

   => Energetics <=

    Nuclear Repulsion Energy =            348.6583690223311010
    One-Electron Energy =               -1158.4856032274919926
    Two-Electron Energy =                 465.1254035293586639
    DFT Exchange-Correlation Energy =       0.0000000000000000
    Empirical Dispersion Energy =           0.0000000000000000
    PCM Polarization Energy =               0.0000000000000000
    EFP Energy =                            0.0000000000000000
    Total Energy =                       -344.7018306758022845
    Molecular point group: c1
  Basis Set: CC-PVTZ
  Basis Set:

  -Total Gradient:
     Atom            X                  Y                   Z
    ------   -----------------  -----------------  -----------------
       1       -0.000003950444    -0.000017031700    -0.000009284495
       2        0.000043142960     0.000243551432     0.000004618995
       3        0.000168003257    -0.000176059361    -0.000003813729
       4       -0.000263316155    -0.000075509530     0.000038717571
       5       -0.000012706592     0.000012288720     0.000005661278
       6       -0.000221962937    -0.000081446548    -0.000039753265
       7        0.000016370443    -0.000001281212    -0.000008470210
       8        0.000147971169    -0.000034658434    -0.001815490215
       9        0.000016304392     0.000003557256    -0.000008559605
      10       -0.000056865390    -0.000469619183     0.003470042229
      11       -0.000019312681     0.000015120960    -0.000014671543
      12        0.000317824559     0.001756355548    -0.002861404565
      13       -0.000177843405    -0.001230746054     0.001316733486
      14       -0.000013819767     0.000005836253    -0.000011708891
      15       -0.000003273679     0.000062632087     0.000065904900
      16        0.000063434277    -0.000012990236    -0.000128521940

  **** Optimization is complete! (in 5 steps) ****
    Final optimized geometry and variables:
    Molecular point group: c1

    Geometry (in Angstrom), charge = 0, multiplicity = 1:

    H           -3.293814858101     0.545287449824    -0.046913795961
    C           -2.241842473239     0.336699777658    -0.064540172220
    C           -1.787022970745    -0.966976902522    -0.168378326404
    C           -1.324541589828     1.363245329167     0.012856510589
    H           -2.489019429048    -1.776707820131    -0.231232305016
    C           -0.436252580942    -1.239040496046    -0.186944445085
    H           -1.661698074307     2.379777988226     0.086985741286
    C            0.035334294438     1.103931235358    -0.013144307089
    H           -0.072099269031    -2.244304347310    -0.267923086136
    C            0.480781349292    -0.202569919874    -0.105279140396
    H            0.732788268633     1.915969725269     0.034962047677
    O            1.787854136251    -0.534555880937    -0.183295847226
    C            2.712187499748     0.164285454214     0.602471905146
    H            2.912743072414     1.152814011932     0.206163999744
    H            3.628010715836    -0.406251073098     0.584063637901
    H            2.366179718894     0.254446368623     1.625605682837

  Mulliken Charges: (a.u.)
   Center  Symbol    Alpha    Beta     Spin     Total
       1     H     0.42408  0.42408  0.00000  0.15184
       2     C     3.09594  3.09594  0.00000 -0.19189
       3     C     3.06129  3.06129  0.00000 -0.12258
       4     C     3.06227  3.06227  0.00000 -0.12453
       5     H     0.42263  0.42263  0.00000  0.15473
       6     C     3.11100  3.11100  0.00000 -0.22200
       7     H     0.42280  0.42280  0.00000  0.15441
       8     C     3.12461  3.12461  0.00000 -0.24922
       9     H     0.41907  0.41907  0.00000  0.16186
      10     C     2.86085  2.86085  0.00000  0.27831
      11     H     0.42352  0.42352  0.00000  0.15295
      12     O     4.16269  4.16269  0.00000 -0.32537
      13     C     3.04495  3.04495  0.00000 -0.08990
      14     H     0.46184  0.46184  0.00000  0.07633
      15     H     0.44149  0.44149  0.00000  0.11703
      16     H     0.46098  0.46098  0.00000  0.07805

   Total alpha = 29.00000, Total beta = 29.00000, Total charge = -0.00000

*** Psi4 exiting successfully. Buy a developer a beer!
