  ==> Input File <==

--------------------------------------------------------------------------
set {
	reference rhf
	basis cc-pvtz
}

set_num_threads( 4 )
memory 2 gb

molecule MOL {
0 1

H	 -1.412831	 -1.277224	 0.411356
O	 -1.432053	 -0.565244	 -0.200812
C	 -0.727158	 0.534527	 0.310686
C	 0.680222	 0.664433	 -0.252229
H	 -1.306802	 1.408001	 0.044211
H	 -0.690821	 0.490158	 1.397609
C	 1.605391	 -0.489360	 0.123098
H	 0.615089	 0.745647	 -1.332226
H	 1.101414	 1.597893	 0.110950
H	 1.247627	 -1.432485	 -0.275204
H	 2.601435	 -0.332816	 -0.273062
H	 1.691776	 -0.589902	 1.200774

	symmetry c1
}
set optking {
	frozen_dihedral = ("
		1 2 3 4
	")
}

ee = optimize('scf')
oeprop('DIPOLE', 'QUADRUPOLE', 'MULLIKEN_CHARGES')
f=open( 'psi4out.xyz', 'w' )
f.write( "12  " )
f.write( str(ee) + "\n" )
f.write( MOL.save_string_xyz() )
f.close()
--------------------------------------------------------------------------

    Molecular point group: c1
  Charge       = 0
  Multiplicity = 1
  Basis Set: CC-PVTZ
  Basis Set:
  @DF-RHF Final Energy:  -193.18990317968613
    Total Energy =                       -193.1899031796860697
    Molecular point group: c1
  Basis Set: CC-PVTZ
  Basis Set:
  Basis Set: CC-PVTZ
  Basis Set:
  @DF-RHF Final Energy:  -193.19002702716847
    Total Energy =                       -193.1900270271685258
  Basis Set: CC-PVTZ
  Basis Set:
  Basis Set: CC-PVTZ
  Basis Set:
  @DF-RHF Final Energy:  -193.19005324598831
    Total Energy =                       -193.1900532459883948
  Basis Set: CC-PVTZ
  Basis Set:
  Basis Set: CC-PVTZ
  Basis Set:
  @DF-RHF Final Energy:  -193.19005447461689
    Total Energy =                       -193.1900544746170851
  Basis Set: CC-PVTZ
  Basis Set:
  Charge       = 0
  Multiplicity = 1
  Basis Set: CC-PVTZ
  Basis Set:

    Orbital Energies (a.u.)
    -----------------------

    Doubly Occupied:

       1A    -20.546003     2A    -11.266505     3A    -11.214004
       4A    -11.209257     5A     -1.363588     6A     -1.049891
       7A     -0.925199     8A     -0.805100     9A     -0.705520
      10A     -0.637009    11A     -0.596847    12A     -0.588628
      13A     -0.528780    14A     -0.514753    15A     -0.490049
      16A     -0.468873    17A     -0.431794

  @DF-RHF Final Energy:  -193.19005499011286

   => Energetics <=

    Nuclear Repulsion Energy =            133.1623548043937149
    One-Electron Energy =                -526.0212156650688939
    Two-Electron Energy =                 199.6688058705621813
    DFT Exchange-Correlation Energy =       0.0000000000000000
    Empirical Dispersion Energy =           0.0000000000000000
    PCM Polarization Energy =               0.0000000000000000
    EFP Energy =                            0.0000000000000000
    Total Energy =                       -193.1900549901129978
    Molecular point group: c1
  Basis Set: CC-PVTZ
  Basis Set:

  -Total Gradient:
     Atom            X                  Y                   Z
    ------   -----------------  -----------------  -----------------
       1       -0.000771621365     0.000280992995     0.000377539550
       2        0.000877527162    -0.000210014403    -0.000614419932
       3        0.000081906857    -0.000409859768     0.000644800483
       4       -0.000182596808     0.000335881254    -0.000421520215
       5        0.000008294085     0.000006568713     0.000002671895
       6       -0.000000704712    -0.000002717487     0.000003701528
       7       -0.000002894711    -0.000000963491     0.000011087342
       8       -0.000007977684     0.000004448140    -0.000003240703
       9       -0.000000035534     0.000002037500    -0.000002626389
      10        0.000002057682    -0.000002879564    -0.000003841522
      11       -0.000009136937     0.000002204878     0.000003115645
      12        0.000005181964    -0.000005698766     0.000002732317

  **** Optimization is complete! (in 5 steps) ****
    Final optimized geometry and variables:
    Molecular point group: c1

    Geometry (in Angstrom), charge = 0, multiplicity = 1:

    H           -1.390089162003    -1.290369122309     0.384408696143
    O           -1.410108886678    -0.571572803704    -0.217645763029
    C           -0.724976359990     0.536219185713     0.311347070767
    C            0.680890487286     0.665998918007    -0.252171801060
    H           -1.300528203818     1.416873545384     0.054158164367
    H           -0.690340935919     0.480724923470     1.396517605364
    C            1.600642226561    -0.490301425170     0.124497886836
    H            0.610544403664     0.741723926749    -1.332260174933
    H            1.102790664622     1.602238055541     0.103664464951
    H            1.216058162024    -1.431581758180    -0.249272402792
    H            2.591203763791    -0.352032414037    -0.292223485619
    H            1.706162788133    -0.572971910233     1.202238524673

  Mulliken Charges: (a.u.)
   Center  Symbol    Alpha    Beta     Spin     Total
       1     H     0.39074  0.39074  0.00000  0.21851
       2     O     4.20794  4.20794  0.00000 -0.41589
       3     C     2.97918  2.97918  0.00000  0.04165
       4     C     3.07485  3.07485  0.00000 -0.14971
       5     H     0.45254  0.45254  0.00000  0.09491
       6     H     0.46998  0.46998  0.00000  0.06003
       7     C     3.15934  3.15934  0.00000 -0.31868
       8     H     0.45288  0.45288  0.00000  0.09424
       9     H     0.45695  0.45695  0.00000  0.08610
      10     H     0.45140  0.45140  0.00000  0.09720
      11     H     0.44667  0.44667  0.00000  0.10666
      12     H     0.45751  0.45751  0.00000  0.08497

   Total alpha = 17.00000, Total beta = 17.00000, Total charge = -0.00000
