  ==> Input File <==

--------------------------------------------------------------------------
set {
	reference rhf
	basis 6-31G*
}

set_num_threads( 4 )
memory 2 gb

molecule MOL {
0 1

H	 1.404150	 -1.534056	 -0.368415
O	 1.654024	 -0.625927	 -0.460906
C	 1.135793	 0.118896	 0.612333
C	 0.031547	 1.023609	 0.088541
H	 1.915668	 0.729681	 1.063582
H	 0.754543	 -0.542641	 1.387006
C	 -1.134819	 0.293262	 -0.585751
H	 0.474374	 1.714721	 -0.623187
H	 -0.338529	 1.620940	 0.920081
C	 -1.917817	 -0.639439	 0.339494
H	 -0.758119	 -0.268455	 -1.433105
H	 -1.813832	 1.041889	 -0.986690
H	 -2.777680	 -1.057197	 -0.174994
H	 -1.310268	 -1.471279	 0.680599
H	 -2.283753	 -0.111424	 1.216626

	symmetry c1
}
set optking {
	frozen_dihedral = ("
		1 2 3 4
	")
}

ee = optimize('scf')
oeprop('DIPOLE', 'QUADRUPOLE', 'MULLIKEN_CHARGES')
f=open( 'psi4out.xyz', 'w' )
f.write( "15  " )
f.write( str(ee) + "\n" )
f.write( MOL.save_string_xyz() )
f.close()
--------------------------------------------------------------------------

    Molecular point group: c1
  Charge       = 0
  Multiplicity = 1
  Basis Set: 6-31G*
  Basis Set:
  @DF-RHF Final Energy:  -232.14130301543165
    Total Energy =                       -232.1413030154317312
    Molecular point group: c1
  Basis Set: 6-31G*
  Basis Set:
  Basis Set: 6-31G*
  Basis Set:
  @DF-RHF Final Energy:  -232.14191361093256
    Total Energy =                       -232.1419136109324199
  Basis Set: 6-31G*
  Basis Set:
  Basis Set: 6-31G*
  Basis Set:
  @DF-RHF Final Energy:  -232.14209930556257
    Total Energy =                       -232.1420993055623967
  Basis Set: 6-31G*
  Basis Set:
  Basis Set: 6-31G*
  Basis Set:
  @DF-RHF Final Energy:  -232.14208494711480
    Total Energy =                       -232.1420849471145402
  Basis Set: 6-31G*
  Basis Set:
  Basis Set: 6-31G*
  Basis Set:
  @DF-RHF Final Energy:  -232.14210283950084
    Total Energy =                       -232.1421028395007511
  Basis Set: 6-31G*
  Basis Set:
  Charge       = 0
  Multiplicity = 1
  Basis Set: 6-31G*
  Basis Set:

    Orbital Energies (a.u.)
    -----------------------

    Doubly Occupied:

       1A    -20.552404     2A    -11.267721     3A    -11.215027
       4A    -11.212545     5A    -11.212459     6A     -1.358392
       7A     -1.067057     8A     -0.973710     9A     -0.874378
      10A     -0.780022    11A     -0.702682    12A     -0.644783
      13A     -0.610751    14A     -0.581636    15A     -0.564012
      16A     -0.541136    17A     -0.504231    18A     -0.487385
      19A     -0.471948    20A     -0.456701    21A     -0.425393

  @DF-RHF Final Energy:  -232.14210292551883

   => Energetics <=

    Nuclear Repulsion Energy =            191.4017379133651389
    One-Electron Energy =                -694.0789324655884229
    Two-Electron Energy =                 270.5350916267043431
    DFT Exchange-Correlation Energy =       0.0000000000000000
    Empirical Dispersion Energy =           0.0000000000000000
    PCM Polarization Energy =               0.0000000000000000
    EFP Energy =                            0.0000000000000000
    Total Energy =                       -232.1421029255189410
    Molecular point group: c1
  Basis Set: 6-31G*
  Basis Set:

  -Total Gradient:
     Atom            X                  Y                   Z
    ------   -----------------  -----------------  -----------------
       1        0.000577321042    -0.000109112870     0.000406297715
       2       -0.000598781978     0.000292136883    -0.000535225683
       3       -0.000282088685    -0.000541188720     0.000180917630
       4        0.000304198124     0.000336597423    -0.000078228579
       5       -0.000012652306     0.000015013034    -0.000000289368
       6       -0.000013177632     0.000003000349     0.000017503301
       7        0.000008146783    -0.000013913046     0.000004538964
       8       -0.000008704760     0.000008901143    -0.000006276979
       9        0.000011011765     0.000000311674     0.000002394744
      10        0.000001446961     0.000002203721    -0.000001052682
      11        0.000001602850     0.000001710448     0.000002399026
      12        0.000006082667     0.000002979380     0.000006497030
      13       -0.000002551803     0.000002427069     0.000000167150
      14        0.000004077417    -0.000000763113     0.000000413449
      15        0.000004069551    -0.000000303374    -0.000000055717

  **** Optimization is complete! (in 6 steps) ****
    Final optimized geometry and variables:
    Molecular point group: c1

    Geometry (in Angstrom), charge = 0, multiplicity = 1:

    H            1.517369165674    -1.519413924570    -0.406747815511
    O            1.738613256516    -0.602765053974    -0.461552076509
    C            1.143546819308     0.108252928830     0.599525109497
    C            0.025758615638     1.015274391041     0.099163196218
    H            1.915691975595     0.713499034943     1.061861594219
    H            0.778770147063    -0.574336792404     1.361689764953
    C           -1.140106865659     0.287939436335    -0.578061181212
    H            0.460270765869     1.716999944405    -0.607185367895
    H           -0.343124858252     1.602079631111     0.939453703883
    C           -1.949737055005    -0.618480711336     0.351763281945
    H           -0.757458956704    -0.290322189904    -1.413573231664
    H           -1.806711667737     1.032760153970    -1.004725026214
    H           -2.796789840974    -1.050313956420    -0.172083469512
    H           -1.357471685172    -1.442456278198     0.738987128211
    H           -2.336076376936    -0.064125785363     1.202817472419

  Mulliken Charges: (a.u.)
   Center  Symbol    Alpha    Beta     Spin     Total
       1     H     0.27948  0.27948  0.00000  0.44103
       2     O     4.37182  4.37182  0.00000 -0.74365
       3     C     3.00185  3.00185  0.00000 -0.00369
       4     C     3.15793  3.15793  0.00000 -0.31585
       5     H     0.41824  0.41824  0.00000  0.16352
       6     H     0.42979  0.42979  0.00000  0.14041
       7     C     3.15866  3.15866  0.00000 -0.31732
       8     H     0.41389  0.41389  0.00000  0.17222
       9     H     0.42644  0.42644  0.00000  0.14711
      10     C     3.24183  3.24183  0.00000 -0.48367
      11     H     0.41474  0.41474  0.00000  0.17052
      12     H     0.41952  0.41952  0.00000  0.16096
      13     H     0.41754  0.41754  0.00000  0.16493
      14     H     0.42690  0.42690  0.00000  0.14620
      15     H     0.42136  0.42136  0.00000  0.15727

   Total alpha = 21.00000, Total beta = 21.00000, Total charge = -0.00000
