                              Psi4 1.0.54 Driver

  ==> Input File <==

--------------------------------------------------------------------------
set {
	reference rhf
	basis cc-pvtz
}

set_num_threads( 4 )
memory 2 gb

molecule MOL {
0 1

H	 1.481992	 1.068018	 -1.990039
O	 0.626740	 0.897947	 -1.641806
C	 0.700177	 0.619554	 -0.266242
C	 -0.713111	 0.588314	 0.266177
H	 1.265516	 1.389054	 0.250659
H	 1.177943	 -0.340573	 -0.089398
O	 -1.421673	 -0.521378	 -0.196983
H	 -1.244794	 1.469161	 -0.069059
H	 -0.685100	 0.604721	 1.352683
H	 -0.933408	 -1.297830	 0.014544

	symmetry c1
}
set optking {
	frozen_dihedral = ("
		5 3 4 7
	")
}

ee,wfn = optimize('scf', return_wfn=True)
oeprop( wfn, 'DIPOLE', 'QUADRUPOLE', 'MULLIKEN_CHARGES')
f=open( 'psi4out.xyz', 'w' )
f.write( "10  " )
f.write( str(ee) + "\n" )
f.write( MOL.save_string_xyz() )
f.close()
--------------------------------------------------------------------------

    Molecular point group: c1
  Charge       = 0
  Multiplicity = 1
  Basis Set: CC-PVTZ
  Basis Set:
  @DF-RHF Final Energy:  -229.02258820422168
    Total Energy =                       -229.0225882042216767
    Molecular point group: c1
  Basis Set: CC-PVTZ
  Basis Set:
  Basis Set: CC-PVTZ
  Basis Set:
  @DF-RHF Final Energy:  -227.72639405579244
    Total Energy =                       -227.7263940557923547
  Basis Set: CC-PVTZ
  Basis Set:
  Basis Set: CC-PVTZ
  Basis Set:
  @DF-RHF Final Energy:  -227.86392108381267
    Total Energy =                       -227.8639210838126417
  Basis Set: CC-PVTZ
  Basis Set:
  Basis Set: CC-PVTZ
  Basis Set:
  @DF-RHF Final Energy:  -228.15368318796041
    Total Energy =                       -228.1536831879603824
  Basis Set: CC-PVTZ
  Basis Set:
  @DF-RHF Final Energy:  -228.44454504090697
    Total Energy =                       -228.4445450409069451
  @DF-RHF Final Energy:  -228.29713725157336
    Total Energy =                       -228.2971372515733322
  @DF-RHF Final Energy:  -228.48563680636266
    Total Energy =                       -228.4856368063627770
  @DF-RHF Final Energy:  -228.55757181466083
    Total Energy =                       -228.5575718146608608
  @DF-RHF Final Energy:  -228.53339398372177
    Total Energy =                       -228.5333939837217656
  @DF-RHF Final Energy:  -228.60119395468712
    Total Energy =                       -228.6011939546872895
  @DF-RHF Final Energy:  -228.80997563047120
    Total Energy =                       -228.8099756304712002
  @DF-RHF Final Energy:  -228.97516342745010
    Total Energy =                       -228.9751634274500702
  @DF-RHF Final Energy:  -229.01855442300874
    Total Energy =                       -229.0185544230087089
  @DF-RHF Final Energy:  -229.02172133531175
    Total Energy =                       -229.0217213353116392
  @DF-RHF Final Energy:  -229.02165108714448
    Total Energy =                       -229.0216510871446189
  @DF-RHF Final Energy:  -229.02117049019336
    Total Energy =                       -229.0211704901933274
  @DF-RHF Final Energy:  -229.02294388787004
    Total Energy =                       -229.0229438878700989
  Basis Set: CC-PVTZ
  Basis Set:
  @DF-RHF Final Energy:  -229.02337637607519
    Total Energy =                       -229.0233763760751060
  Basis Set: CC-PVTZ
  Basis Set:
  Basis Set: CC-PVTZ
  Basis Set:
  @DF-RHF Final Energy:  -229.02339869101689
    Total Energy =                       -229.0233986910168653
  Basis Set: CC-PVTZ
  Basis Set:
  Basis Set: CC-PVTZ
  Basis Set:
  @DF-RHF Final Energy:  -229.02340351794535
    Total Energy =                       -229.0234035179454679
  Basis Set: CC-PVTZ
  Basis Set:
  Charge       = 0
  Multiplicity = 1
  Basis Set: CC-PVTZ
  Basis Set:

    Orbital Energies (a.u.)
    -----------------------

    Doubly Occupied:

       1A    -20.551744     2A    -20.546415     3A    -11.274511
       4A    -11.268570     5A     -1.378932     6A     -1.358533
       7A     -1.003852     8A     -0.847098     9A     -0.723217
      10A     -0.679026    11A     -0.657975    12A     -0.600886
      13A     -0.574109    14A     -0.544119    15A     -0.480961
      16A     -0.449040    17A     -0.440590

  @DF-RHF Final Energy:  -229.02340417981853

   => Energetics <=

    Nuclear Repulsion Energy =            133.3266064408250315
    One-Electron Energy =                -577.9408589430906886
    Two-Electron Energy =                 215.5908483224471013
    DFT Exchange-Correlation Energy =       0.0000000000000000
    Empirical Dispersion Energy =           0.0000000000000000
    PCM Polarization Energy =               0.0000000000000000
    EFP Energy =                            0.0000000000000000
    Total Energy =                       -229.0234041798185842
    Molecular point group: c1
  Basis Set: CC-PVTZ
  Basis Set:

  -Total Gradient:
     Atom            X                  Y                   Z
    ------   -----------------  -----------------  -----------------
       1       -0.000011962693    -0.000019999246     0.000007726413
       2        0.000041374537     0.000017980899    -0.000064453743
       3       -0.000288206207    -0.000202310627    -0.000712557067
       4       -0.000166304964    -0.000330750036    -0.000591131473
       5        0.000268863352     0.000192612649     0.000766776521
       6        0.000030933775     0.000034233544     0.000033361046
       7        0.000189928486     0.000321801763     0.000640177927
       8       -0.000024188357     0.000001467996    -0.000030445713
       9       -0.000012245733     0.000012041778     0.000007735583
      10       -0.000028192197    -0.000027078722    -0.000057189496

  **** Optimization is complete! (in 18 steps) ****
    Final optimized geometry and variables:
    Molecular point group: c1

    Geometry (in Angstrom), charge = 0, multiplicity = 1:

    H            1.319676337572     0.892651957891    -1.730986313232
    O            0.643428727578     0.367216998044    -1.345444499701
    C            0.254359030398     0.903782156157    -0.115926420534
    C           -0.768230146684    -0.002486897124     0.533298221733
    H           -0.189873781831     1.889643632904    -0.239427210392
    H            1.111389350736     1.015674326905     0.548404677159
    O           -0.251711383837    -1.232666942355     0.947219874166
    H           -1.550105248186    -0.222053909236    -0.180217504097
    H           -1.217199890298     0.529919630672     1.369621790264
    H            0.427850071696    -1.102085224093     1.583143817756

  Mulliken Charges: (a.u.)
   Center  Symbol    Alpha    Beta     Spin     Total
       1     H     0.39581  0.39581  0.00000  0.20838
       2     O     4.19093  4.19093  0.00000 -0.38185
       3     C     2.96439  2.96439  0.00000  0.07122
       4     C     2.96535  2.96535  0.00000  0.06930
       5     H     0.47607  0.47607  0.00000  0.04786
       6     H     0.48333  0.48333  0.00000  0.03333
       7     O     4.19695  4.19695  0.00000 -0.39391
       8     H     0.45556  0.45556  0.00000  0.08887
       9     H     0.47463  0.47463  0.00000  0.05073
      10     H     0.39697  0.39697  0.00000  0.20607

   Total alpha = 17.00000, Total beta = 17.00000, Total charge =  0.00000

*** Psi4 exiting successfully. Buy a developer a beer!
