  ==> Input File <==

--------------------------------------------------------------------------
set {
	reference rhf
	basis 6-31G*
}

set_num_threads( 1 )
memory 2 gb

molecule MOL {
0 1

H	 2.833487	 -0.367563	 -0.337186
O	 1.994368	 -0.817417	 -0.354401
C	 1.050492	 0.053836	 0.000068
C	 -0.318135	 -0.576402	 0.000164
O	 1.302099	 1.181770	 0.274757
C	 -1.454360	 0.441875	 -0.000474
H	 -0.374042	 -1.230163	 -0.866135
H	 -0.374274	 -1.229227	 0.867154
C	 -2.826123	 -0.230780	 0.000056
H	 -1.357605	 1.085198	 -0.868380
H	 -1.357504	 1.086451	 0.866496
H	 -2.959731	 -0.858053	 -0.876869
H	 -3.619374	 0.509403	 -0.000080
H	 -2.959371	 -0.857318	 0.877556

	symmetry c1
}
set optking {
	frozen_dihedral = ("
		7 4 6 10,
		1 2 3 5
	")
}

ee = energy('scf')
oeprop('DIPOLE', 'QUADRUPOLE', 'MULLIKEN_CHARGES')
f=open( 'psi4out.xyz', 'w' )
f.write( "14  " )
f.write( str(ee) + "\n" )
f.write( MOL.save_string_xyz() )
f.close()
--------------------------------------------------------------------------

    Molecular point group: c1

    Geometry (in Angstrom), charge = 0, multiplicity = 1:

       Center              X                  Y                   Z               Mass
    ------------   -----------------  -----------------  -----------------  -----------------
           H          2.834608899248    -0.369996852360    -0.318830850695     1.007825032070
           O          1.995489899248    -0.819850852360    -0.336045850695    15.994914619560
           C          1.051613899248     0.051402147640     0.018423149305    12.000000000000
           C         -0.317013100752    -0.578835852360     0.018519149305    12.000000000000
           O          1.303220899248     1.179336147640     0.293112149305    15.994914619560
           C         -1.453238100752     0.439441147640     0.017881149305    12.000000000000
           H         -0.372920100752    -1.232596852360    -0.847779850695     1.007825032070
           H         -0.373152100752    -1.231660852360     0.885509149305     1.007825032070
           C         -2.825001100752    -0.233213852360     0.018411149305    12.000000000000
           H         -1.356483100752     1.082764147640    -0.850024850695     1.007825032070
           H         -1.356382100752     1.084017147640     0.884851149305     1.007825032070
           H         -2.958609100752    -0.860486852360    -0.858513850695     1.007825032070
           H         -3.618252100752     0.506969147640     0.018275149305     1.007825032070
           H         -2.958249100752    -0.859751852360     0.895911149305     1.007825032070

  Charge       = 0
  Multiplicity = 1
  Basis Set: 6-31G*
  Basis Set:

    Orbital Energies (a.u.)
    -----------------------

    Doubly Occupied:

       1A    -20.613425     2A    -20.551925     3A    -11.381766
       4A    -11.241109     5A    -11.226391     6A    -11.217449
       7A     -1.475236     8A     -1.366232     9A     -1.083440
      10A     -0.979797    11A     -0.857343    12A     -0.792238
      13A     -0.700519    14A     -0.688625    15A     -0.665658
      16A     -0.616561    17A     -0.594150    18A     -0.572976
      19A     -0.545612    20A     -0.506329    21A     -0.492237
      22A     -0.482408    23A     -0.478598    24A     -0.444211

  @DF-RHF Final Energy:  -305.88055673882536

   => Energetics <=

    Nuclear Repulsion Energy =            239.9390675598402822
    One-Electron Energy =                -892.4907802007145392
    Two-Electron Energy =                 346.6711559020490085
    DFT Exchange-Correlation Energy =       0.0000000000000000
    Empirical Dispersion Energy =           0.0000000000000000
    PCM Polarization Energy =               0.0000000000000000
    EFP Energy =                            0.0000000000000000
    Total Energy =                       -305.8805567388252484

  Mulliken Charges: (a.u.)
   Center  Symbol    Alpha    Beta     Spin     Total
       1     H     0.26791  0.26791  0.00000  0.46418
       2     O     4.35093  4.35093  0.00000 -0.70185
       3     C     2.62285  2.62285  0.00000  0.75430
       4     C     3.20999  3.20999  0.00000 -0.41998
       5     O     4.27912  4.27912  0.00000 -0.55824
       6     C     3.15352  3.15352  0.00000 -0.30703
       7     H     0.39956  0.39956  0.00000  0.20089
       8     H     0.39782  0.39782  0.00000  0.20436
       9     C     3.24281  3.24281  0.00000 -0.48563
      10     H     0.41291  0.41291  0.00000  0.17418
      11     H     0.40690  0.40690  0.00000  0.18621
      12     H     0.42070  0.42070  0.00000  0.15859
      13     H     0.41443  0.41443  0.00000  0.17113
      14     H     0.42055  0.42055  0.00000  0.15891

   Total alpha = 24.00000, Total beta = 24.00000, Total charge = -0.00000
