  ==> Input File <==

--------------------------------------------------------------------------
set {
	reference rhf
	basis 6-31G*
}

set_num_threads( 4 )
memory 2 gb

molecule MOL {
0 1

O	 3.225979	 0.970355	 -0.599647
C	 2.701189	 0.057885	 -0.047330
C	 1.245376	 -0.013843	 0.345420
O	 3.347903	 -1.046386	 0.304773
C	 0.455112	 1.231400	 -0.050772
H	 0.838542	 -0.913825	 -0.103701
H	 1.208210	 -0.175333	 1.419774
C	 -0.998893	 1.219485	 0.433193
H	 0.482531	 1.345121	 -1.130325
H	 0.957290	 2.103070	 0.354729
C	 -1.883438	 0.145884	 -0.207175
H	 -1.431207	 2.195402	 0.224832
H	 -1.019646	 1.105716	 1.516076
C	 -3.347647	 0.245583	 0.225435
H	 -1.822183	 0.231698	 -1.291012
H	 -1.510341	 -0.844814	 0.042401
C	 -4.239992	 -0.825570	 -0.404234
H	 -3.732888	 1.230466	 -0.033079
H	 -3.408585	 0.170602	 1.310038
C	 -4.298518	 -0.733916	 -1.928660
H	 -3.878281	 -1.810279	 -0.115868
H	 -5.246169	 -0.739927	 0.000803
H	 -4.938363	 -1.505695	 -2.345269
H	 -3.311243	 -0.850918	 -2.366604
H	 -4.689097	 0.227930	 -2.248929
C	 4.728119	 -1.109107	 -0.004993
H	 4.882018	 -1.033965	 -1.071845
H	 5.068212	 -2.067527	 0.355250
H	 5.265056	 -0.311663	 0.488280

	symmetry c1
}
set optking {
	frozen_dihedral = ("
		21 17 14 11
	")
}

ee = optimize('scf')
oeprop('DIPOLE', 'QUADRUPOLE', 'MULLIKEN_CHARGES')
f=open( 'psi4out.xyz', 'w' )
f.write( "29  " )
f.write( str(ee) + "\n" )
f.write( MOL.save_string_xyz() )
f.close()
--------------------------------------------------------------------------

    Molecular point group: c1
  Charge       = 0
  Multiplicity = 1
  Basis Set: 6-31G*
  Basis Set:
  @DF-RHF Final Energy:  -501.04178218333402
    Total Energy =                       -501.0417821833334528
    Molecular point group: c1
  Basis Set: 6-31G*
  Basis Set:
  Basis Set: 6-31G*
  Basis Set:
  @DF-RHF Final Energy:  -501.04215867027676
    Total Energy =                       -501.0421586702764216
  Basis Set: 6-31G*
  Basis Set:
  Basis Set: 6-31G*
  Basis Set:
  @DF-RHF Final Energy:  -501.04249212048285
    Total Energy =                       -501.0424921204823931
  Basis Set: 6-31G*
  Basis Set:
  Basis Set: 6-31G*
  Basis Set:
  @DF-RHF Final Energy:  -501.04250506391361
    Total Energy =                       -501.0425050639132678
  Basis Set: 6-31G*
  Basis Set:
  Basis Set: 6-31G*
  Basis Set:
  @DF-RHF Final Energy:  -501.04250571015245
    Total Energy =                       -501.0425057101523407
  Basis Set: 6-31G*
  Basis Set:
  Basis Set: 6-31G*
  Basis Set:
  @DF-RHF Final Energy:  -501.04251057066426
    Total Energy =                       -501.0425105706632394
  Basis Set: 6-31G*
  Basis Set:
  Basis Set: 6-31G*
  Basis Set:
  @DF-RHF Final Energy:  -501.04251204403226
    Total Energy =                       -501.0425120440320370
  Basis Set: 6-31G*
  Basis Set:
  Charge       = 0
  Multiplicity = 1
  Basis Set: 6-31G*
  Basis Set:

    Orbital Energies (a.u.)
    -----------------------

    Doubly Occupied:

       1A    -20.603375     2A    -20.545199     3A    -11.372006
       4A    -11.280667     5A    -11.234737     6A    -11.219045
       7A    -11.217599     8A    -11.216224     9A    -11.215584
      10A    -11.214687    11A    -11.208834    12A     -1.469070
      13A     -1.362512    14A     -1.098073    15A     -1.066292
      16A     -1.018094    17A     -0.975764    18A     -0.928292
      19A     -0.870324    20A     -0.802993    21A     -0.779558
      22A     -0.763769    23A     -0.700408    24A     -0.682365
      25A     -0.672092    26A     -0.645026    27A     -0.625620
      28A     -0.610036    29A     -0.601150    30A     -0.584316
      31A     -0.558477    32A     -0.554201    33A     -0.538689
      34A     -0.525709    35A     -0.517520    36A     -0.504637
      37A     -0.502287    38A     -0.476912    39A     -0.472728
      40A     -0.459720    41A     -0.456589    42A     -0.452925
      43A     -0.441807    44A     -0.435681

  @DF-RHF Final Energy:  -501.04251258980810

   => Energetics <=

    Nuclear Repulsion Energy =            616.0655480967299127
    One-Electron Energy =               -1903.2529331278483369
    Two-Electron Energy =                 786.1448724413102127
    DFT Exchange-Correlation Energy =       0.0000000000000000
    Empirical Dispersion Energy =           0.0000000000000000
    PCM Polarization Energy =               0.0000000000000000
    EFP Energy =                            0.0000000000000000
    Total Energy =                       -501.0425125898083252
    Molecular point group: c1
  Basis Set: 6-31G*
  Basis Set:

  -Total Gradient:
     Atom            X                  Y                   Z
    ------   -----------------  -----------------  -----------------
       1        0.000004621285     0.000002234334     0.000006811090
       2       -0.000000581735    -0.000000437628    -0.000022068031
       3       -0.000020333159    -0.000001804462    -0.000012284796
       4       -0.000000523787     0.000004199258     0.000007832593
       5       -0.000008803477    -0.000019484385     0.000013999474
       6       -0.000015165990    -0.000013934673    -0.000000578399
       7        0.000000966815     0.000003324426    -0.000001044357
       8       -0.000006425403    -0.000002826594    -0.000022694891
       9       -0.000000881790     0.000016984240     0.000007648134
      10       -0.000006290874    -0.000002114927     0.000021192564
      11       -0.000026097924     0.000201918351    -0.000285962966
      12        0.000006102796     0.000013416415    -0.000024871189
      13       -0.000001504671     0.000022443339    -0.000002281129
      14        0.000032542146    -0.000298279126     0.000519910714
      15        0.000004528057     0.000001536390     0.000016145210
      16        0.000023591913    -0.000017205306    -0.000000498380
      17        0.000317714558     0.000077394124    -0.000630744638
      18       -0.000010171884    -0.000001134512     0.000007705428
      19       -0.000007525725    -0.000018106682    -0.000003839707
      20        0.000020863548    -0.000013159879    -0.000009930077
      21       -0.000297381699     0.000036380959     0.000397883221
      22       -0.000000676382     0.000014261060     0.000016374146
      23        0.000008132947    -0.000006305035     0.000006965245
      24       -0.000008864617     0.000005092283    -0.000017149780
      25       -0.000007346390    -0.000004211602     0.000013174414
      26       -0.000000163455    -0.000000278509    -0.000001783523
      27        0.000001151940    -0.000000135540    -0.000000218342
      28       -0.000000245699     0.000000153557     0.000000042833
      29       -0.000001231355     0.000000080122     0.000000265139

  **** Optimization is complete! (in 8 steps) ****
    Final optimized geometry and variables:
    Molecular point group: c1

    Geometry (in Angstrom), charge = 0, multiplicity = 1:

    O            3.113707273804     0.998857613581    -0.347643442790
    C            2.577667310833     0.064448111827     0.154955572437
    C            1.116024334850    -0.018932450799     0.522978913312
    O            3.215274509924    -1.057347089499     0.465872950665
    C            0.336036331287     1.246301653511     0.172528226803
    H            0.712478905529    -0.895831394445     0.027575317164
    H            1.062578022157    -0.228965282944     1.588219113128
    C           -1.124693377134     1.218302427536     0.634615005655
    H            0.379629363210     1.408878240289    -0.900221812035
    H            0.835155754551     2.096644445614     0.624476202207
    C           -2.001628928643     0.171583345411    -0.059369465796
    H           -1.552683927631     2.202349447275     0.457330893794
    H           -1.161215378811     1.063573404142     1.711938580637
    C           -3.471649526846     0.270983597092     0.358275485064
    H           -1.911691806204     0.295853649865    -1.135715391476
    H           -1.639566541523    -0.829444207707     0.166162968819
    C           -4.380608221468    -0.818032587576    -0.222654594021
    H           -3.858760211727     1.248288497485     0.074171743029
    H           -3.530808696969     0.225862637146     1.443890836359
    C           -4.503436218136    -0.800934671776    -1.747198537502
    H           -4.026007011082    -1.794093492013     0.102647286542
    H           -5.372154509066    -0.700632015344     0.207997567319
    H           -5.222652482098    -1.541413386629    -2.083461821350
    H           -3.559255566564    -1.020908331536    -2.234116038190
    H           -4.840202326234     0.170028864079    -2.100618377145
    C            4.599665926828    -1.111700509903     0.173642089967
    H            4.769498141597    -0.988925501403    -0.886358025465
    H            4.931059803038    -2.086865049377     0.494930551891
    H            5.132065306107    -0.339671286209     0.710350732728

  Mulliken Charges: (a.u.)
   Center  Symbol    Alpha    Beta     Spin     Total
       1     O     4.28596  4.28596  0.00000 -0.57192
       2     C     2.60484  2.60484  0.00000  0.79033
       3     C     3.20968  3.20968  0.00000 -0.41936
       4     O     4.30747  4.30747  0.00000 -0.61495
       5     C     3.15368  3.15368  0.00000 -0.30736
       6     H     0.39886  0.39886  0.00000  0.20227
       7     H     0.40124  0.40124  0.00000  0.19752
       8     C     3.15639  3.15639  0.00000 -0.31278
       9     H     0.41319  0.41319  0.00000  0.17363
      10     H     0.40880  0.40880  0.00000  0.18241
      11     C     3.15705  3.15705  0.00000 -0.31411
      12     H     0.41820  0.41820  0.00000  0.16359
      13     H     0.42391  0.42391  0.00000  0.15218
      14     C     3.15202  3.15202  0.00000 -0.30404
      15     H     0.42034  0.42034  0.00000  0.15932
      16     H     0.42414  0.42414  0.00000  0.15172
      17     C     3.15224  3.15224  0.00000 -0.30448
      18     H     0.42360  0.42360  0.00000  0.15279
      19     H     0.42226  0.42226  0.00000  0.15548
      20     C     3.24132  3.24132  0.00000 -0.48265
      21     H     0.42369  0.42369  0.00000  0.15263
      22     H     0.42088  0.42088  0.00000  0.15824
      23     H     0.41908  0.41908  0.00000  0.16185
      24     H     0.42011  0.42011  0.00000  0.15977
      25     H     0.42192  0.42192  0.00000  0.15616
      26     C     3.09241  3.09241  0.00000 -0.18481
      27     H     0.40909  0.40909  0.00000  0.18182
      28     H     0.40852  0.40852  0.00000  0.18297
      29     H     0.40912  0.40912  0.00000  0.18176

   Total alpha = 44.00000, Total beta = 44.00000, Total charge =  0.00000
