  ==> Input File <==

--------------------------------------------------------------------------
set {
	reference rhf
	basis 6-31G*
}

set_num_threads( 1 )
memory 2 gb

molecule MOL {
0 1

H	 -2.499100	 -0.730091	 -0.745082
O	 -2.347518	 -0.290803	 0.079804
C	 -1.184022	 0.487508	 -0.006784
C	 0.062599	 -0.378592	 0.031606
H	 -1.176523	 1.099369	 -0.904519
H	 -1.187323	 1.153111	 0.844927
O	 1.171513	 0.459272	 -0.058250
H	 0.050699	 -1.089204	 -0.797170
H	 0.078739	 -0.954914	 0.954740
C	 0.880337	 1.816376	 0.054127
H	 0.425901	 2.047508	 1.015738
H	 1.811661	 2.358613	 -0.032579
H	 0.205930	 2.144468	 -0.734112

	symmetry c1
}
set optking {
	frozen_dihedral = ("
		8 4 3 5,
		1 2 3 5,
		4 7 10 13
	")
}

ee = energy('scf')
oeprop('DIPOLE', 'QUADRUPOLE', 'MULLIKEN_CHARGES')
f=open( 'psi4out.xyz', 'w' )
f.write( "13  " )
f.write( str(ee) + "\n" )
f.write( MOL.save_string_xyz() )
f.close()
--------------------------------------------------------------------------

    Molecular point group: c1

    Geometry (in Angstrom), charge = 0, multiplicity = 1:

       Center              X                  Y                   Z               Mass
    ------------   -----------------  -----------------  -----------------  -----------------
           H         -2.183382708981    -1.149199074591    -0.756797215238     1.007825032070
           O         -2.031800708981    -0.709911074591     0.068088784762    15.994914619560
           C         -0.868304708981     0.068399925409    -0.018499215238    12.000000000000
           C          0.378316291019    -0.797700074591     0.019890784762    12.000000000000
           H         -0.860805708981     0.680260925409    -0.916234215238     1.007825032070
           H         -0.871605708981     0.734002925409     0.833211784762     1.007825032070
           O          1.487230291019     0.040163925409    -0.069965215238    15.994914619560
           H          0.366416291019    -1.508312074591    -0.808885215238     1.007825032070
           H          0.394456291019    -1.374022074591     0.943024784762     1.007825032070
           C          1.196054291019     1.397267925409     0.042411784762    12.000000000000
           H          0.741618291019     1.628399925409     1.004022784762     1.007825032070
           H          2.127378291019     1.939504925409    -0.044294215238     1.007825032070
           H          0.521647291019     1.725359925409    -0.745827215238     1.007825032070

  Charge       = 0
  Multiplicity = 1
  Basis Set: 6-31G*
  Basis Set:

    Orbital Energies (a.u.)
    -----------------------

    Doubly Occupied:

       1A    -20.562795     2A    -20.558819     3A    -11.273826
       4A    -11.271528     5A    -11.269160     6A     -1.391731
       7A     -1.367627     8A     -1.009064     9A     -0.956588
      10A     -0.820066    11A     -0.723951    12A     -0.689253
      13A     -0.660376    14A     -0.632671    15A     -0.586985
      16A     -0.560547    17A     -0.556530    18A     -0.522991
      19A     -0.495331    20A     -0.426383    21A     -0.406601

  @DF-RHF Final Energy:  -267.92023893925688

   => Energetics <=

    Nuclear Repulsion Energy =            197.3089492524815682
    One-Electron Energy =                -756.9726307343223652
    Two-Electron Energy =                 291.7434425425835798
    DFT Exchange-Correlation Energy =       0.0000000000000000
    Empirical Dispersion Energy =           0.0000000000000000
    PCM Polarization Energy =               0.0000000000000000
    EFP Energy =                            0.0000000000000000
    Total Energy =                       -267.9202389392571604

  Mulliken Charges: (a.u.)
   Center  Symbol    Alpha    Beta     Spin     Total
       1     H     0.28121  0.28121  0.00000  0.43759
       2     O     4.37601  4.37601  0.00000 -0.75202
       3     C     3.02226  3.02226  0.00000 -0.04453
       4     C     2.98363  2.98363  0.00000  0.03274
       5     H     0.42186  0.42186  0.00000  0.15628
       6     H     0.40872  0.40872  0.00000  0.18256
       7     O     4.31057  4.31057  0.00000 -0.62115
       8     H     0.42783  0.42783  0.00000  0.14433
       9     H     0.41818  0.41818  0.00000  0.16363
      10     C     3.09272  3.09272  0.00000 -0.18544
      11     H     0.42478  0.42478  0.00000  0.15044
      12     H     0.40526  0.40526  0.00000  0.18949
      13     H     0.42696  0.42696  0.00000  0.14608

   Total alpha = 21.00000, Total beta = 21.00000, Total charge =  0.00000
