  ==> Input File <==

--------------------------------------------------------------------------
set {
	reference rhf
	basis 6-31G*
}

set_num_threads( 1 )
memory 2 gb

molecule MOL {
0 1

H	 1.501874	 -0.820543	 2.270515
O	 0.816558	 -0.266372	 1.925658
C	 1.135793	 0.118896	 0.612333
C	 0.031547	 1.023609	 0.088541
H	 1.218602	 -0.755027	 -0.031322
H	 2.095210	 0.630754	 0.587377
C	 -1.134819	 0.293262	 -0.585751
H	 0.474374	 1.714721	 -0.623187
H	 -0.338529	 1.620940	 0.920081
C	 -1.917817	 -0.639439	 0.339494
H	 -0.758119	 -0.268455	 -1.433105
H	 -1.813832	 1.041889	 -0.986690
H	 -2.777680	 -1.057197	 -0.174994
H	 -1.310268	 -1.471279	 0.680599
H	 -2.283753	 -0.111424	 1.216626

	symmetry c1
}
set optking {
	frozen_dihedral = ("
		8 4 7 11,
		1 2 3 4
	")
}

ee = energy('scf')
oeprop('DIPOLE', 'QUADRUPOLE', 'MULLIKEN_CHARGES')
f=open( 'psi4out.xyz', 'w' )
f.write( "15  " )
f.write( str(ee) + "\n" )
f.write( MOL.save_string_xyz() )
f.close()
--------------------------------------------------------------------------

    Molecular point group: c1

    Geometry (in Angstrom), charge = 0, multiplicity = 1:

       Center              X                  Y                   Z               Mass
    ------------   -----------------  -----------------  -----------------  -----------------
           H          1.685289086879    -0.899165546912     1.748044789999     1.007825032070
           O          0.999973086879    -0.344994546912     1.403187789999    15.994914619560
           C          1.319208086879     0.040273453088     0.089862789999    12.000000000000
           C          0.214962086879     0.944986453088    -0.433929210001    12.000000000000
           H          1.402017086879    -0.833649546912    -0.553792210001     1.007825032070
           H          2.278625086879     0.552131453088     0.064906789999     1.007825032070
           C         -0.951403913121     0.214639453088    -1.108221210001    12.000000000000
           H          0.657789086879     1.636098453088    -1.145657210001     1.007825032070
           H         -0.155113913121     1.542317453088     0.397610789999     1.007825032070
           C         -1.734401913121    -0.718061546912    -0.182976210001    12.000000000000
           H         -0.574703913121    -0.347077546912    -1.955575210001     1.007825032070
           H         -1.630416913121     0.963266453088    -1.509160210001     1.007825032070
           H         -2.594264913121    -1.135819546912    -0.697464210001     1.007825032070
           H         -1.126852913121    -1.549901546912     0.158128789999     1.007825032070
           H         -2.100337913121    -0.190046546912     0.694155789999     1.007825032070

  Charge       = 0
  Multiplicity = 1
  Basis Set: 6-31G*
  Basis Set:

    Orbital Energies (a.u.)
    -----------------------

    Doubly Occupied:

       1A    -20.553000     2A    -11.267578     3A    -11.212438
       4A    -11.211245     5A    -11.198754     6A     -1.359814
       7A     -1.064372     8A     -0.968582     9A     -0.864003
      10A     -0.779752    11A     -0.702560    12A     -0.647368
      13A     -0.607622    14A     -0.572991    15A     -0.552995
      16A     -0.537576    17A     -0.504219    18A     -0.474256
      19A     -0.467366    20A     -0.454079    21A     -0.427121

  @DF-RHF Final Energy:  -232.14123927260050

   => Energetics <=

    Nuclear Repulsion Energy =            192.4467838602777192
    One-Electron Energy =                -696.3206314259831515
    Two-Electron Energy =                 271.7326082931047040
    DFT Exchange-Correlation Energy =       0.0000000000000000
    Empirical Dispersion Energy =           0.0000000000000000
    PCM Polarization Energy =               0.0000000000000000
    EFP Energy =                            0.0000000000000000
    Total Energy =                       -232.1412392726007283

  Mulliken Charges: (a.u.)
   Center  Symbol    Alpha    Beta     Spin     Total
       1     H     0.28158  0.28158  0.00000  0.43683
       2     O     4.36897  4.36897  0.00000 -0.73794
       3     C     2.99883  2.99883  0.00000  0.00234
       4     C     3.16137  3.16137  0.00000 -0.32274
       5     H     0.43188  0.43188  0.00000  0.13625
       6     H     0.42864  0.42864  0.00000  0.14271
       7     C     3.15568  3.15568  0.00000 -0.31136
       8     H     0.42184  0.42184  0.00000  0.15633
       9     H     0.40992  0.40992  0.00000  0.18016
      10     C     3.23534  3.23534  0.00000 -0.47067
      11     H     0.42510  0.42510  0.00000  0.14981
      12     H     0.42149  0.42149  0.00000  0.15701
      13     H     0.42489  0.42489  0.00000  0.15023
      14     H     0.41578  0.41578  0.00000  0.16844
      15     H     0.41869  0.41869  0.00000  0.16262

   Total alpha = 21.00000, Total beta = 21.00000, Total charge = -0.00000
