                              Psi4 1.0.54 Driver

  ==> Input File <==

--------------------------------------------------------------------------
set {
	reference rhf
	basis cc-pvtz
}

set_num_threads( 4 )
memory 2 gb

molecule MOL {
0 1

H	 -3.162190	 0.493205	 -0.000107
C	 -2.363908	 -0.234727	 0.000005
O	 -1.158738	 0.454634	 -0.000087
H	 -2.464314	 -0.863616	 -0.882153
H	 -2.464327	 -0.863359	 0.882345
C	 -0.028611	 -0.359694	 0.000037
C	 0.647897	 -0.274519	 1.353357
H	 0.659569	 -0.044281	 -0.784540
H	 -0.310659	 -1.390680	 -0.214814
C	 1.899110	 -1.141832	 1.434518
H	 0.898552	 0.762103	 1.549599
H	 -0.063944	 -0.573641	 2.114778
H	 2.635717	 -0.843294	 0.696026
H	 2.361764	 -1.062042	 2.410533
H	 1.666751	 -2.187985	 1.265281

	symmetry c1
}
set optking {
	frozen_dihedral = ("
		8 6 3 2
	")
}

ee,wfn = optimize('scf', return_wfn=True)
oeprop( wfn, 'DIPOLE', 'QUADRUPOLE', 'MULLIKEN_CHARGES')
f=open( 'psi4out.xyz', 'w' )
f.write( "15  " )
f.write( str(ee) + "\n" )
f.write( MOL.save_string_xyz() )
f.close()
--------------------------------------------------------------------------

    Molecular point group: c1
  Charge       = 0
  Multiplicity = 1
  Basis Set: CC-PVTZ
  Basis Set:
  @DF-RHF Final Energy:  -232.22385329398745
    Total Energy =                       -232.2238532939874176
    Molecular point group: c1
  Basis Set: CC-PVTZ
  Basis Set:
  Basis Set: CC-PVTZ
  Basis Set:
  @DF-RHF Final Energy:  -232.22441248937548
    Total Energy =                       -232.2244124893752542
  Basis Set: CC-PVTZ
  Basis Set:
  Basis Set: CC-PVTZ
  Basis Set:
  @DF-RHF Final Energy:  -232.22452154300262
    Total Energy =                       -232.2245215430025382
  Basis Set: CC-PVTZ
  Basis Set:
  Charge       = 0
  Multiplicity = 1
  Basis Set: CC-PVTZ
  Basis Set:

    Orbital Energies (a.u.)
    -----------------------

    Doubly Occupied:

       1A    -20.544251     2A    -11.264014     3A    -11.262410
       4A    -11.213250     5A    -11.211364     6A     -1.376840
       7A     -1.057269     8A     -0.957692     9A     -0.880181
      10A     -0.808452    11A     -0.670496    12A     -0.655149
      13A     -0.638000    14A     -0.600133    15A     -0.569157
      16A     -0.536932    17A     -0.509778    18A     -0.495710
      19A     -0.482936    20A     -0.462329    21A     -0.406921

  @DF-RHF Final Energy:  -232.22452302902389

   => Energetics <=

    Nuclear Repulsion Energy =            190.6434302840437454
    One-Electron Energy =                -692.5293789838682414
    Two-Electron Energy =                 269.6614256708007815
    DFT Exchange-Correlation Energy =       0.0000000000000000
    Empirical Dispersion Energy =           0.0000000000000000
    PCM Polarization Energy =               0.0000000000000000
    EFP Energy =                            0.0000000000000000
    Total Energy =                       -232.2245230290237146
    Molecular point group: c1
  Basis Set: CC-PVTZ
  Basis Set:

  -Total Gradient:
     Atom            X                  Y                   Z
    ------   -----------------  -----------------  -----------------
       1       -0.000015279230    -0.000001886131     0.000006381142
       2       -0.000060581387     0.000017661012    -0.000717449144
       3       -0.000106686878    -0.000129358239     0.000891320218
       4        0.000023182838    -0.000001641268     0.000006999682
       5        0.000043631786     0.000019229722    -0.000012328975
       6        0.000359425342     0.000671243908     0.000400809099
       7        0.000093640087    -0.000006655591    -0.000050086741
       8       -0.000341923156    -0.000548561015    -0.000493992857
       9        0.000030679806    -0.000031829026    -0.000012824796
      10       -0.000023469620    -0.000002633383     0.000012749654
      11       -0.000012068234     0.000021639566    -0.000002160689
      12       -0.000015178493    -0.000002338393    -0.000041561451
      13        0.000000008909    -0.000007955058     0.000004271865
      14        0.000010550576    -0.000005677508     0.000013919567
      15        0.000014067654     0.000008761405    -0.000006046576

  **** Optimization is complete! (in 4 steps) ****
    Final optimized geometry and variables:
    Molecular point group: c1

    Geometry (in Angstrom), charge = 0, multiplicity = 1:

    H           -2.938149065195     0.860383896747    -0.575238561040
    C           -2.161550265078     0.108929397424    -0.580631913568
    O           -0.937438232955     0.766397299191    -0.561545955506
    H           -2.274103716605    -0.500742220060    -1.474024777201
    H           -2.292992968656    -0.529201037518     0.290352294624
    C            0.198056343280    -0.050389835958    -0.520576683726
    C            0.885862378669     0.021814285489     0.832513426732
    H            0.874449172422     0.282147339042    -1.301373903316
    H           -0.065563775861    -1.080487599963    -0.749504141369
    C            2.154422637537    -0.822349288195     0.887726225625
    H            1.118180751110     1.059984027890     1.043221654650
    H            0.190443325143    -0.303093841296     1.600325717717
    H            2.874725943014    -0.499025730917     0.143537919109
    H            2.629184740577    -0.747906700651     1.858502899050
    H            1.940483543959    -1.870526829327     0.705645993008

  Mulliken Charges: (a.u.)
   Center  Symbol    Alpha    Beta     Spin     Total
       1     H     0.44896  0.44896  0.00000  0.10208
       2     C     3.03156  3.03156  0.00000 -0.06312
       3     O     4.18036  4.18036  0.00000 -0.36072
       4     H     0.46917  0.46917  0.00000  0.06167
       5     H     0.47304  0.47304  0.00000  0.05392
       6     C     2.97199  2.97199  0.00000  0.05601
       7     C     3.07873  3.07873  0.00000 -0.15745
       8     H     0.45311  0.45311  0.00000  0.09379
       9     H     0.47411  0.47411  0.00000  0.05178
      10     C     3.15452  3.15452  0.00000 -0.30905
      11     H     0.45081  0.45081  0.00000  0.09837
      12     H     0.45643  0.45643  0.00000  0.08714
      13     H     0.45471  0.45471  0.00000  0.09059
      14     H     0.44668  0.44668  0.00000  0.10664
      15     H     0.45582  0.45582  0.00000  0.08836

   Total alpha = 21.00000, Total beta = 21.00000, Total charge = -0.00000

*** Psi4 exiting successfully. Buy a developer a beer!
