                              Psi4 1.0.54 Driver

  ==> Input File <==

--------------------------------------------------------------------------
set {
	reference rhf
	basis cc-pvtz
}

set_num_threads( 4 )
memory 2 gb

molecule MOL {
0 1

H	 2.341328	 -1.994750	 0.438380
N	 1.360535	 -1.818955	 0.445411
C	 0.866869	 -1.616970	 -0.901934
C	 1.048401	 -0.692292	 1.301592
H	 1.097005	 -2.491469	 -1.498291
H	 1.323898	 -0.751383	 -1.385157
C	 -0.636691	 -1.412524	 -0.862152
H	 1.410079	 -0.896748	 2.301961
H	 1.516899	 0.231716	 0.957589
C	 -0.455397	 -0.489058	 1.338487
H	 -1.112439	 -2.337803	 -0.524345
H	 -0.999579	 -1.202782	 -1.861372
N	 -0.976577	 -0.298712	 -0.000000
H	 -0.687198	 0.388408	 1.930467
H	 -0.918655	 -1.350718	 1.827899
C	 -2.391156	 -0.021003	 -0.000000
H	 -2.853954	 -0.458728	 -0.875714
H	 -2.853954	 -0.458728	 0.875714
H	 -2.614037	 1.049773	 -0.000000

	symmetry c1
}
set optking {
	frozen_dihedral = ("
		7 13 16 19
	")
}

ee,wfn = optimize('scf', return_wfn=True)
oeprop( wfn, 'DIPOLE', 'QUADRUPOLE', 'MULLIKEN_CHARGES')
f=open( 'psi4out.xyz', 'w' )
f.write( "19  " )
f.write( str(ee) + "\n" )
f.write( MOL.save_string_xyz() )
f.close()
--------------------------------------------------------------------------

    Molecular point group: c1
  Charge       = 0
  Multiplicity = 1
  Basis Set: CC-PVTZ
  Basis Set:
  @DF-RHF Final Energy:  -305.30426456451079
    Total Energy =                       -305.3042645645108450
    Molecular point group: c1
  Basis Set: CC-PVTZ
  Basis Set:
  Basis Set: CC-PVTZ
  Basis Set:
  @DF-RHF Final Energy:  -305.30521420103707
    Total Energy =                       -305.3052142010367334
  Basis Set: CC-PVTZ
  Basis Set:
  Basis Set: CC-PVTZ
  Basis Set:
  @DF-RHF Final Energy:  -305.30534002711795
    Total Energy =                       -305.3053400271181204
  Basis Set: CC-PVTZ
  Basis Set:
  Charge       = 0
  Multiplicity = 1
  Basis Set: CC-PVTZ
  Basis Set:

    Orbital Energies (a.u.)
    -----------------------

    Doubly Occupied:

       1A    -15.533110     2A    -15.530931     3A    -11.236782
       4A    -11.236760     5A    -11.235904     6A    -11.235653
       7A    -11.232999     8A     -1.247053     9A     -1.185897
      10A     -1.024036    11A     -0.965478    12A     -0.861944
      13A     -0.858526    14A     -0.756049    15A     -0.692129
      16A     -0.633989    17A     -0.625493    18A     -0.607679
      19A     -0.604669    20A     -0.582439    21A     -0.543793
      22A     -0.534045    23A     -0.511192    24A     -0.489069
      25A     -0.468460    26A     -0.458188    27A     -0.365861
      28A     -0.340885

  @DF-RHF Final Energy:  -305.30534814677014

   => Energetics <=

    Nuclear Repulsion Energy =            339.8497693339965053
    One-Electron Energy =               -1087.1122018865466998
    Two-Electron Energy =                 441.9570844057799945
    DFT Exchange-Correlation Energy =       0.0000000000000000
    Empirical Dispersion Energy =           0.0000000000000000
    PCM Polarization Energy =               0.0000000000000000
    EFP Energy =                            0.0000000000000000
    Total Energy =                       -305.3053481467701999
    Molecular point group: c1
  Basis Set: CC-PVTZ
  Basis Set:

  -Total Gradient:
     Atom            X                  Y                   Z
    ------   -----------------  -----------------  -----------------
       1       -0.000019528227     0.000035429809    -0.000005627695
       2       -0.000063410915    -0.000004445523     0.000019417050
       3        0.000008778078    -0.000033700849     0.000026352605
       4        0.000046507325     0.000032268410    -0.000023565848
       5        0.000075257662    -0.000039932986    -0.000015468881
       6       -0.000046889067    -0.000020148339     0.000011774570
       7        0.000648002376     0.002004738936    -0.002802383497
       8        0.000054243416    -0.000021645604     0.000018093198
       9       -0.000006743742    -0.000008678876     0.000009155510
      10        0.000088848216    -0.000145310609     0.000189092112
      11        0.000038124034     0.000101294148     0.000004415719
      12        0.000004853874     0.000040882934     0.000037017030
      13       -0.000793636171    -0.003049633448     0.002555984215
      14       -0.000003287475    -0.000000835541    -0.000049775205
      15       -0.000003149309     0.000054079704    -0.000067263666
      16       -0.000258656712     0.001190230552     0.004753943929
      17        0.000005872537    -0.000006448839    -0.000014456009
      18        0.000115305239    -0.000097941818     0.000005286917
      19        0.000109508861    -0.000030202059    -0.004651992052

  **** Optimization is complete! (in 4 steps) ****
    Final optimized geometry and variables:
    Molecular point group: c1

    Geometry (in Angstrom), charge = 0, multiplicity = 1:

    H            2.550752728788    -1.004788168611     0.285812081752
    N            1.565143907837    -0.857894360769     0.284939102853
    C            1.072474283527    -0.705987692341    -1.069242031024
    C            1.217244551947     0.281892418433     1.109077864947
    H            1.343500451076    -1.582465230095    -1.645492318175
    H            1.497027094570     0.167928433488    -1.567295340209
    C           -0.438988265188    -0.561914663850    -1.045964002320
    H            1.587628347537     0.119197317597     2.114082247177
    H            1.654119326619     1.210423012815     0.736415415422
    C           -0.292680667390     0.434127337477     1.142793383631
    H           -0.878015011348    -1.506653489979    -0.711140969265
    H           -0.795443335919    -0.370843996066    -2.050426795554
    N           -0.825304235924     0.544550849153    -0.196635665614
    H           -0.553651284965     1.329245183295     1.695954245402
    H           -0.724688532945    -0.418994076009     1.674271542243
    C           -2.238068037198     0.853866242436    -0.221716139746
    H           -2.680445543030     0.483504529773    -1.138121139744
    H           -2.785010737458     0.405037883374     0.607021263283
    H           -2.398505619950     1.926445612700    -0.215312331672

  Mulliken Charges: (a.u.)
   Center  Symbol    Alpha    Beta     Spin     Total
       1     H     0.43995  0.43995  0.00000  0.12010
       2     N     3.64272  3.64272  0.00000 -0.28544
       3     C     3.04182  3.04182  0.00000 -0.08364
       4     C     3.04135  3.04135  0.00000 -0.08270
       5     H     0.45265  0.45265  0.00000  0.09469
       6     H     0.46618  0.46618  0.00000  0.06765
       7     C     3.03207  3.03207  0.00000 -0.06415
       8     H     0.45266  0.45266  0.00000  0.09468
       9     H     0.46601  0.46601  0.00000  0.06798
      10     C     3.03381  3.03381  0.00000 -0.06762
      11     H     0.46998  0.46998  0.00000  0.06004
      12     H     0.45434  0.45434  0.00000  0.09133
      13     N     3.61595  3.61595  0.00000 -0.23191
      14     H     0.45423  0.45423  0.00000  0.09154
      15     H     0.46875  0.46875  0.00000  0.06251
      16     C     3.09419  3.09419  0.00000 -0.18838
      17     H     0.45692  0.45692  0.00000  0.08616
      18     H     0.46581  0.46581  0.00000  0.06838
      19     H     0.45061  0.45061  0.00000  0.09878

   Total alpha = 28.00000, Total beta = 28.00000, Total charge = -0.00000

*** Psi4 exiting successfully. Buy a developer a beer!
