  ==> Input File <==

--------------------------------------------------------------------------
set {
	reference rhf
	basis 6-31G*
}

set_num_threads( 4 )
memory 2 gb

molecule MOL {
0 1

H	 2.536630	 -1.037227	 -1.101117
N	 1.554135	 -0.848861	 -1.125253
C	 1.274210	 0.459349	 -0.562277
C	 0.820129	 -1.892564	 -0.433422
H	 1.827495	 1.207910	 -1.119323
H	 1.568275	 0.534169	 0.487279
C	 -0.216875	 0.740452	 -0.672172
H	 1.044579	 -2.847208	 -0.897154
H	 1.086692	 -1.960192	 0.623939
C	 -0.670675	 -1.610004	 -0.543397
H	 -0.488652	 0.816917	 -1.729238
H	 -0.442430	 1.692596	 -0.203031
N	 -0.975995	 -0.298722	 0.000000
H	 -1.223948	 -2.355280	 0.018741
H	 -0.972855	 -1.691011	 -1.591836
C	 -2.393863	 -0.024976	 0.000000
H	 -2.854032	 -0.467193	 -0.876721
H	 -2.854032	 -0.467193	 0.876721
H	 -2.623281	 1.044943	 0.000000

	symmetry c1
}
set optking {
	frozen_dihedral = ("
		7 13 16 19
	")
}

ee = optimize('scf')
oeprop('DIPOLE', 'QUADRUPOLE', 'MULLIKEN_CHARGES')
f=open( 'psi4out.xyz', 'w' )
f.write( "19  " )
f.write( str(ee) + "\n" )
f.write( MOL.save_string_xyz() )
f.close()
--------------------------------------------------------------------------

    Molecular point group: c1
  Charge       = 0
  Multiplicity = 1
  Basis Set: 6-31G*
  Basis Set:
  @DF-RHF Final Energy:  -305.19611260290554
    Total Energy =                       -305.1961126029053730
    Molecular point group: c1
  Basis Set: 6-31G*
  Basis Set:
  Basis Set: 6-31G*
  Basis Set:
  @DF-RHF Final Energy:  -305.19707206346129
    Total Energy =                       -305.1970720634612917
  Basis Set: 6-31G*
  Basis Set:
  Basis Set: 6-31G*
  Basis Set:
  @DF-RHF Final Energy:  -305.19720207228335
    Total Energy =                       -305.1972020722832895
  Basis Set: 6-31G*
  Basis Set:
  Basis Set: 6-31G*
  Basis Set:
  @DF-RHF Final Energy:  -305.19720784998532
    Total Energy =                       -305.1972078499851477
  Basis Set: 6-31G*
  Basis Set:
  Charge       = 0
  Multiplicity = 1
  Basis Set: 6-31G*
  Basis Set:

    Orbital Energies (a.u.)
    -----------------------

    Doubly Occupied:

       1A    -15.538352     2A    -15.536416     3A    -11.238251
       4A    -11.238218     5A    -11.237363     6A    -11.237004
       7A    -11.235005     8A     -1.245867     9A     -1.184349
      10A     -1.023108    11A     -0.964386    12A     -0.861102
      13A     -0.857271    14A     -0.755916    15A     -0.690779
      16A     -0.632771    17A     -0.625918    18A     -0.605554
      19A     -0.603864    20A     -0.580337    21A     -0.544309
      22A     -0.530758    23A     -0.511755    24A     -0.489306
      25A     -0.467452    26A     -0.457121    27A     -0.363210
      28A     -0.339231

  @DF-RHF Final Energy:  -305.19720866733502

   => Energetics <=

    Nuclear Repulsion Energy =            339.5723768539084517
    One-Electron Energy =               -1086.3492295635769551
    Two-Electron Energy =                 441.5796440423330296
    DFT Exchange-Correlation Energy =       0.0000000000000000
    Empirical Dispersion Energy =           0.0000000000000000
    PCM Polarization Energy =               0.0000000000000000
    EFP Energy =                            0.0000000000000000
    Total Energy =                       -305.1972086673354170
    Molecular point group: c1
  Basis Set: 6-31G*
  Basis Set:

  -Total Gradient:
     Atom            X                  Y                   Z
    ------   -----------------  -----------------  -----------------
       1       -0.000000389312     0.000010113478    -0.000000756544
       2       -0.000012295587     0.000011202643     0.000002066324
       3        0.000019810168     0.000009345516     0.000010344055
       4       -0.000010880177    -0.000011910439    -0.000019406287
       5        0.000014272435     0.000000680052    -0.000001720390
       6       -0.000002177865     0.000000778144     0.000002139170
       7        0.000401905093     0.001599328906     0.003028935696
       8        0.000015792375    -0.000007345674    -0.000001790385
       9       -0.000011835311     0.000003102184    -0.000010125537
      10       -0.000011403597    -0.000007147433     0.000027784691
      11       -0.000013292653    -0.000009170401     0.000011890538
      12        0.000006630965    -0.000004329496    -0.000001596461
      13       -0.000573627654    -0.002224731112    -0.005447771266
      14       -0.000009324657     0.000001591170    -0.000002170051
      15        0.000008897637     0.000008698683     0.000014546163
      16        0.000305696001     0.000473706683     0.006943729058
      17       -0.000017690907    -0.000006622280    -0.000001946989
      18        0.000027086021    -0.000005261786    -0.000036185970
      19       -0.000137172975     0.000157971164    -0.004517965814

  **** Optimization is complete! (in 5 steps) ****
    Final optimized geometry and variables:
    Molecular point group: c1

    Geometry (in Angstrom), charge = 0, multiplicity = 1:

    H            2.635822443918    -0.540996943851    -0.607608868225
    N            1.653173407820    -0.354168613270    -0.636135428267
    C            1.370316347125     0.956381406375    -0.079836028080
    C            0.918526850244    -1.395852308870     0.058204024745
    H            1.934884718629     1.701693361817    -0.630009459242
    H            1.649959036022     1.030860247405     0.973779784233
    C           -0.118022116569     1.244950100361    -0.209656506075
    H            1.150805995322    -2.353275783352    -0.395989720263
    H            1.177797462829    -1.453431084989     1.117982558354
    C           -0.572118561378    -1.119201970012    -0.066024784950
    H           -0.369464699632     1.338036979924    -1.270771882509
    H           -0.344580570924     2.191295445192     0.269111811229
    N           -0.884863929535     0.200697078557     0.441837187316
    H           -1.127877519529    -1.852521739954     0.510113641821
    H           -0.869814567413    -1.226122967352    -1.113571425470
    C           -2.307443360203     0.456648530843     0.493800875757
    H           -2.830617087667     0.086694760407    -0.392477455850
    H           -2.750072731873    -0.014780996049     1.364964690832
    H           -2.493147713134     1.523143457041     0.534580171218

  Mulliken Charges: (a.u.)
   Center  Symbol    Alpha    Beta     Spin     Total
       1     H     0.32945  0.32945  0.00000  0.34110
       2     N     3.85435  3.85435  0.00000 -0.70870
       3     C     3.06400  3.06400  0.00000 -0.12801
       4     C     3.06359  3.06359  0.00000 -0.12719
       5     H     0.41783  0.41783  0.00000  0.16434
       6     H     0.42801  0.42801  0.00000  0.14398
       7     C     3.05176  3.05176  0.00000 -0.10352
       8     H     0.41777  0.41777  0.00000  0.16445
       9     H     0.42804  0.42804  0.00000  0.14392
      10     C     3.05220  3.05220  0.00000 -0.10439
      11     H     0.42896  0.42896  0.00000  0.14208
      12     H     0.41882  0.41882  0.00000  0.16237
      13     N     3.79280  3.79280  0.00000 -0.58559
      14     H     0.41891  0.41891  0.00000  0.16218
      15     H     0.42823  0.42823  0.00000  0.14353
      16     C     3.13779  3.13779  0.00000 -0.27557
      17     H     0.43205  0.43205  0.00000  0.13589
      18     H     0.41619  0.41619  0.00000  0.16761
      19     H     0.41924  0.41924  0.00000  0.16152

   Total alpha = 28.00000, Total beta = 28.00000, Total charge =  0.00000
