  ==> Input File <==

--------------------------------------------------------------------------
set {
	reference rhf
	basis 6-31G*
}

set_num_threads( 1 )
memory 2 gb

molecule MOL {
0 1

H	 -0.010466	 3.454857	 -0.802182
C	 0.411865	 3.077212	 0.137308
C	 -0.542063	 2.279722	 0.989741
O	 1.543190	 3.306961	 0.418500
C	 -1.220012	 1.144545	 0.209990
H	 -0.000057	 1.904151	 1.849907
H	 -1.303058	 2.970776	 1.350277
C	 -0.252658	 0.041456	 -0.226725
H	 -1.998250	 0.715562	 0.834172
H	 -1.724786	 1.556743	 -0.662394
C	 1.180775	 0.282413	 0.250794
H	 -0.266029	 -0.034465	 -1.312038
H	 -0.597733	 -0.921000	 0.146291
C	 2.148627	 -0.814315	 -0.201312
H	 1.516199	 1.249228	 -0.115937
H	 1.192670	 0.346017	 1.338083
C	 3.580890	 -0.659131	 0.322722
H	 2.166869	 -0.852443	 -1.289387
H	 1.762857	 -1.776509	 0.128956
C	 4.324889	 0.564933	 -0.213704
H	 4.142010	 -1.551473	 0.056605
H	 3.564836	 -0.624694	 1.410140
H	 4.342616	 0.565491	 -1.300421
H	 3.866655	 1.493402	 0.110242
H	 5.353900	 0.572371	 0.132816

	symmetry c1
}
set optking {
	frozen_dihedral = ("
		6 3 5 8,
		6 3 2 4,
		12 8 11 14,
		8 11 14 18,
		20 17 14 18
	")
}

ee = energy('scf')
oeprop('DIPOLE', 'QUADRUPOLE', 'MULLIKEN_CHARGES')
f=open( 'psi4out.xyz', 'w' )
f.write( "25  " )
f.write( str(ee) + "\n" )
f.write( MOL.save_string_xyz() )
f.close()
--------------------------------------------------------------------------

    Molecular point group: c1

    Geometry (in Angstrom), charge = 0, multiplicity = 1:

       Center              X                  Y                   Z               Mass
    ------------   -----------------  -----------------  -----------------  -----------------
           H         -1.278427679964     2.416491164879    -0.988018882023     1.007825032070
           C         -0.856096679964     2.038846164879    -0.048528882023    12.000000000000
           C         -1.810024679964     1.241356164879     0.803904117977    12.000000000000
           O          0.275228320036     2.268595164879     0.232663117977    15.994914619560
           C         -2.487973679964     0.106179164879     0.024153117977    12.000000000000
           H         -1.268018679964     0.865785164879     1.664070117977     1.007825032070
           H         -2.571019679964     1.932410164879     1.164440117977     1.007825032070
           C         -1.520619679964    -0.996909835121    -0.412561882023    12.000000000000
           H         -3.266211679964    -0.322803835121     0.648335117977     1.007825032070
           H         -2.992747679964     0.518377164879    -0.848230882023     1.007825032070
           C         -0.087186679964    -0.755952835121     0.064957117977    12.000000000000
           H         -1.533990679964    -1.072830835121    -1.497874882023     1.007825032070
           H         -1.865694679964    -1.959365835121    -0.039545882023     1.007825032070
           C          0.880665320036    -1.852680835121    -0.387148882023    12.000000000000
           H          0.248237320036     0.210862164879    -0.301773882023     1.007825032070
           H         -0.075291679964    -0.692348835121     1.152246117977     1.007825032070
           C          2.312928320036    -1.697496835121     0.136885117977    12.000000000000
           H          0.898907320036    -1.890808835121    -1.475223882023     1.007825032070
           H          0.494895320036    -2.814874835121    -0.056880882023     1.007825032070
           C          3.056927320036    -0.473432835121    -0.399540882023    12.000000000000
           H          2.874048320036    -2.589838835121    -0.129231882023     1.007825032070
           H          2.296874320036    -1.663059835121     1.224303117977     1.007825032070
           H          3.074654320036    -0.472874835121    -1.486257882023     1.007825032070
           H          2.598693320036     0.455036164879    -0.075594882023     1.007825032070
           H          4.085938320036    -0.465994835121    -0.053020882023     1.007825032070

  Charge       = 0
  Multiplicity = 1
  Basis Set: 6-31G*
  Basis Set:

    Orbital Energies (a.u.)
    -----------------------

    Doubly Occupied:

       1A    -20.562763     2A    -11.330418     3A    -11.235307
       4A    -11.233542     5A    -11.219219     6A    -11.209176
       7A    -11.208374     8A    -11.206689     9A    -11.197280
      10A     -1.407146    11A     -1.105693    12A     -1.061080
      13A     -1.002102    14A     -0.941550    15A     -0.877659
      16A     -0.816714    17A     -0.785999    18A     -0.768451
      19A     -0.670696    20A     -0.663037    21A     -0.629706
      22A     -0.622567    23A     -0.599751    24A     -0.591818
      25A     -0.564022    26A     -0.547799    27A     -0.541676
      28A     -0.524354    29A     -0.507719    30A     -0.497838
      31A     -0.471295    32A     -0.468082    33A     -0.452888
      34A     -0.440103    35A     -0.436836    36A     -0.411409

  @DF-RHF Final Energy:  -387.09985363015409

   => Energetics <=

    Nuclear Repulsion Energy =            470.2952578571977824
    One-Electron Energy =               -1457.1687875881600576
    Two-Electron Energy =                 599.7736761008085296
    DFT Exchange-Correlation Energy =       0.0000000000000000
    Empirical Dispersion Energy =           0.0000000000000000
    PCM Polarization Energy =               0.0000000000000000
    EFP Energy =                            0.0000000000000000
    Total Energy =                       -387.0998536301536888

  Mulliken Charges: (a.u.)
   Center  Symbol    Alpha    Beta     Spin     Total
       1     H     0.43021  0.43021  0.00000  0.13959
       2     C     2.83425  2.83425  0.00000  0.33150
       3     C     3.21237  3.21237  0.00000 -0.42474
       4     O     4.23988  4.23988  0.00000 -0.47976
       5     C     3.16822  3.16822  0.00000 -0.33644
       6     H     0.39642  0.39642  0.00000  0.20716
       7     H     0.40354  0.40354  0.00000  0.19292
       8     C     3.15585  3.15585  0.00000 -0.31169
       9     H     0.41014  0.41014  0.00000  0.17971
      10     H     0.41715  0.41715  0.00000  0.16570
      11     C     3.17692  3.17692  0.00000 -0.35384
      12     H     0.41936  0.41936  0.00000  0.16129
      13     H     0.41787  0.41787  0.00000  0.16425
      14     C     3.14885  3.14885  0.00000 -0.29770
      15     H     0.39838  0.39838  0.00000  0.20324
      16     H     0.42222  0.42222  0.00000  0.15555
      17     C     3.15117  3.15117  0.00000 -0.30233
      18     H     0.42590  0.42590  0.00000  0.14821
      19     H     0.42520  0.42520  0.00000  0.14960
      20     C     3.24687  3.24687  0.00000 -0.49374
      21     H     0.42296  0.42296  0.00000  0.15407
      22     H     0.42393  0.42393  0.00000  0.15214
      23     H     0.42502  0.42502  0.00000  0.14996
      24     H     0.40616  0.40616  0.00000  0.18768
      25     H     0.42117  0.42117  0.00000  0.15766

   Total alpha = 36.00000, Total beta = 36.00000, Total charge =  0.00000
