  ==> Input File <==

--------------------------------------------------------------------------
set {
	reference rhf
	basis 6-31G*
}

set_num_threads( 4 )
memory 2 gb

molecule MOL {
0 1

O	 -0.682937	 1.318834	 -0.186099
C	 -0.860635	 0.152188	 -0.042321
C	 -2.173363	 -0.477127	 0.338347
O	 0.083258	 -0.765189	 -0.202595
H	 -2.477673	 -1.180929	 -0.427595
H	 -2.923125	 0.290956	 0.455536
H	 -2.058825	 -1.029004	 1.264191
C	 1.243796	 -0.695505	 0.622688
C	 1.010812	 -1.358486	 1.967613
H	 1.534626	 0.337404	 0.739557
H	 2.006902	 -1.215469	 0.061611
H	 1.931939	 -1.356799	 2.542288
H	 0.255873	 -0.827644	 2.533866
H	 0.693304	 -2.387199	 1.835879

	symmetry c1
}
set optking {
	frozen_dihedral = ("
		8 4 2 1
	")
}

ee = optimize('scf')
oeprop('DIPOLE', 'QUADRUPOLE', 'MULLIKEN_CHARGES')
f=open( 'psi4out.xyz', 'w' )
f.write( "14  " )
f.write( str(ee) + "\n" )
f.write( MOL.save_string_xyz() )
f.close()
--------------------------------------------------------------------------

    Molecular point group: c1
  Charge       = 0
  Multiplicity = 1
  Basis Set: 6-31G*
  Basis Set:
  @DF-RHF Final Energy:  -305.86028724484657
    Total Energy =                       -305.8602872448467451
    Molecular point group: c1
  Basis Set: 6-31G*
  Basis Set:
  Basis Set: 6-31G*
  Basis Set:
  @DF-RHF Final Energy:  -305.86024815925759
    Total Energy =                       -305.8602481592574804
  Basis Set: 6-31G*
  Basis Set:
  Basis Set: 6-31G*
  Basis Set:
  @DF-RHF Final Energy:  -305.86161532190778
    Total Energy =                       -305.8616153219076068
  Basis Set: 6-31G*
  Basis Set:
  Basis Set: 6-31G*
  Basis Set:
  @DF-RHF Final Energy:  -305.86166429736971
    Total Energy =                       -305.8616642973698845
  Basis Set: 6-31G*
  Basis Set:
  Basis Set: 6-31G*
  Basis Set:
  @DF-RHF Final Energy:  -305.86167005195523
    Total Energy =                       -305.8616700519550591
  Basis Set: 6-31G*
  Basis Set:
  Charge       = 0
  Multiplicity = 1
  Basis Set: 6-31G*
  Basis Set:

    Orbital Energies (a.u.)
    -----------------------

    Doubly Occupied:

       1A    -20.588203     2A    -20.552585     3A    -11.376800
       4A    -11.291739     5A    -11.234802     6A    -11.229166
       7A     -1.459874     8A     -1.364704     9A     -1.051370
      10A     -1.007350    11A     -0.885097    12A     -0.763818
      13A     -0.696105    14A     -0.681329    15A     -0.664922
      16A     -0.615156    17A     -0.591825    18A     -0.571991
      19A     -0.558380    20A     -0.547034    21A     -0.512303
      22A     -0.494220    23A     -0.449679    24A     -0.438330

  @DF-RHF Final Energy:  -305.86167076268737

   => Energetics <=

    Nuclear Repulsion Energy =            248.3993834844708601
    One-Electron Energy =                -909.2685447049327649
    Two-Electron Energy =                 355.0074904577747930
    DFT Exchange-Correlation Energy =       0.0000000000000000
    Empirical Dispersion Energy =           0.0000000000000000
    PCM Polarization Energy =               0.0000000000000000
    EFP Energy =                            0.0000000000000000
    Total Energy =                       -305.8616707626871403
    Molecular point group: c1
  Basis Set: 6-31G*
  Basis Set:

  -Total Gradient:
     Atom            X                  Y                   Z
    ------   -----------------  -----------------  -----------------
       1       -0.002736843371    -0.000254263527    -0.009527433435
       2        0.002461361193    -0.002152967787     0.016598763073
       3        0.000009085340    -0.000012927134     0.000053690053
       4        0.003547825213     0.007308609059    -0.012270543037
       5       -0.000000558214     0.000004588169    -0.000010194885
       6        0.000004566660     0.000011480676    -0.000005819110
       7        0.000000294047    -0.000004295993    -0.000026232154
       8       -0.003320338365    -0.004854145726     0.005206463037
       9        0.000010597615    -0.000017618868    -0.000018807626
      10        0.000026835679    -0.000005621172     0.000005947532
      11       -0.000004678297    -0.000010683925     0.000009962390
      12        0.000008727666     0.000000551224    -0.000009297092
      13        0.000003605424    -0.000005484479    -0.000024710088
      14       -0.000010480590    -0.000007220516     0.000018211341

  **** Optimization is complete! (in 6 steps) ****
    Final optimized geometry and variables:
    Molecular point group: c1

    Geometry (in Angstrom), charge = 0, multiplicity = 1:

    O           -0.464846454701     1.623361332381    -0.487189001434
    C           -0.646972058623     0.456267851961    -0.403497615755
    C           -1.985627376842    -0.182688757098    -0.153946620990
    O            0.314246822518    -0.449978658392    -0.653607747661
    H           -2.229731797696    -0.835901696759    -0.984173557572
    H           -2.744986475497     0.577364997512    -0.044030449916
    H           -1.940776604112    -0.797186049731     0.738515714729
    C            1.496182350745    -0.411657164119     0.137574123953
    C            1.268906357112    -1.012551057975     1.513443021106
    H            1.847177741994     0.609600039592     0.203713489453
    H            2.223573227049    -0.986848969418    -0.416112707631
    H            2.205154920108    -1.041991102295     2.061811285582
    H            0.565113853031    -0.423047830144     2.093035522930
    H            0.887073516523    -2.024080031369     1.431527693952

  Mulliken Charges: (a.u.)
   Center  Symbol    Alpha    Beta     Spin     Total
       1     O     4.26311  4.26311  0.00000 -0.52622
       2     C     2.62254  2.62254  0.00000  0.75493
       3     C     3.28385  3.28385  0.00000 -0.56770
       4     O     4.31536  4.31536  0.00000 -0.63072
       5     H     0.39777  0.39777  0.00000  0.20447
       6     H     0.39790  0.39790  0.00000  0.20419
       7     H     0.40512  0.40512  0.00000  0.18975
       8     C     3.00748  3.00748  0.00000 -0.01496
       9     C     3.25581  3.25581  0.00000 -0.51162
      10     H     0.40396  0.40396  0.00000  0.19207
      11     H     0.40715  0.40715  0.00000  0.18571
      12     H     0.41365  0.41365  0.00000  0.17270
      13     H     0.41557  0.41557  0.00000  0.16886
      14     H     0.41073  0.41073  0.00000  0.17855

   Total alpha = 24.00000, Total beta = 24.00000, Total charge = -0.00000
