                              Psi4 1.0.54 Driver

  ==> Input File <==

--------------------------------------------------------------------------
set {
	reference rhf
	basis cc-pvtz
}

set_num_threads( 4 )
memory 2 gb

molecule MOL {
0 1

H	 -3.436473	 1.252944	 -1.023892
O	 -3.458596	 0.315260	 -0.960865
C	 -3.176635	 -0.080824	 0.355601
C	 -1.763371	 0.265266	 0.799691
H	 -3.321825	 -1.153438	 0.379502
H	 -3.895468	 0.357385	 1.043382
C	 -0.705868	 0.045345	 -0.278105
H	 -1.740951	 1.302605	 1.130281
H	 -1.527613	 -0.336441	 1.674194
C	 0.701046	 0.428598	 0.173204
H	 -0.972351	 0.614623	 -1.161747
H	 -0.716359	 -1.000640	 -0.575277
C	 1.755376	 0.201356	 -0.908368
H	 0.701372	 1.470633	 0.478250
H	 0.966490	 -0.148043	 1.056880
C	 3.193421	 0.494809	 -0.477372
H	 1.512384	 0.806824	 -1.778548
H	 1.698909	 -0.833245	 -1.235526
C	 3.480971	 1.962576	 -0.170585
H	 3.861747	 0.168239	 -1.268238
H	 3.437203	 -0.109318	 0.392698
H	 3.240748	 2.592180	 -1.021448
H	 4.529909	 2.108499	 0.061100
H	 2.908584	 2.319839	 0.676966

	symmetry c1
}
set optking {
	frozen_dihedral = ("
		7 4 3 2
	")
}

ee,wfn = optimize('scf', return_wfn=True)
oeprop( wfn, 'DIPOLE', 'QUADRUPOLE', 'MULLIKEN_CHARGES')
f=open( 'psi4out.xyz', 'w' )
f.write( "24  " )
f.write( str(ee) + "\n" )
f.write( MOL.save_string_xyz() )
f.close()
--------------------------------------------------------------------------

    Molecular point group: c1
  Charge       = 0
  Multiplicity = 1
  Basis Set: CC-PVTZ
  Basis Set:
  @DF-RHF Final Energy:  -349.37782043333988
    Total Energy =                       -349.3778204333398207
    Molecular point group: c1
  Basis Set: CC-PVTZ
  Basis Set:
  Basis Set: CC-PVTZ
  Basis Set:
  @DF-RHF Final Energy:  -349.33848826042725
    Total Energy =                       -349.3384882604274253
  Basis Set: CC-PVTZ
  Basis Set:
  Basis Set: CC-PVTZ
  Basis Set:
  @DF-RHF Final Energy:  -349.37699874938431
    Total Energy =                       -349.3769987493838016
  Basis Set: CC-PVTZ
  Basis Set:
  Basis Set: CC-PVTZ
  Basis Set:
  @DF-RHF Final Energy:  -349.37815608151561
    Total Energy =                       -349.3781560815156126
  Basis Set: CC-PVTZ
  Basis Set:
  Basis Set: CC-PVTZ
  Basis Set:
  @DF-RHF Final Energy:  -349.37819889983223
    Total Energy =                       -349.3781988998321140
  Basis Set: CC-PVTZ
  Basis Set:
  Basis Set: CC-PVTZ
  Basis Set:
  @DF-RHF Final Energy:  -349.37820605120965
    Total Energy =                       -349.3782060512098724
  Basis Set: CC-PVTZ
  Basis Set:
  Charge       = 0
  Multiplicity = 1
  Basis Set: CC-PVTZ
  Basis Set:

    Orbital Energies (a.u.)
    -----------------------

    Doubly Occupied:

       1A    -20.546979     2A    -11.265704     3A    -11.214417
       4A    -11.211916     5A    -11.209787     6A    -11.209135
       7A    -11.208729     8A    -11.205261     9A     -1.364506
      10A     -1.089085    11A     -1.048167    12A     -0.986175
      13A     -0.916886    14A     -0.851519    15A     -0.798282
      16A     -0.776493    17A     -0.683904    18A     -0.654016
      19A     -0.627223    20A     -0.618286    21A     -0.598796
      22A     -0.586781    23A     -0.555438    24A     -0.545043
      25A     -0.514263    26A     -0.506702    27A     -0.502144
      28A     -0.473119    29A     -0.464922    30A     -0.460311
      31A     -0.455397    32A     -0.449949    33A     -0.422808

  @DF-RHF Final Energy:  -349.37820704908813

   => Energetics <=

    Nuclear Repulsion Energy =            385.4806990530618123
    One-Electron Energy =               -1237.6735392847372168
    Two-Electron Energy =                 502.8146331825869311
    DFT Exchange-Correlation Energy =       0.0000000000000000
    Empirical Dispersion Energy =           0.0000000000000000
    PCM Polarization Energy =               0.0000000000000000
    EFP Energy =                            0.0000000000000000
    Total Energy =                       -349.3782070490884735
    Molecular point group: c1
  Basis Set: CC-PVTZ
  Basis Set:

  -Total Gradient:
     Atom            X                  Y                   Z
    ------   -----------------  -----------------  -----------------
       1        0.000000657144     0.000063437750    -0.000018042144
       2        0.001505209446    -0.004096111790     0.000020196136
       3       -0.002270191596     0.006807956841    -0.001077122527
       4        0.001333263828    -0.005814301400     0.003542564794
       5        0.000002073842    -0.000054008057     0.000032912246
       6       -0.000008244414     0.000039728775    -0.000001781656
       7       -0.000567957941     0.003046232495    -0.002505326607
       8       -0.000003537772     0.000057324767    -0.000019364528
       9        0.000003517281    -0.000023402707     0.000059725512
      10       -0.000016867131    -0.000035518446     0.000025157724
      11       -0.000053940343     0.000028170977    -0.000066462514
      12        0.000022077686    -0.000044102175    -0.000008872254
      13        0.000037420808     0.000048347125    -0.000006355235
      14       -0.000047001417    -0.000001307533    -0.000023082999
      15        0.000024150392     0.000002944017     0.000083678161
      16       -0.000060478909    -0.000004305950     0.000045579266
      17       -0.000021658213     0.000043482665    -0.000065954016
      18        0.000010890521    -0.000071332963    -0.000027092668
      19        0.000049241048     0.000017352895    -0.000001015472
      20        0.000032901972    -0.000059889744    -0.000028702070
      21        0.000004307734    -0.000007586452     0.000083060961
      22       -0.000016616074     0.000030371401    -0.000063279858
      23        0.000017673857     0.000000410184    -0.000013728854
      24        0.000023108249     0.000026107327     0.000033308602

  **** Optimization is complete! (in 7 steps) ****
    Final optimized geometry and variables:
    Molecular point group: c1

    Geometry (in Angstrom), charge = 0, multiplicity = 1:

    H           -3.478513610960     0.368854616824    -1.193450335899
    O           -3.426034102001    -0.483521759998    -0.799979725113
    C           -3.148371128957    -0.369307942718     0.570112538412
    C           -1.748578985822     0.154187966344     0.885985517102
    H           -3.253334518006    -1.373730553062     0.961106318579
    H           -3.894198826085     0.246235082689     1.065379602094
    C           -0.648023302961    -0.395891025115    -0.017254339316
    H           -1.745954856070     1.240717927497     0.810370531303
    H           -1.534066524431    -0.074057368910     1.926399809765
    C            0.742893227377     0.091009262264     0.381901752931
    H           -0.850064617594    -0.113976354444    -1.043729570463
    H           -0.670496930702    -1.482752773706     0.003796055763
    C            1.844260630150    -0.441186927889    -0.533165752213
    H            0.750958292252     1.176947698521     0.379188986810
    H            0.952144963623    -0.212716764345     1.405457996628
    C            3.265927642173    -0.052949217666    -0.122985789633
    H            1.660700373302    -0.102209908199    -1.550362431633
    H            1.778284613678    -1.525438422425    -0.560331639755
    C            3.576951362890     1.438165554111    -0.230069207962
    H            3.964613004893    -0.598946497343    -0.749668145030
    H            3.449067163036    -0.386778978236     0.895171482293
    H            3.393354725153     1.802700483632    -1.235931277501
    H            4.617364167878     1.631763643507     0.005200859898
    H            2.975052754680     2.028404566403     0.450434792034

  Mulliken Charges: (a.u.)
   Center  Symbol    Alpha    Beta     Spin     Total
       1     H     0.39531  0.39531  0.00000  0.20938
       2     O     4.20212  4.20212  0.00000 -0.40424
       3     C     2.98041  2.98041  0.00000  0.03918
       4     C     3.11347  3.11347  0.00000 -0.22693
       5     H     0.45635  0.45635  0.00000  0.08729
       6     H     0.45963  0.45963  0.00000  0.08075
       7     C     3.07768  3.07768  0.00000 -0.15536
       8     H     0.45605  0.45605  0.00000  0.08790
       9     H     0.45244  0.45244  0.00000  0.09513
      10     C     3.09149  3.09149  0.00000 -0.18299
      11     H     0.45170  0.45170  0.00000  0.09661
      12     H     0.45344  0.45344  0.00000  0.09312
      13     C     3.09439  3.09439  0.00000 -0.18878
      14     H     0.45402  0.45402  0.00000  0.09197
      15     H     0.45560  0.45560  0.00000  0.08880
      16     C     3.09016  3.09016  0.00000 -0.18032
      17     H     0.45428  0.45428  0.00000  0.09145
      18     H     0.44932  0.44932  0.00000  0.10136
      19     C     3.15248  3.15248  0.00000 -0.30496
      20     H     0.44863  0.44863  0.00000  0.10274
      21     H     0.45515  0.45515  0.00000  0.08970
      22     H     0.45518  0.45518  0.00000  0.08964
      23     H     0.44661  0.44661  0.00000  0.10678
      24     H     0.45410  0.45410  0.00000  0.09180

   Total alpha = 33.00000, Total beta = 33.00000, Total charge = -0.00000

*** Psi4 exiting successfully. Buy a developer a beer!
