  ==> Input File <==

--------------------------------------------------------------------------
set {
	reference rhf
	basis 6-31G*
}

set_num_threads( 4 )
memory 2 gb

molecule MOL {
0 1

H	 -3.650283	 0.221984	 0.000000
C	 -2.577024	 0.154109	 0.000000
C	 -1.960329	 -1.089307	 0.000000
C	 -1.811733	 1.307557	 0.000000
H	 -2.554473	 -1.985285	 0.000000
C	 -0.581547	 -1.175855	 0.000000
H	 -2.287118	 2.271701	 0.000000
C	 -0.428719	 1.219221	 0.000000
H	 -0.090826	 -2.129898	 0.000000
C	 0.198341	 -0.021559	 0.000000
H	 0.149947	 2.124040	 0.000000
C	 1.691355	 -0.173192	 0.000000
C	 2.469801	 0.202673	 -1.243499
O	 2.260237	 -0.584949	 0.967576
H	 2.152019	 -0.391750	 -2.094062
H	 3.519650	 0.027854	 -1.057097
H	 2.318520	 1.247658	 -1.494297

	symmetry c1
}
set optking {
	frozen_dihedral = ("
		13 12 10 8
	")
}

ee = optimize('scf')
oeprop('DIPOLE', 'QUADRUPOLE', 'MULLIKEN_CHARGES')
f=open( 'psi4out.xyz', 'w' )
f.write( "17  " )
f.write( str(ee) + "\n" )
f.write( MOL.save_string_xyz() )
f.close()
--------------------------------------------------------------------------

    Molecular point group: c1
  Charge       = 0
  Multiplicity = 1
  Basis Set: 6-31G*
  Basis Set:
  @DF-RHF Final Energy:  -382.46669552501493
    Total Energy =                       -382.4666955250152114
    Molecular point group: c1
  Basis Set: 6-31G*
  Basis Set:
  Basis Set: 6-31G*
  Basis Set:
  @DF-RHF Final Energy:  -382.46601326218843
    Total Energy =                       -382.4660132621884259
  Basis Set: 6-31G*
  Basis Set:
  Basis Set: 6-31G*
  Basis Set:
  @DF-RHF Final Energy:  -382.46752468387302
    Total Energy =                       -382.4675246838727389
  Basis Set: 6-31G*
  Basis Set:
  Basis Set: 6-31G*
  Basis Set:
  @DF-RHF Final Energy:  -382.46773071204632
    Total Energy =                       -382.4677307120465457
  Basis Set: 6-31G*
  Basis Set:
  Basis Set: 6-31G*
  Basis Set:
  @DF-RHF Final Energy:  -382.46774393692027
    Total Energy =                       -382.4677439369206695
  Basis Set: 6-31G*
  Basis Set:
  Basis Set: 6-31G*
  Basis Set:
  @DF-RHF Final Energy:  -382.46775118372307
    Total Energy =                       -382.4677511837228394
  Basis Set: 6-31G*
  Basis Set:
  Charge       = 0
  Multiplicity = 1
  Basis Set: 6-31G*
  Basis Set:

    Orbital Energies (a.u.)
    -----------------------

    Doubly Occupied:

       1A    -20.556481     2A    -11.333752     3A    -11.246778
       4A    -11.245009     5A    -11.242289     6A    -11.241410
       7A    -11.240365     8A    -11.239366     9A    -11.231303
      10A     -1.401604    11A     -1.165575    12A     -1.050038
      13A     -1.025680    14A     -0.998435    15A     -0.859088
      16A     -0.837123    17A     -0.761297    18A     -0.702989
      19A     -0.662082    20A     -0.643566    21A     -0.625013
      22A     -0.620145    23A     -0.599174    24A     -0.589634
      25A     -0.561241    26A     -0.523327    27A     -0.512556
      28A     -0.504111    29A     -0.491502    30A     -0.409863
      31A     -0.343549    32A     -0.341397

  @DF-RHF Final Energy:  -382.46775148667410

   => Energetics <=

    Nuclear Repulsion Energy =            402.7306533182745056
    One-Electron Energy =               -1316.7853266243380403
    Two-Electron Energy =                 531.5869218193895449
    DFT Exchange-Correlation Energy =       0.0000000000000000
    Empirical Dispersion Energy =           0.0000000000000000
    PCM Polarization Energy =               0.0000000000000000
    EFP Energy =                            0.0000000000000000
    Total Energy =                       -382.4677514866739330
    Molecular point group: c1
  Basis Set: 6-31G*
  Basis Set:

  -Total Gradient:
     Atom            X                  Y                   Z
    ------   -----------------  -----------------  -----------------
       1        0.000000398361     0.000002023115    -0.000000145280
       2       -0.000007457594    -0.000033547467    -0.000034638279
       3       -0.000030530881     0.000015146649    -0.000001898561
       4        0.000042402349     0.000024467571     0.000059690166
       5        0.000001744933    -0.000001008247     0.000006416482
       6        0.000018523061     0.000025723497     0.000002827034
       7       -0.000002798611     0.000001461968    -0.000001827748
       8       -0.000177412056    -0.000056226640     0.003916543333
       9        0.000007331622    -0.000006157285    -0.000005252190
      10        0.000070790817    -0.001429597731    -0.006437060244
      11       -0.000003761251     0.000004981399     0.000006602495
      12        0.000322636050     0.004709017922     0.003799478666
      13       -0.000272143703    -0.003259562699    -0.001287378992
      14        0.000000516806     0.000008421295    -0.000017083940
      15        0.000006629972     0.000002342594     0.000004396767
      16        0.000020244724    -0.000000298551    -0.000015403704
      17        0.000002885391    -0.000007187392     0.000004733996

  **** Optimization is complete! (in 7 steps) ****
    Final optimized geometry and variables:
    Molecular point group: c1

    Geometry (in Angstrom), charge = 0, multiplicity = 1:

    H           -3.641695725424     0.279317740182     0.052736202511
    C           -2.569524236996     0.199150658431     0.041345680006
    C           -1.966535568821    -1.049033632580     0.044882077093
    C           -1.788594604364     1.343021388587     0.031855611302
    H           -2.569719207254    -1.938912135314     0.062167082123
    C           -0.586163178015    -1.153120356855     0.042042032222
    H           -2.251958934057     2.313138377507     0.044569879001
    C           -0.407170277389     1.239294592151     0.007978667045
    H           -0.117373458013    -2.120122997581     0.073850660411
    C            0.200313919466    -0.008988506109     0.002294382264
    H            0.192877203846     2.132687460404     0.000875233992
    C            1.700449200393    -0.144164331346     0.049680172848
    C            2.468823893004     0.278918575227    -1.181794098071
    O            2.240117674425    -0.641670923343     0.989218282377
    H            2.188032428099    -0.367044439079    -2.008842422856
    H            3.531514255407     0.194976863473    -0.999876111127
    H            2.222134175166     1.294494764361    -1.474111116646

  Mulliken Charges: (a.u.)
   Center  Symbol    Alpha    Beta     Spin     Total
       1     H     0.39655  0.39655  0.00000  0.20691
       2     C     3.09796  3.09796  0.00000 -0.19591
       3     C     3.09953  3.09953  0.00000 -0.19905
       4     C     3.09894  3.09894  0.00000 -0.19789
       5     H     0.39587  0.39587  0.00000  0.20825
       6     C     3.09903  3.09903  0.00000 -0.19806
       7     H     0.39638  0.39638  0.00000  0.20723
       8     C     3.10379  3.10379  0.00000 -0.20757
       9     H     0.38929  0.38929  0.00000  0.22142
      10     C     3.03119  3.03119  0.00000 -0.06238
      11     H     0.39581  0.39581  0.00000  0.20838
      12     C     2.75096  2.75096  0.00000  0.49809
      13     C     3.28671  3.28671  0.00000 -0.57342
      14     O     4.24979  4.24979  0.00000 -0.49959
      15     H     0.40269  0.40269  0.00000  0.19461
      16     H     0.39741  0.39741  0.00000  0.20518
      17     H     0.40810  0.40810  0.00000  0.18380

   Total alpha = 32.00000, Total beta = 32.00000, Total charge =  0.00000
