                              Psi4 1.0.54 Driver

  ==> Input File <==

--------------------------------------------------------------------------
set {
	reference rhf
	basis cc-pvtz
}

set_num_threads( 4 )
memory 2 gb

molecule MOL {
0 1

H	 -2.644180	 -0.653737	 1.272255
C	 -2.092774	 -0.380414	 0.391915
O	 -0.808934	 -0.154049	 0.752536
F	 -2.163230	 -1.351640	 -0.507133
F	 -2.627232	 0.691260	 -0.169301
C	 0.085006	 0.250800	 -0.215074
C	 1.178644	 -0.811257	 -0.300327
Cl	 0.795457	 1.825466	 0.186455
H	 -0.369618	 0.341700	 -1.186001
F	 2.056902	 -0.491991	 -1.216708
F	 0.636381	 -1.956139	 -0.641662
F	 1.799224	 -0.974892	 0.835611

	symmetry c1
}
set optking {
	frozen_dihedral = ("
		9 6 3 2
	")
}

ee,wfn = optimize('scf', return_wfn=True)
oeprop( wfn, 'DIPOLE', 'QUADRUPOLE', 'MULLIKEN_CHARGES')
f=open( 'psi4out.xyz', 'w' )
f.write( "12  " )
f.write( str(ee) + "\n" )
f.write( MOL.save_string_xyz() )
f.close()
--------------------------------------------------------------------------

    Molecular point group: c1
  Charge       = 0
  Multiplicity = 1
  Basis Set: CC-PVTZ
  Basis Set:
  @DF-RHF Final Energy: -1146.61935276548706
    Total Energy =                      -1146.6193527654875197
    Molecular point group: c1
  Basis Set: CC-PVTZ
  Basis Set:
  Basis Set: CC-PVTZ
  Basis Set:
  @DF-RHF Final Energy: -1146.61962411042987
    Total Energy =                      -1146.6196241104289584
  Basis Set: CC-PVTZ
  Basis Set:
  Basis Set: CC-PVTZ
  Basis Set:
  @DF-RHF Final Energy: -1146.61971242028289
    Total Energy =                      -1146.6197124202828945
  Basis Set: CC-PVTZ
  Basis Set:
  Basis Set: CC-PVTZ
  Basis Set:
  @DF-RHF Final Energy: -1146.61974487991893
    Total Energy =                      -1146.6197448799191534
  Basis Set: CC-PVTZ
  Basis Set:
  Basis Set: CC-PVTZ
  Basis Set:
  @DF-RHF Final Energy: -1146.61974703335500
    Total Energy =                      -1146.6197470333554520
  Basis Set: CC-PVTZ
  Basis Set:
  Charge       = 0
  Multiplicity = 1
  Basis Set: CC-PVTZ
  Basis Set:

    Orbital Energies (a.u.)
    -----------------------

    Doubly Occupied:

       1A   -104.857115     2A    -26.354833     3A    -26.353850
       4A    -26.352959     5A    -26.343551     6A    -26.343183
       7A    -20.640840     8A    -11.519869     9A    -11.484194
      10A    -11.401404    11A    -10.582612    12A     -8.049411
      13A     -8.047421    14A     -8.047343    15A     -1.767876
      16A     -1.724960    17A     -1.662724    18A     -1.661279
      19A     -1.644883    20A     -1.486826    21A     -1.179061
      22A     -1.050536    23A     -0.992201    24A     -0.924509
      25A     -0.863991    26A     -0.859106    27A     -0.851676
      28A     -0.832589    29A     -0.819151    30A     -0.794164
      31A     -0.734339    32A     -0.731847    33A     -0.712105
      34A     -0.708125    35A     -0.683773    36A     -0.681487
      37A     -0.664891    38A     -0.663581    39A     -0.649474
      40A     -0.639877    41A     -0.598465    42A     -0.581256
      43A     -0.526279    44A     -0.478942    45A     -0.469946

  @DF-RHF Final Energy: -1146.61974789192300

   => Energetics <=

    Nuclear Repulsion Energy =            739.6536370856746316
    One-Electron Energy =               -3062.5097591916382953
    Two-Electron Energy =                1176.2363742140405520
    DFT Exchange-Correlation Energy =       0.0000000000000000
    Empirical Dispersion Energy =           0.0000000000000000
    PCM Polarization Energy =               0.0000000000000000
    EFP Energy =                            0.0000000000000000
    Total Energy =                      -1146.6197478919229980
    Molecular point group: c1
  Basis Set: CC-PVTZ
  Basis Set:

  -Total Gradient:
     Atom            X                  Y                   Z
    ------   -----------------  -----------------  -----------------
       1       -0.000018377570    -0.000004014022     0.000010112256
       2        0.000384929117    -0.001995139433    -0.000285573750
       3       -0.000809925672     0.003653120127     0.000690615133
       4        0.000017353732     0.000033992652    -0.000041693471
       5        0.000022729399    -0.000054457441    -0.000031259062
       6        0.000911736825    -0.004043028424    -0.000814273269
       7        0.000081479539    -0.000039448267    -0.000004256232
       8        0.000009560796    -0.000026483825    -0.000009925327
       9       -0.000519320805     0.002405104822     0.000479284211
      10       -0.000017290381     0.000018158319    -0.000002058759
      11       -0.000029433178     0.000041035288     0.000022315464
      12       -0.000033441811     0.000011160266    -0.000013287186

  **** Optimization is complete! (in 6 steps) ****
    Final optimized geometry and variables:
    Molecular point group: c1

    Geometry (in Angstrom), charge = 0, multiplicity = 1:

    H           -2.630366242527    -0.514887149171     1.351657581394
    C           -2.083000055902    -0.223379720855     0.474602640066
    O           -0.794552334614    -0.018797009926     0.831089725377
    F           -2.179173008707    -1.160811926621    -0.454977939661
    F           -2.606533582803     0.876468324714    -0.046231159762
    C            0.103953347013     0.367442927131    -0.142987917127
    C            1.223888028514    -0.668750512815    -0.216351457203
    CL           0.778411948126     1.957854955178     0.256158554241
    H           -0.352056369241     0.463020186283    -1.112354360270
    F            2.088451208605    -0.341379903579    -1.143298150472
    F            0.714568463760    -1.835154191990    -0.531790166199
    F            1.854059706146    -0.792804398891     0.919606807471

  Mulliken Charges: (a.u.)
   Center  Symbol    Alpha    Beta     Spin     Total
       1     H     0.45140  0.45140  0.00000  0.09719
       2     C     2.74000  2.74000  0.00000  0.52000
       3     O     4.15815  4.15815  0.00000 -0.31630
       4     F     4.61647  4.61647  0.00000 -0.23295
       5     F     4.61722  4.61722  0.00000 -0.23445
       6     C     2.93442  2.93442  0.00000  0.13116
       7     C     2.67079  2.67079  0.00000  0.65843
       8    CL     8.57439  8.57439  0.00000 -0.14878
       9     H     0.43000  0.43000  0.00000  0.13999
      10     F     4.60302  4.60302  0.00000 -0.20605
      11     F     4.60347  4.60347  0.00000 -0.20693
      12     F     4.60066  4.60066  0.00000 -0.20131

   Total alpha = 45.00000, Total beta = 45.00000, Total charge = -0.00000

*** Psi4 exiting successfully. Buy a developer a beer!
