  ==> Input File <==

--------------------------------------------------------------------------
set {
	reference rhf
	basis 6-31G*
}

set_num_threads( 4 )
memory 2 gb

molecule MOL {
0 1

O	 -2.821601	 1.309235	 -0.001213
C	 -2.668563	 0.129746	 -0.000350
C	 -3.801572	 -0.864014	 -0.000442
O	 -1.481751	 -0.454642	 0.000584
H	 -4.417280	 -0.689587	 -0.874708
H	 -3.443784	 -1.883046	 -0.000565
H	 -4.417179	 -0.689832	 0.873954
C	 -0.334255	 0.388708	 0.000906
C	 0.891947	 -0.504646	 0.000751
H	 -0.365390	 1.025305	 -0.873475
H	 -0.365484	 1.024911	 0.875569
C	 0.732694	 -1.701064	 -0.939298
H	 1.075134	 -0.849662	 1.014579
H	 1.756313	 0.085487	 -0.290925
C	 1.959216	 -2.615270	 -0.953372
H	 -0.141595	 -2.279872	 -0.646576
H	 0.539304	 -1.346258	 -1.950137
C	 1.799569	 -3.810962	 -1.891295
H	 2.153689	 -2.971020	 0.055933
H	 2.833418	 -2.039006	 -1.247921
H	 0.952409	 -4.426210	 -1.601807
H	 2.684216	 -4.439846	 -1.879399
H	 1.637592	 -3.487214	 -2.915483

	symmetry c1
}
set optking {
	frozen_dihedral = ("
		13 9 8 10
	")
}

ee = optimize('scf')
oeprop('DIPOLE', 'QUADRUPOLE', 'MULLIKEN_CHARGES')
f=open( 'psi4out.xyz', 'w' )
f.write( "23  " )
f.write( str(ee) + "\n" )
f.write( MOL.save_string_xyz() )
f.close()
--------------------------------------------------------------------------

    Molecular point group: c1
  Charge       = 0
  Multiplicity = 1
  Basis Set: 6-31G*
  Basis Set:
  @DF-RHF Final Energy:  -422.97621657119151
    Total Energy =                       -422.9762165711913440
    Molecular point group: c1
  Basis Set: 6-31G*
  Basis Set:
  Basis Set: 6-31G*
  Basis Set:
  @DF-RHF Final Energy:  -422.97718545398874
    Total Energy =                       -422.9771854539885680
  Basis Set: 6-31G*
  Basis Set:
  Basis Set: 6-31G*
  Basis Set:
  @DF-RHF Final Energy:  -422.97768748515074
    Total Energy =                       -422.9776874851509092
  Basis Set: 6-31G*
  Basis Set:
  Basis Set: 6-31G*
  Basis Set:
  @DF-RHF Final Energy:  -422.97745364228115
    Total Energy =                       -422.9774536422803521
  Basis Set: 6-31G*
  Basis Set:
  Basis Set: 6-31G*
  Basis Set:
  @DF-RHF Final Energy:  -422.97774986098062
    Total Energy =                       -422.9777498609807935
  Basis Set: 6-31G*
  Basis Set:
  Basis Set: 6-31G*
  Basis Set:
  @DF-RHF Final Energy:  -422.97775172476855
    Total Energy =                       -422.9777517247686092
  Basis Set: 6-31G*
  Basis Set:
  Basis Set: 6-31G*
  Basis Set:
  @DF-RHF Final Energy:  -422.97775309760743
    Total Energy =                       -422.9777530976075468
  Basis Set: 6-31G*
  Basis Set:
  Charge       = 0
  Multiplicity = 1
  Basis Set: 6-31G*
  Basis Set:

    Orbital Energies (a.u.)
    -----------------------

    Doubly Occupied:

       1A    -20.604272     2A    -20.541642     3A    -11.375194
       4A    -11.282166     5A    -11.233289     6A    -11.225621
       7A    -11.218934     8A    -11.217656     9A    -11.211131
      10A     -1.469258    11A     -1.362024    12A     -1.090844
      13A     -1.041196    14A     -1.002917    15A     -0.931169
      16A     -0.843576    17A     -0.805018    18A     -0.770203
      19A     -0.688730    20A     -0.685536    21A     -0.667227
      22A     -0.643149    23A     -0.606451    24A     -0.587079
      25A     -0.579563    26A     -0.568817    27A     -0.559755
      28A     -0.531051    29A     -0.528366    30A     -0.512609
      31A     -0.491389    32A     -0.474159    33A     -0.466798
      34A     -0.458804    35A     -0.447430    36A     -0.438114

  @DF-RHF Final Energy:  -422.97775369141613

   => Energetics <=

    Nuclear Repulsion Energy =            459.0563513191875131
    One-Electron Energy =               -1485.7459360059453957
    Two-Electron Energy =                 603.7118309953409607
    DFT Exchange-Correlation Energy =       0.0000000000000000
    Empirical Dispersion Energy =           0.0000000000000000
    PCM Polarization Energy =               0.0000000000000000
    EFP Energy =                            0.0000000000000000
    Total Energy =                       -422.9777536914168650
    Molecular point group: c1
  Basis Set: 6-31G*
  Basis Set:

  -Total Gradient:
     Atom            X                  Y                   Z
    ------   -----------------  -----------------  -----------------
       1       -0.000000781136     0.000002047707     0.000013575427
       2        0.000018738592    -0.000005813719    -0.000022269378
       3        0.000002186306    -0.000000580026    -0.000003804809
       4       -0.000016979265    -0.000018478556     0.000022142901
       5        0.000000433626     0.000003349173     0.000002722211
       6       -0.000000664209     0.000000124938     0.000001408375
       7        0.000000787344    -0.000002558549     0.000002830991
       8       -0.002526760202    -0.003374632286    -0.002858392647
       9       -0.002885675448    -0.003762666930    -0.000293234225
      10        0.002562811568     0.003404674860     0.002368696973
      11        0.000005937540     0.000001774326     0.000010124638
      12       -0.000014642527    -0.000000008013    -0.000005178342
      13        0.002868152625     0.003748244220     0.000754939540
      14       -0.000016417179     0.000002179720     0.000000059516
      15       -0.000000809671    -0.000005499088     0.000012988074
      16        0.000007558294    -0.000003173219     0.000001432961
      17       -0.000004990284     0.000004381216    -0.000005627856
      18       -0.000001133992     0.000008100514    -0.000005681072
      19        0.000001162854    -0.000001182325     0.000001581542
      20        0.000001079428    -0.000001640647     0.000000418462
      21        0.000001962671    -0.000000751664     0.000002438973
      22        0.000000970852     0.000004225267    -0.000000790143
      23       -0.000002927779    -0.000002116921    -0.000000382113

  **** Optimization is complete! (in 8 steps) ****
    Final optimized geometry and variables:
    Molecular point group: c1

    Geometry (in Angstrom), charge = 0, multiplicity = 1:

    O           -2.143849734713     2.281188294533     0.386251023696
    C           -2.059926044513     1.096244929434     0.440296482362
    C           -3.248675043889     0.172243840308     0.504992876967
    O           -0.908932103782     0.443295137212     0.450595218371
    H           -3.868181473949     0.340937822529    -0.367693377108
    H           -2.951342268150    -0.865124676037     0.549069739902
    H           -3.837766307152     0.423912718310     1.378756536360
    C            0.283330351727     1.215902619390     0.392662366781
    C            1.488142578400     0.288203984808     0.428271435263
    H            0.282212746950     1.832663632919    -0.496488239942
    H            0.299283102474     1.891919695410     1.237621294023
    C            1.419023366696    -0.894897772384    -0.536914729358
    H            1.661045329957    -0.047205622741     1.447519584024
    H            2.352081467883     0.902925053652     0.180370588196
    C            2.705662768882    -1.722335009425    -0.548110878552
    H            0.581154063687    -1.530945036508    -0.271294637288
    H            1.218595404138    -0.526429629313    -1.541817644862
    C            2.637405152592    -2.913430952879    -1.503077296076
    H            2.912797075221    -2.079208981614     0.458631819002
    H            3.543862235521    -1.086180913449    -0.824599797118
    H            1.831077765644    -3.588363536620    -1.230492004953
    H            3.562577227726    -3.481155703868    -1.490322794050
    H            2.463383257270    -2.587426524024    -2.524636918257

  Mulliken Charges: (a.u.)
   Center  Symbol    Alpha    Beta     Spin     Total
       1     O     4.28340  4.28340  0.00000 -0.56681
       2     C     2.61429  2.61429  0.00000  0.77142
       3     C     3.28770  3.28770  0.00000 -0.57539
       4     O     4.30931  4.30931  0.00000 -0.61861
       5     H     0.39723  0.39723  0.00000  0.20554
       6     H     0.40020  0.40020  0.00000  0.19961
       7     H     0.39727  0.39727  0.00000  0.20547
       8     C     3.00250  3.00250  0.00000 -0.00499
       9     C     3.16966  3.16966  0.00000 -0.33931
      10     H     0.41023  0.41023  0.00000  0.17954
      11     H     0.40856  0.40856  0.00000  0.18288
      12     C     3.15131  3.15131  0.00000 -0.30262
      13     H     0.41553  0.41553  0.00000  0.16894
      14     H     0.41842  0.41842  0.00000  0.16316
      15     C     3.15290  3.15290  0.00000 -0.30580
      16     H     0.41198  0.41198  0.00000  0.17604
      17     H     0.42340  0.42340  0.00000  0.15319
      18     C     3.23925  3.23925  0.00000 -0.47850
      19     H     0.42235  0.42235  0.00000  0.15530
      20     H     0.42319  0.42319  0.00000  0.15363
      21     H     0.42122  0.42122  0.00000  0.15756
      22     H     0.41879  0.41879  0.00000  0.16241
      23     H     0.42133  0.42133  0.00000  0.15734

   Total alpha = 36.00000, Total beta = 36.00000, Total charge =  0.00000
