  ==> Input File <==

--------------------------------------------------------------------------
set {
	reference rhf
	basis 6-31G*
}

set_num_threads( 4 )
memory 2 gb

molecule MOL {
0 1

H	 2.591676	 2.013956	 0.335017
O	 3.341076	 1.666752	 -0.126416
C	 3.569581	 0.339145	 0.272707
C	 2.539767	 -0.640285	 -0.279495
H	 4.553106	 0.084646	 -0.100901
H	 3.608576	 0.269204	 1.359154
C	 1.115811	 -0.397273	 0.226630
H	 2.556196	 -0.582511	 -1.364741
H	 2.852081	 -1.648031	 -0.010655
C	 0.115918	 -1.429151	 -0.302766
H	 0.797950	 0.599468	 -0.066350
H	 1.109961	 -0.420744	 1.316472
C	 -1.242902	 -1.432211	 0.407120
H	 -0.035225	 -1.267174	 -1.368489
H	 0.556727	 -2.419175	 -0.206638
C	 -2.081095	 -0.167701	 0.199935
H	 -1.812627	 -2.287957	 0.050847
H	 -1.091037	 -1.593686	 1.473281
C	 -3.468492	 -0.260894	 0.838590
H	 -2.189872	 0.020037	 -0.867320
H	 -1.563202	 0.695983	 0.609982
C	 -4.304880	 1.002510	 0.638758
H	 -3.999574	 -1.114370	 0.422635
H	 -3.361943	 -0.458127	 1.903312
H	 -4.457094	 1.209015	 -0.416898
H	 -5.282483	 0.904694	 1.100665
H	 -3.817674	 1.869121	 1.076912

	symmetry c1
}
set optking {
	frozen_dihedral = ("
		14 10 7 4
	")
}

ee = optimize('scf')
oeprop('DIPOLE', 'QUADRUPOLE', 'MULLIKEN_CHARGES')
f=open( 'psi4out.xyz', 'w' )
f.write( "27  " )
f.write( str(ee) + "\n" )
f.write( MOL.save_string_xyz() )
f.close()
--------------------------------------------------------------------------

    Molecular point group: c1
  Charge       = 0
  Multiplicity = 1
  Basis Set: 6-31G*
  Basis Set:
  @DF-RHF Final Energy:  -388.28140917239267
    Total Energy =                       -388.2814091723925003
    Molecular point group: c1
  Basis Set: 6-31G*
  Basis Set:
  Basis Set: 6-31G*
  Basis Set:
  @DF-RHF Final Energy:  -388.28122076632076
    Total Energy =                       -388.2812207663212121
  Basis Set: 6-31G*
  Basis Set:
  Basis Set: 6-31G*
  Basis Set:
  @DF-RHF Final Energy:  -388.28146767678004
    Total Energy =                       -388.2814676767796982
  Basis Set: 6-31G*
  Basis Set:
  Basis Set: 6-31G*
  Basis Set:
  @DF-RHF Final Energy:  -388.28147010367979
    Total Energy =                       -388.2814701036795668
  Basis Set: 6-31G*
  Basis Set:
  Basis Set: 6-31G*
  Basis Set:
  @DF-RHF Final Energy:  -388.28147710000985
    Total Energy =                       -388.2814771000101928
  Basis Set: 6-31G*
  Basis Set:
  Basis Set: 6-31G*
  Basis Set:
  @DF-RHF Final Energy:  -388.28147875485683
    Total Energy =                       -388.2814787548567210
  Basis Set: 6-31G*
  Basis Set:
  Charge       = 0
  Multiplicity = 1
  Basis Set: 6-31G*
  Basis Set:

    Orbital Energies (a.u.)
    -----------------------

    Doubly Occupied:

       1A    -20.552279     2A    -11.267050     3A    -11.219979
       4A    -11.217278     5A    -11.216286     6A    -11.215663
       7A    -11.215267     8A    -11.214544     9A    -11.209627
      10A     -1.359045    11A     -1.095409    12A     -1.061516
      13A     -1.011716    14A     -0.948310    15A     -0.888254
      16A     -0.820013    17A     -0.802333    18A     -0.777580
      19A     -0.693425    20A     -0.653948    21A     -0.637447
      22A     -0.614628    23A     -0.598436    24A     -0.584366
      25A     -0.580107    26A     -0.551898    27A     -0.542488
      28A     -0.531874    29A     -0.504892    30A     -0.493872
      31A     -0.486142    32A     -0.474514    33A     -0.468246
      34A     -0.461159    35A     -0.452815    36A     -0.441764
      37A     -0.422783

  @DF-RHF Final Energy:  -388.28147874165336

   => Energetics <=

    Nuclear Repulsion Energy =            459.6896490927357490
    One-Electron Energy =               -1437.3683471129616009
    Two-Electron Energy =                 589.3972192785726065
    DFT Exchange-Correlation Energy =       0.0000000000000000
    Empirical Dispersion Energy =           0.0000000000000000
    PCM Polarization Energy =               0.0000000000000000
    EFP Energy =                            0.0000000000000000
    Total Energy =                       -388.2814787416532454
    Molecular point group: c1
  Basis Set: 6-31G*
  Basis Set:

  -Total Gradient:
     Atom            X                  Y                   Z
    ------   -----------------  -----------------  -----------------
       1       -0.000004414586     0.000003493996    -0.000000598667
       2       -0.000003039373     0.000006063459     0.000005763064
       3        0.000007109553    -0.000001305869    -0.000016840231
       4        0.000235889056    -0.000733468097     0.001004229706
       5        0.000002534727     0.000000079822     0.000000986269
       6       -0.000000799913    -0.000001185180    -0.000002721629
       7       -0.000621756839     0.001266855456    -0.001291509697
       8       -0.000004993296     0.000000057461     0.000004685933
       9        0.000005815611    -0.000001601645     0.000000327677
      10        0.001675261328    -0.001593852928    -0.000016881232
      11       -0.000005182539     0.000018951633     0.000013897993
      12        0.000013863398    -0.000003785009    -0.000006130496
      13        0.000004106210     0.000006434127    -0.000025282905
      14       -0.001304574984     0.001054969078     0.000350801107
      15       -0.000014319373    -0.000021324926    -0.000004537250
      16       -0.000007467729    -0.000005433743    -0.000016452811
      17        0.000005662792    -0.000003715386    -0.000000903576
      18        0.000010280670     0.000004938063    -0.000006041271
      19        0.000002837364     0.000004582419     0.000010833992
      20       -0.000004726923     0.000004637162    -0.000004657176
      21        0.000008107879    -0.000004980470     0.000000239561
      22       -0.000002236488    -0.000002184158    -0.000003762941
      23        0.000001211589     0.000001656036     0.000001927597
      24        0.000001041098     0.000000121626     0.000003211902
      25        0.000001860178     0.000002230335    -0.000000675033
      26       -0.000000947250    -0.000000859773    -0.000002703181
      27       -0.000001122169    -0.000001373489     0.000002793297

  **** Optimization is complete! (in 7 steps) ****
    Final optimized geometry and variables:
    Molecular point group: c1

    Geometry (in Angstrom), charge = 0, multiplicity = 1:

    H            2.547796394290     2.131717159540     0.078360691869
    O            3.304754819322     1.785533867748    -0.371310049772
    C            3.553334522450     0.472261251670     0.061628367258
    C            2.543394832753    -0.538072349347    -0.471271379268
    H            4.542907659522     0.225552842298    -0.301031730294
    H            3.588079332795     0.429644677480     1.149675145442
    C            1.114461774045    -0.313997256400     0.029528297670
    H            2.561522459689    -0.502944746262    -1.557655734383
    H            2.873536642601    -1.533771844443    -0.180590766478
    C            0.126788577169    -1.355292287047    -0.507957660778
    H            0.781305642603     0.680544881610    -0.253793064825
    H            1.111256848070    -0.346350241088     1.119283651999
    C           -1.239887485970    -1.355475620314     0.187025156064
    H           -0.021449695737    -1.189812389078    -1.573430427372
    H            0.565777197224    -2.344996684894    -0.405401121542
    C           -2.053991543722    -0.072452517098     0.000028009362
    H           -1.818635451474    -2.194144476017    -0.194550827591
    H           -1.101707494524    -1.542462165558     1.250826405393
    C           -3.449213250800    -0.154393923942     0.622856377368
    H           -2.148390349328     0.141448353697    -1.063769077388
    H           -1.523811153991     0.771726465619     0.434790590804
    C           -4.261038452109     1.127795439376     0.442370136720
    H           -3.990985403262    -0.989030526684     0.183161753588
    H           -3.357042530429    -0.376460120528     1.684019714409
    H           -4.398294320676     1.360056747755    -0.609978191797
    H           -5.245106863983     1.037328400724     0.891850071562
    H           -3.763383900175     1.975752157562     0.904638880777

  Mulliken Charges: (a.u.)
   Center  Symbol    Alpha    Beta     Spin     Total
       1     H     0.27998  0.27998  0.00000  0.44005
       2     O     4.37091  4.37091  0.00000 -0.74182
       3     C     2.99739  2.99739  0.00000  0.00522
       4     C     3.16115  3.16115  0.00000 -0.32230
       5     H     0.41442  0.41442  0.00000  0.17116
       6     H     0.43213  0.43213  0.00000  0.13575
       7     C     3.16305  3.16305  0.00000 -0.32609
       8     H     0.41501  0.41501  0.00000  0.16999
       9     H     0.42419  0.42419  0.00000  0.15162
      10     C     3.15200  3.15200  0.00000 -0.30401
      11     H     0.42317  0.42317  0.00000  0.15367
      12     H     0.42544  0.42544  0.00000  0.14911
      13     C     3.15368  3.15368  0.00000 -0.30737
      14     H     0.42125  0.42125  0.00000  0.15751
      15     H     0.42108  0.42108  0.00000  0.15783
      16     C     3.15251  3.15251  0.00000 -0.30502
      17     H     0.42141  0.42141  0.00000  0.15718
      18     H     0.42424  0.42424  0.00000  0.15152
      19     C     3.15121  3.15121  0.00000 -0.30242
      20     H     0.42378  0.42378  0.00000  0.15243
      21     H     0.42380  0.42380  0.00000  0.15240
      22     C     3.23917  3.23917  0.00000 -0.47834
      23     H     0.42278  0.42278  0.00000  0.15444
      24     H     0.42325  0.42325  0.00000  0.15350
      25     H     0.42148  0.42148  0.00000  0.15703
      26     H     0.41916  0.41916  0.00000  0.16169
      27     H     0.42236  0.42236  0.00000  0.15527

   Total alpha = 37.00000, Total beta = 37.00000, Total charge =  0.00000
