  ==> Input File <==

--------------------------------------------------------------------------
set {
	reference rhf
	basis cc-pvtz
}

set_num_threads( 4 )
memory 2 gb

molecule MOL {
0 1

H	 2.002517	 0.012975	 0.445350
C	 1.165109	 0.014290	 -0.236894
O	 -0.000000	 0.000000	 0.518769
H	 1.223976	 0.903056	 -0.861783
H	 1.234799	 -0.861712	 -0.878469
C	 -1.165153	 0.000000	 -0.236961
H	 -1.229451	 0.882440	 -0.870223
H	 -2.002557	 0.000000	 0.445289
H	 -1.229451	 -0.882440	 -0.870223

	symmetry c1
}
set optking {
	frozen_dihedral = ("
		2 3 6 7
	")
}

ee = optimize('scf')
oeprop('DIPOLE', 'QUADRUPOLE', 'MULLIKEN_CHARGES')
f=open( 'psi4out.xyz', 'w' )
f.write( "9  " )
f.write( str(ee) + "\n" )
f.write( MOL.save_string_xyz() )
f.close()
--------------------------------------------------------------------------

    Molecular point group: c1
  Charge       = 0
  Multiplicity = 1
  Basis Set: CC-PVTZ
  Basis Set:
  @DF-RHF Final Energy:  -154.12719489779670
    Total Energy =                       -154.1271948977965849
    Molecular point group: c1
  Basis Set: CC-PVTZ
  Basis Set:
  Charge       = 0
  Multiplicity = 1
  Basis Set: CC-PVTZ
  Basis Set:

    Orbital Energies (a.u.)
    -----------------------

    Doubly Occupied:

       1A    -20.550439     2A    -11.263280     3A    -11.263257
       4A     -1.382858     5A     -0.975871     6A     -0.872767
       7A     -0.664188     8A     -0.655875     9A     -0.647096
      10A     -0.551520    11A     -0.529945    12A     -0.477018
      13A     -0.420460

  @DF-RHF Final Energy:  -154.12719510377048

   => Energetics <=

    Nuclear Repulsion Energy =             84.8591031201648178
    One-Electron Energy =                -377.4634438388724220
    Two-Electron Energy =                 138.4771456149370579
    DFT Exchange-Correlation Energy =       0.0000000000000000
    Empirical Dispersion Energy =           0.0000000000000000
    PCM Polarization Energy =               0.0000000000000000
    EFP Energy =                            0.0000000000000000
    Total Energy =                       -154.1271951037705321
    Molecular point group: c1
  Basis Set: CC-PVTZ
  Basis Set:

  -Total Gradient:
     Atom            X                  Y                   Z
    ------   -----------------  -----------------  -----------------
       1        0.000027946055     0.000002445510    -0.000007020226
       2        0.000068181913     0.000061518679     0.000000943209
       3        0.000015844891    -0.000118510077    -0.000035122254
       4       -0.000012134357    -0.000003638384     0.000006397665
       5       -0.000002415112     0.000005860667    -0.000000553320
       6       -0.000126913585     0.000094542228     0.000094990403
       7        0.000053098876    -0.000052836529    -0.000064554921
       8       -0.000044382554     0.000000249882    -0.000008091473
       9        0.000020773873     0.000010368023     0.000013010918

  **** Optimization is complete! (in 2 steps) ****
    Final optimized geometry and variables:
    Molecular point group: c1

    Geometry (in Angstrom), charge = 0, multiplicity = 1:

    H            2.003111201189     0.007690434359     0.445103354123
    C            1.165245471639     0.009158548830    -0.236894053711
    O            0.000042717379    -0.004648289882     0.518668927026
    H            1.224183563553     0.897829337345    -0.862080756058
    H            1.234722848500    -0.866860440878    -0.878688394579
    C           -1.165312049007    -0.004915779837    -0.236788557138
    H           -1.229711026947     0.877292192596    -0.870540845561
    H           -2.003246785272    -0.005475719011     0.445126271037
    H           -1.228945031512    -0.887221994342    -0.870514191813

  Mulliken Charges: (a.u.)
   Center  Symbol    Alpha    Beta     Spin     Total
       1     H     0.44827  0.44827  0.00000  0.10345
       2     C     3.02196  3.02196  0.00000 -0.04392
       3     O     4.16719  4.16719  0.00000 -0.33439
       4     H     0.47304  0.47304  0.00000  0.05391
       5     H     0.47313  0.47313  0.00000  0.05374
       6     C     3.02195  3.02195  0.00000 -0.04389
       7     H     0.47321  0.47321  0.00000  0.05358
       8     H     0.44827  0.44827  0.00000  0.10346
       9     H     0.47298  0.47298  0.00000  0.05405

   Total alpha = 13.00000, Total beta = 13.00000, Total charge = -0.00000
