  ==> Input File <==

--------------------------------------------------------------------------
set {
	reference rhf
	basis cc-pvtz
}

set_num_threads( 4 )
memory 2 gb

molecule MOL {
0 1

O	 0.921701	 1.770761	 -0.490833
C	 0.268117	 1.476034	 -1.432652
C	 -1.002821	 0.666744	 -1.397551
O	 0.578877	 1.829416	 -2.669149
C	 -1.413045	 0.229353	 0.001137
H	 -1.777464	 1.265772	 -1.865069
H	 -0.856826	 -0.188142	 -2.049714
C	 -2.702562	 -0.586401	 0.000228
H	 -1.532748	 1.104811	 0.629456
H	 -0.611632	 -0.350976	 0.444421
C	 -3.953810	 0.284959	 -0.000782
H	 -2.717793	 -1.238567	 -0.869075
H	 -2.719108	 -1.238472	 0.869576
H	 -3.983727	 0.924403	 -0.876454
H	 -4.852989	 -0.320147	 -0.001515
H	 -3.985140	 0.924399	 0.874841
C	 1.752655	 2.595602	 -2.849489
H	 1.683588	 3.530858	 -2.313996
H	 1.828985	 2.778241	 -3.909057
H	 2.619238	 2.053384	 -2.501269

	symmetry c1
}
set optking {
	frozen_dihedral = ("
		9 5 8 12
	")
}

ee = optimize('scf')
oeprop('DIPOLE', 'QUADRUPOLE', 'MULLIKEN_CHARGES')
f=open( 'psi4out.xyz', 'w' )
f.write( "20  " )
f.write( str(ee) + "\n" )
f.write( MOL.save_string_xyz() )
f.close()
--------------------------------------------------------------------------

    Molecular point group: c1
  Charge       = 0
  Multiplicity = 1
  Basis Set: CC-PVTZ
  Basis Set:
  @DF-RHF Final Energy:  -384.08039810343615
    Total Energy =                       -384.0803981034357548
    Molecular point group: c1
  Basis Set: CC-PVTZ
  Basis Set:
  Basis Set: CC-PVTZ
  Basis Set:
  @DF-RHF Final Energy:  -384.08056760060862
    Total Energy =                       -384.0805676006086742
  Basis Set: CC-PVTZ
  Basis Set:
  Basis Set: CC-PVTZ
  Basis Set:
  @DF-RHF Final Energy:  -384.08025707390584
    Total Energy =                       -384.0802570739059547
  Basis Set: CC-PVTZ
  Basis Set:
  Basis Set: CC-PVTZ
  Basis Set:
  @DF-RHF Final Energy:  -384.08060750063464
    Total Energy =                       -384.0806075006352103
  Basis Set: CC-PVTZ
  Basis Set:
  Charge       = 0
  Multiplicity = 1
  Basis Set: CC-PVTZ
  Basis Set:

    Orbital Energies (a.u.)
    -----------------------

    Doubly Occupied:

       1A    -20.596350     2A    -20.534207     3A    -11.364589
       4A    -11.278517     5A    -11.233756     6A    -11.218624
       7A    -11.217501     8A    -11.210445     9A     -1.472249
      10A     -1.365831    11A     -1.089645    12A     -1.023872
      13A     -0.968883    14A     -0.892114    15A     -0.802160
      16A     -0.767763    17A     -0.703284    18A     -0.685978
      19A     -0.676294    20A     -0.633513    21A     -0.613701
      22A     -0.596552    23A     -0.572008    24A     -0.548689
      25A     -0.529769    26A     -0.524696    27A     -0.512102
      28A     -0.475258    29A     -0.474564    30A     -0.467800
      31A     -0.459026    32A     -0.440443

  @DF-RHF Final Energy:  -384.08061134123722

   => Energetics <=

    Nuclear Repulsion Energy =            384.8444795055696090
    One-Electron Energy =               -1285.9498062065185877
    Two-Electron Energy =                 517.0247153597118768
    DFT Exchange-Correlation Energy =       0.0000000000000000
    Empirical Dispersion Energy =           0.0000000000000000
    PCM Polarization Energy =               0.0000000000000000
    EFP Energy =                            0.0000000000000000
    Total Energy =                       -384.0806113412371587
    Molecular point group: c1
  Basis Set: CC-PVTZ
  Basis Set:

  -Total Gradient:
     Atom            X                  Y                   Z
    ------   -----------------  -----------------  -----------------
       1        0.000016618463    -0.000010722439     0.000011484072
       2       -0.000029544375     0.000033400666    -0.000028777888
       3        0.000002754341    -0.000007855072     0.000024663992
       4       -0.000008766973    -0.000025491544     0.000019864548
       5        0.000818939835    -0.001271367504     0.002338132670
       6        0.000009953768    -0.000001727165    -0.000016935992
       7       -0.000001473367     0.000002022519    -0.000006540926
       8        0.001247890311    -0.002125040644     0.001297313380
       9       -0.000882148924     0.001432150582    -0.002147550831
      10       -0.000006379286    -0.000001810592    -0.000005420914
      11        0.000030353834    -0.000004072158    -0.000003212649
      12       -0.001209139614     0.001947998264    -0.001466780981
      13        0.000010207476     0.000018166639    -0.000017092058
      14       -0.000018102939     0.000002173711     0.000002417990
      15        0.000011376439     0.000005584437    -0.000004661721
      16        0.000002618193     0.000003609735     0.000003750403
      17        0.000006761798     0.000004912260    -0.000000823191
      18       -0.000000663320    -0.000001279206    -0.000000159359
      19       -0.000000057548    -0.000000503595     0.000000293909
      20       -0.000001198109    -0.000000148892     0.000000035542

  **** Optimization is complete! (in 5 steps) ****
    Final optimized geometry and variables:
    Molecular point group: c1

    Geometry (in Angstrom), charge = 0, multiplicity = 1:

    O            1.583082075179     0.723832378597     0.632866595182
    C            0.937622249112     0.418134806818    -0.311089808641
    C           -0.324917362758    -0.404558596549    -0.279875808221
    O            1.251988877460     0.768713681900    -1.547588947832
    C           -0.731649949429    -0.847786021652     1.121019079567
    H           -1.100226440261     0.186460219381    -0.754679695623
    H           -0.165578459444    -1.259345223619    -0.928831247891
    C           -2.041511003005    -1.644069777695     1.132458996339
    H           -0.832808175648     0.033767929775     1.743308907932
    H            0.069751774218    -1.438622896879     1.545824782259
    C           -3.291477784588    -0.765650445623     1.122029721536
    H           -2.074989037804    -2.302834936580     0.268962724729
    H           -2.066817690945    -2.278192013220     2.011337246718
    H           -3.323905902274    -0.121149088088     0.250277249778
    H           -4.191225918177    -1.370017350452     1.112633702169
    H           -3.327139634344    -0.131704722666     2.001316173144
    C            2.419306867156     1.545298470270    -1.724995522034
    H            2.338119364156     2.482519674463    -1.194656963083
    H            2.500110964072     1.723384411603    -2.785015849381
    H            3.289045731988     1.013259936590    -1.369010042233

  Mulliken Charges: (a.u.)
   Center  Symbol    Alpha    Beta     Spin     Total
       1     O     4.19684  4.19684  0.00000 -0.39369
       2     C     2.80533  2.80533  0.00000  0.38933
       3     C     3.10057  3.10057  0.00000 -0.20114
       4     O     4.14719  4.14719  0.00000 -0.29439
       5     C     3.08753  3.08753  0.00000 -0.17506
       6     H     0.44039  0.44039  0.00000  0.11922
       7     H     0.44005  0.44005  0.00000  0.11991
       8     C     3.09365  3.09365  0.00000 -0.18730
       9     H     0.44769  0.44769  0.00000  0.10461
      10     H     0.44133  0.44133  0.00000  0.11734
      11     C     3.14859  3.14859  0.00000 -0.29718
      12     H     0.45723  0.45723  0.00000  0.08555
      13     H     0.44490  0.44490  0.00000  0.11020
      14     H     0.45671  0.45671  0.00000  0.08659
      15     H     0.44720  0.44720  0.00000  0.10560
      16     H     0.45314  0.45314  0.00000  0.09373
      17     C     3.03780  3.03780  0.00000 -0.07561
      18     H     0.45430  0.45430  0.00000  0.09140
      19     H     0.44528  0.44528  0.00000  0.10944
      20     H     0.45428  0.45428  0.00000  0.09144

   Total alpha = 32.00000, Total beta = 32.00000, Total charge = -0.00000
