  ==> Input File <==

--------------------------------------------------------------------------
set {
	reference rhf
	basis 6-31G*
}

set_num_threads( 1 )
memory 2 gb

molecule MOL {
0 1

H	 3.587555	 -0.228322	 0.802147
N	 3.092854	 -0.246221	 -0.068770
C	 1.865559	 0.531981	 0.018834
H	 2.885910	 -1.207345	 -0.264331
C	 0.645745	 -0.382037	 -0.029944
H	 1.841966	 1.207024	 -0.831236
H	 1.815756	 1.155410	 0.915079
C	 -0.679275	 0.379305	 0.025956
H	 0.698998	 -0.976915	 -0.937203
H	 0.693479	 -1.083846	 0.802235
C	 -1.903357	 -0.536963	 -0.023547
H	 -0.726309	 1.082987	 -0.803784
H	 -0.717680	 0.977832	 0.934877
C	 -3.225172	 0.228290	 0.028445
H	 -1.867824	 -1.134999	 -0.931459
H	 -1.860449	 -1.239604	 0.805977
H	 -3.313397	 0.915643	 -0.808262
H	 -4.073500	 -0.448134	 -0.008893
H	 -3.306061	 0.809945	 0.942516

	symmetry c1
}
set optking {
	frozen_dihedral = ("
		6 3 5 9,
		12 8 5 9,
		12 8 11 15
	")
}

ee = energy('scf')
oeprop('DIPOLE', 'QUADRUPOLE', 'MULLIKEN_CHARGES')
f=open( 'psi4out.xyz', 'w' )
f.write( "19  " )
f.write( str(ee) + "\n" )
f.write( MOL.save_string_xyz() )
f.close()
--------------------------------------------------------------------------

    Molecular point group: c1

    Geometry (in Angstrom), charge = 0, multiplicity = 1:

       Center              X                  Y                   Z               Mass
    ------------   -----------------  -----------------  -----------------  -----------------
           H          3.594719534803    -0.217156189600     0.803335994949     1.007825032070
           N          3.100018534803    -0.235055189600    -0.067581005051    14.003074004780
           C          1.872723534803     0.543146810400     0.020022994949    12.000000000000
           H          2.893074534803    -1.196179189600    -0.263142005051     1.007825032070
           C          0.652909534803    -0.370871189600    -0.028755005051    12.000000000000
           H          1.849130534803     1.218189810400    -0.830047005051     1.007825032070
           H          1.822920534803     1.166575810400     0.916267994949     1.007825032070
           C         -0.672110465197     0.390470810400     0.027144994949    12.000000000000
           H          0.706162534803    -0.965749189600    -0.936014005051     1.007825032070
           H          0.700643534803    -1.072680189600     0.803423994949     1.007825032070
           C         -1.896192465197    -0.525797189600    -0.022358005051    12.000000000000
           H         -0.719144465197     1.094152810400    -0.802595005051     1.007825032070
           H         -0.710515465197     0.988997810400     0.936065994949     1.007825032070
           C         -3.218007465197     0.239455810400     0.029633994949    12.000000000000
           H         -1.860659465197    -1.123833189600    -0.930270005051     1.007825032070
           H         -1.853284465197    -1.228438189600     0.807165994949     1.007825032070
           H         -3.306232465197     0.926808810400    -0.807073005051     1.007825032070
           H         -4.066335465197    -0.436968189600    -0.007704005051     1.007825032070
           H         -3.298896465197     0.821110810400     0.943704994949     1.007825032070

  Charge       = 0
  Multiplicity = 1
  Basis Set: 6-31G*
  Basis Set:

    Orbital Energies (a.u.)
    -----------------------

    Doubly Occupied:

       1A    -15.529257     2A    -11.238980     3A    -11.216820
       4A    -11.215915     5A    -11.215193     6A    -11.209576
       7A     -1.177223     8A     -1.075541     9A     -0.999968
      10A     -0.901091    11A     -0.819220    12A     -0.794437
      13A     -0.669513    14A     -0.640950    15A     -0.602181
      16A     -0.597994    17A     -0.567057    18A     -0.553247
      19A     -0.529697    20A     -0.501109    21A     -0.487927
      22A     -0.469239    23A     -0.465328    24A     -0.457251
      25A     -0.373600

  @DF-RHF Final Energy:  -251.34645224226475

   => Energetics <=

    Nuclear Repulsion Energy =            246.1721837973992422
    One-Electron Energy =                -826.4207422545910049
    Two-Electron Energy =                 328.9021062149272439
    DFT Exchange-Correlation Energy =       0.0000000000000000
    Empirical Dispersion Energy =           0.0000000000000000
    PCM Polarization Energy =               0.0000000000000000
    EFP Energy =                            0.0000000000000000
    Total Energy =                       -251.3464522422644905

  Mulliken Charges: (a.u.)
   Center  Symbol    Alpha    Beta     Spin     Total
       1     H     0.33302  0.33302  0.00000  0.33396
       2     N     3.92768  3.92768  0.00000 -0.85535
       3     C     3.04951  3.04951  0.00000 -0.09901
       4     H     0.33135  0.33135  0.00000  0.33729
       5     C     3.16887  3.16887  0.00000 -0.33774
       6     H     0.41942  0.41942  0.00000  0.16117
       7     H     0.42541  0.42541  0.00000  0.14918
       8     C     3.15426  3.15426  0.00000 -0.30851
       9     H     0.42088  0.42088  0.00000  0.15824
      10     H     0.42537  0.42537  0.00000  0.14926
      11     C     3.15110  3.15110  0.00000 -0.30219
      12     H     0.42174  0.42174  0.00000  0.15652
      13     H     0.42376  0.42376  0.00000  0.15248
      14     C     3.23942  3.23942  0.00000 -0.47884
      15     H     0.42255  0.42255  0.00000  0.15490
      16     H     0.42339  0.42339  0.00000  0.15323
      17     H     0.42130  0.42130  0.00000  0.15740
      18     H     0.41913  0.41913  0.00000  0.16175
      19     H     0.42186  0.42186  0.00000  0.15628

   Total alpha = 25.00000, Total beta = 25.00000, Total charge =  0.00000
