                              Psi4 1.0.54 Driver

  ==> Input File <==

--------------------------------------------------------------------------
set {
	reference rhf
	basis cc-pvtz
}

set_num_threads( 4 )
memory 2 gb

molecule MOL {
0 1

O	 -2.440701	 -0.934798	 -0.415053
C	 -1.922978	 0.063265	 -0.045005
C	 -2.632749	 1.372204	 0.158357
O	 -0.637375	 0.157174	 0.243149
H	 -2.187724	 2.129143	 -0.474664
H	 -3.677681	 1.257276	 -0.079438
H	 -2.516788	 1.693160	 1.185542
C	 0.162530	 -1.009518	 0.097799
C	 1.587210	 -0.664190	 0.477086
H	 0.096803	 -1.356267	 -0.924704
H	 -0.233803	 -1.785900	 0.736810
C	 1.792243	 -0.399469	 1.966263
H	 1.867942	 0.218476	 -0.091093
H	 2.242163	 -1.466231	 0.150585
C	 3.231893	 -0.027335	 2.304698
H	 1.128780	 0.401970	 2.280289
H	 1.502760	 -1.278233	 2.530900
H	 3.348392	 0.158963	 3.365880
H	 3.541612	 0.868140	 1.775933
H	 3.916023	 -0.824028	 2.032188

	symmetry c1
}
set optking {
	frozen_dihedral = ("
		12 9 8 10
	")
}

ee,wfn = optimize('scf', return_wfn=True)
oeprop( wfn, 'DIPOLE', 'QUADRUPOLE', 'MULLIKEN_CHARGES')
f=open( 'psi4out.xyz', 'w' )
f.write( "20  " )
f.write( str(ee) + "\n" )
f.write( MOL.save_string_xyz() )
f.close()
--------------------------------------------------------------------------

    Molecular point group: c1
  Charge       = 0
  Multiplicity = 1
  Basis Set: CC-PVTZ
  Basis Set:
  @DF-RHF Final Energy:  -384.08726103588367
    Total Energy =                       -384.0872610358842394
    Molecular point group: c1
  Basis Set: CC-PVTZ
  Basis Set:
  Basis Set: CC-PVTZ
  Basis Set:
  @DF-RHF Final Energy:  -384.08741437297181
    Total Energy =                       -384.0874143729718071
  Basis Set: CC-PVTZ
  Basis Set:
  Basis Set: CC-PVTZ
  Basis Set:
  @DF-RHF Final Energy:  -384.08679644598578
    Total Energy =                       -384.0867964459861241
  Basis Set: CC-PVTZ
  Basis Set:
  Basis Set: CC-PVTZ
  Basis Set:
  @DF-RHF Final Energy:  -384.08745945444554
    Total Energy =                       -384.0874594544457068
  Basis Set: CC-PVTZ
  Basis Set:
  Basis Set: CC-PVTZ
  Basis Set:
  @DF-RHF Final Energy:  -384.08746149998746
    Total Energy =                       -384.0874614999872847
  Basis Set: CC-PVTZ
  Basis Set:
  Charge       = 0
  Multiplicity = 1
  Basis Set: CC-PVTZ
  Basis Set:

    Orbital Energies (a.u.)
    -----------------------

    Doubly Occupied:

       1A    -20.594535     2A    -20.532684     3A    -11.366698
       4A    -11.280046     5A    -11.231711     6A    -11.223438
       7A    -11.219190     8A    -11.211742     9A     -1.471142
      10A     -1.365227    11A     -1.087347    12A     -1.029417
      13A     -0.982274    14A     -0.881387    15A     -0.811447
      16A     -0.778510    17A     -0.692583    18A     -0.685961
      19A     -0.670466    20A     -0.632314    21A     -0.602550
      22A     -0.594073    23A     -0.572979    24A     -0.552144
      25A     -0.545768    26A     -0.532469    27A     -0.513358
      28A     -0.483745    29A     -0.476212    30A     -0.474977
      31A     -0.451277    32A     -0.442046

  @DF-RHF Final Energy:  -384.08746208243952

   => Energetics <=

    Nuclear Repulsion Energy =            385.3200016455734840
    One-Electron Energy =               -1286.8355003127619511
    Two-Electron Energy =                 517.4280365847490657
    DFT Exchange-Correlation Energy =       0.0000000000000000
    Empirical Dispersion Energy =           0.0000000000000000
    PCM Polarization Energy =               0.0000000000000000
    EFP Energy =                            0.0000000000000000
    Total Energy =                       -384.0874620824394015
    Molecular point group: c1
  Basis Set: CC-PVTZ
  Basis Set:

  -Total Gradient:
     Atom            X                  Y                   Z
    ------   -----------------  -----------------  -----------------
       1       -0.000021792119    -0.000113438354    -0.000020513687
       2        0.000047702029     0.000068327613    -0.000006105782
       3        0.000028940915     0.000008894065     0.000039440197
       4       -0.000092695487     0.000018865908     0.000048339450
       5        0.000002300206     0.000019825564    -0.000011824129
       6        0.000004675894    -0.000023547021    -0.000009271208
       7        0.000004098278     0.000029455509     0.000008170509
       8       -0.000104898836     0.001221446590    -0.000571065942
       9       -0.000231423853     0.000948125338    -0.000041522544
      10        0.000190891363    -0.001256952051     0.000405981492
      11       -0.000004318242     0.000020621664     0.000025713538
      12        0.000193526750    -0.000930853183     0.000136868377
      13       -0.000033109978    -0.000016080460     0.000004698092
      14        0.000015604043    -0.000010981675    -0.000009050705
      15        0.000000772499     0.000015925420     0.000000421318
      16        0.000001926739     0.000002463793     0.000008406891
      17       -0.000006823627    -0.000003761599    -0.000008788849
      18       -0.000000043860     0.000004830854     0.000001151826
      19        0.000006729077     0.000000649913    -0.000002198245
      20       -0.000002061794    -0.000003817888     0.000001149399

  **** Optimization is complete! (in 6 steps) ****
    Final optimized geometry and variables:
    Molecular point group: c1

    Geometry (in Angstrom), charge = 0, multiplicity = 1:

    O           -2.328479952700    -0.752949986742    -0.991425697865
    C           -1.807776908933     0.246919015720    -0.630543785007
    C           -2.516956427916     1.554757522851    -0.420099805294
    O           -0.517945458376     0.344159422652    -0.363261715815
    H           -2.078840529136     2.312057940017    -1.057389164687
    H           -3.564099490310     1.438389319206    -0.647288984667
    H           -2.391295970239     1.875673998440     0.605970224658
    C            0.282198217453    -0.820107642996    -0.521737169178
    C            1.706405226938    -0.479570122655    -0.135617624776
    H            0.222917891250    -1.155129062359    -1.547596070785
    H           -0.117596333264    -1.608775271756     0.101551506396
    C            1.904758737357    -0.231446798555     1.357265891363
    H            2.027144741360     0.387176797797    -0.704866802103
    H            2.334867968459    -1.308788165562    -0.448896580487
    C            3.348492231547     0.107614604965     1.711779738249
    H            1.254452716340     0.574903779223     1.677828106428
    H            1.595450693832    -1.115545868184     1.908003226013
    H            3.461290844302     0.272490802810     2.776882399288
    H            3.675354666196     1.007485601966     1.201595920244
    H            4.021528768183    -0.694901641475     1.428322166367

  Mulliken Charges: (a.u.)
   Center  Symbol    Alpha    Beta     Spin     Total
       1     O     4.19723  4.19723  0.00000 -0.39445
       2     C     2.80905  2.80905  0.00000  0.38189
       3     C     3.13830  3.13830  0.00000 -0.27660
       4     O     4.15362  4.15362  0.00000 -0.30724
       5     H     0.44571  0.44571  0.00000  0.10858
       6     H     0.43788  0.43788  0.00000  0.12425
       7     H     0.44609  0.44609  0.00000  0.10781
       8     C     2.99205  2.99205  0.00000  0.01589
       9     C     3.08401  3.08401  0.00000 -0.16802
      10     H     0.44476  0.44476  0.00000  0.11047
      11     H     0.45189  0.45189  0.00000  0.09621
      12     C     3.08628  3.08628  0.00000 -0.17256
      13     H     0.45168  0.45168  0.00000  0.09663
      14     H     0.45163  0.45163  0.00000  0.09673
      15     C     3.15018  3.15018  0.00000 -0.30035
      16     H     0.44824  0.44824  0.00000  0.10351
      17     H     0.45447  0.45447  0.00000  0.09106
      18     H     0.44734  0.44734  0.00000  0.10532
      19     H     0.45419  0.45419  0.00000  0.09162
      20     H     0.45538  0.45538  0.00000  0.08923

   Total alpha = 32.00000, Total beta = 32.00000, Total charge = -0.00000

*** Psi4 exiting successfully. Buy a developer a beer!
