                              Psi4 1.0.54 Driver

  ==> Input File <==

--------------------------------------------------------------------------
set {
	reference rhf
	basis cc-pvtz
}

set_num_threads( 4 )
memory 2 gb

molecule MOL {
0 1

H	 -1.146957	 0.318530	 0.746231
N	 -0.712187	 0.000026	 -0.093397
C	 0.734067	 -0.000020	 0.038424
H	 -1.003676	 0.611774	 -0.825684
H	 1.140372	 -0.872115	 -0.458226
H	 1.140363	 0.872301	 -0.457869
H	 1.095085	 -0.000244	 1.065614

	symmetry c1
}
set optking {
	frozen_dihedral = ("
		1 2 3 7
	")
}

ee,wfn = optimize('scf', return_wfn=True)
oeprop( wfn, 'DIPOLE', 'QUADRUPOLE', 'MULLIKEN_CHARGES')
f=open( 'psi4out.xyz', 'w' )
f.write( "7  " )
f.write( str(ee) + "\n" )
f.write( MOL.save_string_xyz() )
f.close()
--------------------------------------------------------------------------

    Molecular point group: c1
  Charge       = 0
  Multiplicity = 1
  Basis Set: CC-PVTZ
  Basis Set:
  @DF-RHF Final Energy:   -95.24996611882614
    Total Energy =                        -95.2499661188260944
    Molecular point group: c1
  Basis Set: CC-PVTZ
  Basis Set:
  Basis Set: CC-PVTZ
  Basis Set:
  @DF-RHF Final Energy:   -95.25108713407406
    Total Energy =                        -95.2510871340740408
  Basis Set: CC-PVTZ
  Basis Set:
  Basis Set: CC-PVTZ
  Basis Set:
  @DF-RHF Final Energy:   -95.25127622385847
    Total Energy =                        -95.2512762238584827
  Basis Set: CC-PVTZ
  Basis Set:
  Basis Set: CC-PVTZ
  Basis Set:
  @DF-RHF Final Energy:   -95.25128477295253
    Total Energy =                        -95.2512847729525163
  Basis Set: CC-PVTZ
  Basis Set:
  Charge       = 0
  Multiplicity = 1
  Basis Set: CC-PVTZ
  Basis Set:

    Orbital Energies (a.u.)
    -----------------------

    Doubly Occupied:

       1A    -15.525690     2A    -11.235481     3A     -1.169067
       4A     -0.897620     5A     -0.667446     6A     -0.600489
       7A     -0.561589     8A     -0.517627     9A     -0.381809

  @DF-RHF Final Energy:   -95.25128580882043

   => Energetics <=

    Nuclear Repulsion Energy =             42.3416343314264410
    One-Electron Energy =                -212.0722039351858541
    Two-Electron Energy =                  74.4792837949390076
    DFT Exchange-Correlation Energy =       0.0000000000000000
    Empirical Dispersion Energy =           0.0000000000000000
    PCM Polarization Energy =               0.0000000000000000
    EFP Energy =                            0.0000000000000000
    Total Energy =                        -95.2512858088204126
    Molecular point group: c1
  Basis Set: CC-PVTZ
  Basis Set:

  -Total Gradient:
     Atom            X                  Y                   Z
    ------   -----------------  -----------------  -----------------
       1       -0.000090492978    -0.002321653018     0.000813557167
       2       -0.000020845000     0.003521209839    -0.001033960747
       3        0.000120204750    -0.003474289292     0.000193900044
       4       -0.000009686036    -0.000003208339     0.000005201303
       5       -0.000002730502     0.000033681313    -0.000000020728
       6       -0.000016250005    -0.000007148022     0.000003784192
       7        0.000019799771     0.002251407520     0.000017538769

  **** Optimization is complete! (in 5 steps) ****
    Final optimized geometry and variables:
    Molecular point group: c1

    Geometry (in Angstrom), charge = 0, multiplicity = 1:

    H           -1.142497425337     0.287269057601     0.791817947353
    N           -0.716622879785    -0.024192802655    -0.051592903478
    C            0.735587919453    -0.031989742911     0.041567789849
    H           -1.046110393924     0.541982066688    -0.800721038578
    H            1.147555341429    -0.912283380663    -0.437059692162
    H            1.197288054295     0.841101947715    -0.412098363643
    H            1.042254386840    -0.041030028806     1.079970466825

  Mulliken Charges: (a.u.)
   Center  Symbol    Alpha    Beta     Spin     Total
       1     H     0.42599  0.42599  0.00000  0.14802
       2     N     3.69078  3.69078  0.00000 -0.38156
       3     C     3.06826  3.06826  0.00000 -0.13652
       4     H     0.42675  0.42675  0.00000  0.14651
       5     H     0.46005  0.46005  0.00000  0.07991
       6     H     0.46829  0.46829  0.00000  0.06341
       7     H     0.45988  0.45988  0.00000  0.08024

   Total alpha =  9.00000, Total beta =  9.00000, Total charge = -0.00000

*** Psi4 exiting successfully. Buy a developer a beer!
