  ==> Input File <==

--------------------------------------------------------------------------
set {
	reference rhf
	basis 6-31G*
}

set_num_threads( 1 )
memory 2 gb

molecule MOL {
0 1

H	 2.504419	 -0.758754	 -1.000713
N	 2.434251	 -0.367735	 -0.081097
C	 1.267428	 0.496480	 0.024474
H	 3.274491	 0.156063	 0.075578
C	 -0.016086	 -0.325158	 -0.029487
H	 1.288818	 1.183521	 -0.816092
H	 1.267576	 1.109062	 0.929528
C	 -1.282277	 0.529072	 0.046735
H	 -0.012495	 -0.908639	 -0.945788
H	 -0.015903	 -1.041248	 0.791956
C	 -2.563920	 -0.301775	 -0.006060
H	 -1.284084	 1.244622	 -0.773004
H	 -1.271387	 1.115393	 0.963286
H	 -2.621848	 -0.873522	 -0.927727
H	 -3.445135	 0.329952	 0.047812
H	 -2.609542	 -1.004582	 0.821105

	symmetry c1
}
set optking {
	frozen_dihedral = ("
		6 3 5 9,
		12 8 5 9
	")
}

ee = energy('scf')
oeprop('DIPOLE', 'QUADRUPOLE', 'MULLIKEN_CHARGES')
f=open( 'psi4out.xyz', 'w' )
f.write( "16  " )
f.write( str(ee) + "\n" )
f.write( MOL.save_string_xyz() )
f.close()
--------------------------------------------------------------------------

    Molecular point group: c1

    Geometry (in Angstrom), charge = 0, multiplicity = 1:

       Center              X                  Y                   Z               Mass
    ------------   -----------------  -----------------  -----------------  -----------------
           H          2.504408629430    -0.761356218897    -0.979529981117     1.007825032070
           N          2.434240629430    -0.370337218897    -0.059913981117    14.003074004780
           C          1.267417629430     0.493877781103     0.045657018883    12.000000000000
           H          3.274480629430     0.153460781103     0.096761018883     1.007825032070
           C         -0.016096370570    -0.327760218897    -0.008303981117    12.000000000000
           H          1.288807629430     1.180918781103    -0.794908981117     1.007825032070
           H          1.267565629430     1.106459781103     0.950711018883     1.007825032070
           C         -1.282287370570     0.526469781103     0.067918018883    12.000000000000
           H         -0.012505370570    -0.911241218897    -0.924604981117     1.007825032070
           H         -0.015913370570    -1.043850218897     0.813139018883     1.007825032070
           C         -2.563930370570    -0.304377218897     0.015123018883    12.000000000000
           H         -1.284094370570     1.242019781103    -0.751820981117     1.007825032070
           H         -1.271397370570     1.112790781103     0.984469018883     1.007825032070
           H         -2.621858370570    -0.876124218897    -0.906543981117     1.007825032070
           H         -3.445145370570     0.327349781103     0.068995018883     1.007825032070
           H         -2.609552370570    -1.007184218897     0.842288018883     1.007825032070

  Charge       = 0
  Multiplicity = 1
  Basis Set: 6-31G*
  Basis Set:

    Orbital Energies (a.u.)
    -----------------------

    Doubly Occupied:

       1A    -15.531191     2A    -11.240403     3A    -11.214821
       4A    -11.209020     5A    -11.207754     6A     -1.176518
       7A     -1.059274     8A     -0.958446     9A     -0.843274
      10A     -0.791345    11A     -0.665778    12A     -0.633201
      13A     -0.604905    14A     -0.578045    15A     -0.564672
      16A     -0.526849    17A     -0.501573    18A     -0.470340
      19A     -0.466683    20A     -0.459332    21A     -0.376909

  @DF-RHF Final Energy:  -212.31467067899391

   => Energetics <=

    Nuclear Repulsion Energy =            186.2461276060847410
    One-Electron Energy =                -654.9609508733493612
    Two-Electron Energy =                 256.4001525882709984
    DFT Exchange-Correlation Energy =       0.0000000000000000
    Empirical Dispersion Energy =           0.0000000000000000
    PCM Polarization Energy =               0.0000000000000000
    EFP Energy =                            0.0000000000000000
    Total Energy =                       -212.3146706789935934

  Mulliken Charges: (a.u.)
   Center  Symbol    Alpha    Beta     Spin     Total
       1     H     0.33408  0.33408  0.00000  0.33184
       2     N     3.92214  3.92214  0.00000 -0.84427
       3     C     3.06284  3.06284  0.00000 -0.12569
       4     H     0.33294  0.33294  0.00000  0.33413
       5     C     3.14772  3.14772  0.00000 -0.29545
       6     H     0.43431  0.43431  0.00000  0.13139
       7     H     0.42032  0.42032  0.00000  0.15937
       8     C     3.15595  3.15595  0.00000 -0.31191
       9     H     0.42710  0.42710  0.00000  0.14580
      10     H     0.41492  0.41492  0.00000  0.17017
      11     C     3.23859  3.23859  0.00000 -0.47717
      12     H     0.42395  0.42395  0.00000  0.15210
      13     H     0.42294  0.42294  0.00000  0.15412
      14     H     0.42180  0.42180  0.00000  0.15640
      15     H     0.41973  0.41973  0.00000  0.16054
      16     H     0.42068  0.42068  0.00000  0.15864

   Total alpha = 21.00000, Total beta = 21.00000, Total charge =  0.00000
