  ==> Input File <==

--------------------------------------------------------------------------
set {
	reference rhf
	basis 6-31G*
}

set_num_threads( 4 )
memory 2 gb

molecule MOL {
0 1

H	 0.165945	 -1.635894	 -0.399301
C	 -0.864573	 -1.545829	 -0.061570
O	 -1.392607	 -0.295399	 -0.366433
H	 -1.465728	 -2.286578	 -0.570535
H	 -0.895250	 -1.743566	 1.009125
C	 -0.719715	 0.768384	 0.229244
C	 0.719720	 0.768376	 -0.229267
H	 -1.185038	 1.714362	 -0.050570
H	 -0.750528	 0.687237	 1.313896
O	 1.392611	 -0.295398	 0.366430
H	 0.750534	 0.687200	 -1.313918
H	 1.185043	 1.714359	 0.050526
C	 2.706965	 -0.449871	 -0.062409
H	 2.756559	 -0.644779	 -1.131878
H	 3.305899	 0.433456	 0.155466
H	 3.125548	 -1.294566	 0.467107

	symmetry c1
}
set optking {
	frozen_dihedral = ("
		2 3 6 7
	")
}

ee = optimize('scf')
oeprop('DIPOLE', 'QUADRUPOLE', 'MULLIKEN_CHARGES')
f=open( 'psi4out.xyz', 'w' )
f.write( "16  " )
f.write( str(ee) + "\n" )
f.write( MOL.save_string_xyz() )
f.close()
--------------------------------------------------------------------------

    Molecular point group: c1
  Charge       = 0
  Multiplicity = 1
  Basis Set: 6-31G*
  Basis Set:
  @DF-RHF Final Energy:  -306.96494156629132
    Total Energy =                       -306.9649415662913725
    Molecular point group: c1
  Basis Set: 6-31G*
  Basis Set:
  Basis Set: 6-31G*
  Basis Set:
  @DF-RHF Final Energy:  -306.97320543060505
    Total Energy =                       -306.9732054306052191
  Basis Set: 6-31G*
  Basis Set:
  Basis Set: 6-31G*
  Basis Set:
  @DF-RHF Final Energy:  -306.97533822060302
    Total Energy =                       -306.9753382206033052
  Basis Set: 6-31G*
  Basis Set:
  Basis Set: 6-31G*
  Basis Set:
  @DF-RHF Final Energy:  -306.97590927506587
    Total Energy =                       -306.9759092750658169
  Basis Set: 6-31G*
  Basis Set:
  Basis Set: 6-31G*
  Basis Set:
  @DF-RHF Final Energy:  -306.97621396468679
    Total Energy =                       -306.9762139646867354
  Basis Set: 6-31G*
  Basis Set:
  Basis Set: 6-31G*
  Basis Set:
  @DF-RHF Final Energy:  -306.97623937386544
    Total Energy =                       -306.9762393738656101
  Basis Set: 6-31G*
  Basis Set:
  Basis Set: 6-31G*
  Basis Set:
  @DF-RHF Final Energy:  -306.97624086073165
    Total Energy =                       -306.9762408607315365
  Basis Set: 6-31G*
  Basis Set:
  Charge       = 0
  Multiplicity = 1
  Basis Set: 6-31G*
  Basis Set:

    Orbital Energies (a.u.)
    -----------------------

    Doubly Occupied:

       1A    -20.563106     2A    -20.549723     3A    -11.272600
       4A    -11.271205     5A    -11.268159     6A    -11.253956
       7A     -1.391049     8A     -1.367729     9A     -1.028006
      10A     -0.947659    11A     -0.892033    12A     -0.818522
      13A     -0.690971    14A     -0.680288    15A     -0.656503
      16A     -0.633382    17A     -0.626447    18A     -0.596297
      19A     -0.554506    20A     -0.532675    21A     -0.520386
      22A     -0.487311    23A     -0.456320    24A     -0.425014
      25A     -0.404324

  @DF-RHF Final Energy:  -306.97624099913656

   => Energetics <=

    Nuclear Repulsion Energy =            264.4353275625194897
    One-Electron Energy =                -943.0467915129743233
    Two-Electron Energy =                 371.6352229513184398
    DFT Exchange-Correlation Energy =       0.0000000000000000
    Empirical Dispersion Energy =           0.0000000000000000
    PCM Polarization Energy =               0.0000000000000000
    EFP Energy =                            0.0000000000000000
    Total Energy =                       -306.9762409991364507
    Molecular point group: c1
  Basis Set: 6-31G*
  Basis Set:

  -Total Gradient:
     Atom            X                  Y                   Z
    ------   -----------------  -----------------  -----------------
       1        0.000009962844    -0.000004635361     0.000002048058
       2        0.001306596986     0.000058640574    -0.002033730735
       3       -0.001601309376    -0.000724282833     0.003719685507
       4       -0.000004355490    -0.000000327172     0.000008366208
       5       -0.000012629328     0.000011673423    -0.000006858489
       6       -0.000263797935     0.002031594382    -0.003286056863
       7        0.000563259754    -0.001376965702     0.001622033846
       8       -0.000002783653    -0.000000480459     0.000001066653
       9       -0.000000260120     0.000003568550     0.000002439759
      10       -0.000021176883     0.000006909023    -0.000026861741
      11        0.000005855996    -0.000003188424    -0.000001973926
      12        0.000005472415     0.000001530788    -0.000003103255
      13        0.000006994768    -0.000002581604     0.000009117859
      14        0.000005189706     0.000001089592     0.000000816856
      15       -0.000003184430    -0.000001635791    -0.000002265625
      16        0.000006164742    -0.000000908985    -0.000004724111

  **** Optimization is complete! (in 8 steps) ****
    Final optimized geometry and variables:
    Molecular point group: c1

    Geometry (in Angstrom), charge = 0, multiplicity = 1:

    H           -0.546446705780    -1.679194664919    -0.689648940204
    C           -1.426755710958    -1.422064468701    -0.112859830138
    O           -1.812077773781    -0.092154274628    -0.306804694545
    H           -2.255430018182    -2.036137509713    -0.439404197244
    H           -1.221589969842    -1.628609522960     0.934010036468
    C           -0.997105970644     0.894014266157     0.248733548788
    C            0.439988043245     0.912276882741    -0.244311574036
    H           -1.464953040586     1.835349931226    -0.011854836702
    H           -0.983433688588     0.811237781358     1.334395664376
    O            1.188415304335    -0.067740081115     0.410786303367
    H            0.461284865928     0.757795498725    -1.322266183359
    H            0.864950232204     1.895901775771    -0.042200734936
    C            2.521302632409    -0.128656265577     0.011652798107
    H            2.610048879447    -0.365773969608    -1.046687287202
    H            3.034666886981     0.812746323997     0.198315263107
    H            2.999803567410    -0.908709329255     0.587480722254

  Mulliken Charges: (a.u.)
   Center  Symbol    Alpha    Beta     Spin     Total
       1     H     0.42404  0.42404  0.00000  0.15191
       2     C     3.07638  3.07638  0.00000 -0.15276
       3     O     4.30852  4.30852  0.00000 -0.61703
       4     H     0.41785  0.41785  0.00000  0.16430
       5     H     0.42669  0.42669  0.00000  0.14663
       6     C     2.99477  2.99477  0.00000  0.01047
       7     C     3.00962  3.00962  0.00000 -0.01925
       8     H     0.41488  0.41488  0.00000  0.17025
       9     H     0.42237  0.42237  0.00000  0.15525
      10     O     4.30490  4.30490  0.00000 -0.60979
      11     H     0.42309  0.42309  0.00000  0.15382
      12     H     0.42859  0.42859  0.00000  0.14281
      13     C     3.08068  3.08068  0.00000 -0.16136
      14     H     0.42819  0.42819  0.00000  0.14363
      15     H     0.42877  0.42877  0.00000  0.14246
      16     H     0.41067  0.41067  0.00000  0.17866

   Total alpha = 25.00000, Total beta = 25.00000, Total charge = -0.00000
