  ==> Input File <==

--------------------------------------------------------------------------
set {
	reference rhf
	basis cc-pvtz
}

set_num_threads( 4 )
memory 2 gb

molecule MOL {
0 1

H	 2.078845	 -0.114475	 2.287779
O	 1.390023	 0.429009	 1.952812
C	 1.135873	 0.113391	 0.608264
C	 0.027642	 1.012027	 0.090274
H	 0.823855	 -0.923840	 0.515724
H	 2.036775	 0.235378	 0.013321
C	 -1.138737	 0.285728	 -0.581921
H	 0.464661	 1.708096	 -0.618252
H	 -0.340737	 1.603071	 0.925246
C	 -1.933983	 -0.631436	 0.343653
H	 -0.763151	 -0.285569	 -1.422081
H	 -1.808359	 1.035291	 -0.992333
H	 -2.789188	 -1.049673	 -0.174718
H	 -1.335629	 -1.461368	 0.700418
H	 -2.305435	 -0.092167	 1.209725

	symmetry c1
}
set optking {
	frozen_dihedral = ("
		2 3 4 8
	")
}

ee = optimize('scf')
oeprop('DIPOLE', 'QUADRUPOLE', 'MULLIKEN_CHARGES')
f=open( 'psi4out.xyz', 'w' )
f.write( "15  " )
f.write( str(ee) + "\n" )
f.write( MOL.save_string_xyz() )
f.close()
--------------------------------------------------------------------------

    Molecular point group: c1
  Charge       = 0
  Multiplicity = 1
  Basis Set: CC-PVTZ
  Basis Set:
  @DF-RHF Final Energy:  -232.23152481176260
    Total Energy =                       -232.2315248117624833
    Molecular point group: c1
  Basis Set: CC-PVTZ
  Basis Set:
  Basis Set: CC-PVTZ
  Basis Set:
  @DF-RHF Final Energy:  -232.23200359346248
    Total Energy =                       -232.2320035934623093
  Basis Set: CC-PVTZ
  Basis Set:
  Basis Set: CC-PVTZ
  Basis Set:
  @DF-RHF Final Energy:  -232.23222640451459
    Total Energy =                       -232.2322264045146767
  Basis Set: CC-PVTZ
  Basis Set:
  Basis Set: CC-PVTZ
  Basis Set:
  @DF-RHF Final Energy:  -232.23222746588289
    Total Energy =                       -232.2322274658827723
  Basis Set: CC-PVTZ
  Basis Set:
  Basis Set: CC-PVTZ
  Basis Set:
  @DF-RHF Final Energy:  -232.23225363317968
    Total Energy =                       -232.2322536331798801
  Basis Set: CC-PVTZ
  Basis Set:
  Charge       = 0
  Multiplicity = 1
  Basis Set: CC-PVTZ
  Basis Set:

    Orbital Energies (a.u.)
    -----------------------

    Doubly Occupied:

       1A    -20.545458     2A    -11.265504     3A    -11.214776
       4A    -11.209616     5A    -11.204892     6A     -1.362522
       7A     -1.068023     8A     -0.969225     9A     -0.868006
      10A     -0.785614    11A     -0.700644    12A     -0.650171
      13A     -0.616523    14A     -0.575621    15A     -0.556294
      16A     -0.544145    17A     -0.503479    18A     -0.477701
      19A     -0.471697    20A     -0.456888    21A     -0.431016

  @DF-RHF Final Energy:  -232.23225416961523

   => Energetics <=

    Nuclear Repulsion Energy =            189.5087481226075568
    One-Electron Energy =                -690.5263712814214614
    Two-Electron Energy =                 268.7853689891986733
    DFT Exchange-Correlation Energy =       0.0000000000000000
    Empirical Dispersion Energy =           0.0000000000000000
    PCM Polarization Energy =               0.0000000000000000
    EFP Energy =                            0.0000000000000000
    Total Energy =                       -232.2322541696152030
    Molecular point group: c1
  Basis Set: CC-PVTZ
  Basis Set:

  -Total Gradient:
     Atom            X                  Y                   Z
    ------   -----------------  -----------------  -----------------
       1       -0.000002438603    -0.000000828169    -0.000001774926
       2       -0.000535795986    -0.000573737832     0.000208355383
       3        0.000665745766     0.000591659943    -0.000479224386
       4        0.000046613851     0.000620483873     0.001072435983
       5        0.000007527275     0.000006017578    -0.000000586682
       6       -0.000000576941     0.000001359268     0.000009068010
       7       -0.000004704438     0.000015595830     0.000015146738
       8       -0.000164546726    -0.000653295666    -0.000826319843
       9       -0.000008135697    -0.000001562285    -0.000002770783
      10       -0.000008169094    -0.000011669319    -0.000002442561
      11        0.000004368006     0.000004279218     0.000008462105
      12        0.000002774777     0.000007914568    -0.000008098132
      13        0.000006255848     0.000002328194     0.000005447079
      14       -0.000006238740    -0.000005574102     0.000003841611
      15       -0.000002679299    -0.000002971098    -0.000001539597

  **** Optimization is complete! (in 6 steps) ****
    Final optimized geometry and variables:
    Molecular point group: c1

    Geometry (in Angstrom), charge = 0, multiplicity = 1:

    H            2.198798458049    -0.377768250082     1.707999547863
    O            1.472589500115     0.142454190907     1.416886934572
    C            1.219231077027    -0.105510335587     0.056635532159
    C            0.072210076754     0.796526767898    -0.412175466038
    H            0.960947949755    -1.150735973718    -0.086025673615
    H            2.112122837338     0.086875392058    -0.531214415693
    C           -1.066877815721     0.053569244706    -1.113464203321
    H            0.460954124458     1.552048848906    -1.085451192511
    H           -0.312470264616     1.317507625534     0.456178258913
    C           -1.907379599002    -0.812852055880    -0.179254885968
    H           -0.661208477439    -0.559413143569    -1.914690080025
    H           -1.713761398516     0.781883974234    -1.592022245365
    H           -2.687014836621    -1.330322775054    -0.726631467221
    H           -1.309325901003    -1.561876890829     0.326768091849
    H           -2.383101564922    -0.206214115659     0.583603129850

  Mulliken Charges: (a.u.)
   Center  Symbol    Alpha    Beta     Spin     Total
       1     H     0.39526  0.39526  0.00000  0.20948
       2     O     4.19866  4.19866  0.00000 -0.39733
       3     C     2.96896  2.96896  0.00000  0.06207
       4     C     3.09441  3.09441  0.00000 -0.18882
       5     H     0.47427  0.47427  0.00000  0.05145
       6     H     0.46833  0.46833  0.00000  0.06335
       7     C     3.09696  3.09696  0.00000 -0.19392
       8     H     0.44881  0.44881  0.00000  0.10237
       9     H     0.44652  0.44652  0.00000  0.10696
      10     C     3.14509  3.14509  0.00000 -0.29019
      11     H     0.45632  0.45632  0.00000  0.08735
      12     H     0.44907  0.44907  0.00000  0.10187
      13     H     0.44925  0.44925  0.00000  0.10151
      14     H     0.45481  0.45481  0.00000  0.09037
      15     H     0.45327  0.45327  0.00000  0.09346

   Total alpha = 21.00000, Total beta = 21.00000, Total charge = -0.00000
