  ==> Input File <==

--------------------------------------------------------------------------
set {
	reference rhf
	basis 6-31G*
}

set_num_threads( 1 )
memory 2 gb

molecule MOL {
0 1

H	 2.591676	 2.013956	 0.335017
O	 3.341076	 1.666752	 -0.126416
C	 3.569581	 0.339145	 0.272707
C	 2.539767	 -0.640285	 -0.279495
H	 4.553106	 0.084646	 -0.100901
H	 3.608576	 0.269204	 1.359154
C	 3.139864	 -1.953284	 -0.788205
H	 1.810837	 -0.849638	 0.499093
H	 2.005238	 -0.148714	 -1.090669
C	 2.087798	 -2.892099	 -1.385368
H	 3.649818	 -2.453610	 0.030322
H	 3.895678	 -1.737323	 -1.543484
C	 2.647202	 -4.186237	 -1.987543
H	 1.353225	 -3.139023	 -0.620987
H	 1.547206	 -2.356273	 -2.162768
C	 3.272444	 -5.150306	 -0.975553
H	 1.838712	 -4.700806	 -2.502690
H	 3.382429	 -3.938608	 -2.751715
C	 3.720156	 -6.470031	 -1.607468
H	 2.552512	 -5.357649	 -0.185099
H	 4.128205	 -4.683785	 -0.493544
C	 4.350470	 -7.431641	 -0.600653
H	 2.866143	 -6.951036	 -2.079469
H	 4.432216	 -6.264224	 -2.404023
H	 3.651429	 -7.682937	 0.192074
H	 4.655312	 -8.357697	 -1.078279
H	 5.230192	 -6.993692	 -0.137346

	symmetry c1
}
set optking {
	frozen_dihedral = ("
		14 10 7 4,
		14 10 13 16,
		10 7 4 8,
		10 13 16 20,
		20 16 19 22,
		4 3 2 1
	")
}

ee = energy('scf')
oeprop('DIPOLE', 'QUADRUPOLE', 'MULLIKEN_CHARGES')
f=open( 'psi4out.xyz', 'w' )
f.write( "27  " )
f.write( str(ee) + "\n" )
f.write( MOL.save_string_xyz() )
f.close()
--------------------------------------------------------------------------

    Molecular point group: c1

    Geometry (in Angstrom), charge = 0, multiplicity = 1:

       Center              X                  Y                   Z               Mass
    ------------   -----------------  -----------------  -----------------  -----------------
           H         -0.601696966854     4.916305096235     1.142570306135     1.007825032070
           O          0.147703033146     4.569101096235     0.681137306135    15.994914619560
           C          0.376208033146     3.241494096235     1.080260306135    12.000000000000
           C         -0.653605966854     2.262064096235     0.528058306135    12.000000000000
           H          1.359733033146     2.986995096235     0.706652306135     1.007825032070
           H          0.415203033146     3.171553096235     2.166707306135     1.007825032070
           C         -0.053508966854     0.949065096235     0.019348306135    12.000000000000
           H         -1.382535966854     2.052711096235     1.306646306135     1.007825032070
           H         -1.188134966854     2.753635096235    -0.283115693865     1.007825032070
           C         -1.105574966854     0.010250096235    -0.577814693865    12.000000000000
           H          0.456445033146     0.448739096235     0.837875306135     1.007825032070
           H          0.702305033146     1.165026096235    -0.735930693865     1.007825032070
           C         -0.546170966854    -1.283887903765    -1.179989693865    12.000000000000
           H         -1.840147966854    -0.236673903765     0.186566306135     1.007825032070
           H         -1.646166966854     0.546076096235    -1.355214693865     1.007825032070
           C          0.079071033146    -2.247956903765    -0.167999693865    12.000000000000
           H         -1.354660966854    -1.798456903765    -1.695136693865     1.007825032070
           H          0.189056033146    -1.036258903765    -1.944161693865     1.007825032070
           C          0.526783033146    -3.567681903765    -0.799914693865    12.000000000000
           H         -0.640860966854    -2.455299903765     0.622454306135     1.007825032070
           H          0.934832033146    -1.781435903765     0.314009306135     1.007825032070
           C          1.157097033146    -4.529291903765     0.206900306135    12.000000000000
           H         -0.327229966854    -4.048686903765    -1.271915693865     1.007825032070
           H          1.238843033146    -3.361874903765    -1.596469693865     1.007825032070
           H          0.458056033146    -4.780587903765     0.999627306135     1.007825032070
           H          1.461939033146    -5.455347903765    -0.270725693865     1.007825032070
           H          2.036819033146    -4.091342903765     0.670207306135     1.007825032070

  Charge       = 0
  Multiplicity = 1
  Basis Set: 6-31G*
  Basis Set:

    Orbital Energies (a.u.)
    -----------------------

    Doubly Occupied:

       1A    -20.551579     2A    -11.265670     3A    -11.217157
       4A    -11.214855     5A    -11.214715     6A    -11.213718
       7A    -11.212830     8A    -11.212633     9A    -11.208386
      10A     -1.358277    11A     -1.093633    12A     -1.060773
      13A     -1.010415    14A     -0.944777    15A     -0.882547
      16A     -0.821799    17A     -0.803555    18A     -0.776791
      19A     -0.693400    20A     -0.647008    21A     -0.634009
      22A     -0.611065    23A     -0.606330    24A     -0.581243
      25A     -0.576699    26A     -0.554651    27A     -0.538923
      28A     -0.523977    29A     -0.508451    30A     -0.484814
      31A     -0.484011    32A     -0.474255    33A     -0.465211
      34A     -0.459555    35A     -0.454733    36A     -0.442133
      37A     -0.418877

  @DF-RHF Final Energy:  -388.27705029700167

   => Energetics <=

    Nuclear Repulsion Energy =            453.3806371534067239
    One-Electron Energy =               -1424.8684805258883443
    Two-Electron Energy =                 583.2107930754813196
    DFT Exchange-Correlation Energy =       0.0000000000000000
    Empirical Dispersion Energy =           0.0000000000000000
    PCM Polarization Energy =               0.0000000000000000
    EFP Energy =                            0.0000000000000000
    Total Energy =                       -388.2770502970003008

  Mulliken Charges: (a.u.)
   Center  Symbol    Alpha    Beta     Spin     Total
       1     H     0.28313  0.28313  0.00000  0.43375
       2     O     4.36988  4.36988  0.00000 -0.73977
       3     C     2.99435  2.99435  0.00000  0.01131
       4     C     3.17200  3.17200  0.00000 -0.34400
       5     H     0.41524  0.41524  0.00000  0.16951
       6     H     0.43034  0.43034  0.00000  0.13932
       7     C     3.16070  3.16070  0.00000 -0.32140
       8     H     0.42433  0.42433  0.00000  0.15134
       9     H     0.41201  0.41201  0.00000  0.17599
      10     C     3.15318  3.15318  0.00000 -0.30635
      11     H     0.42131  0.42131  0.00000  0.15737
      12     H     0.42020  0.42020  0.00000  0.15959
      13     C     3.15343  3.15343  0.00000 -0.30686
      14     H     0.42421  0.42421  0.00000  0.15157
      15     H     0.42081  0.42081  0.00000  0.15838
      16     C     3.15270  3.15270  0.00000 -0.30540
      17     H     0.42169  0.42169  0.00000  0.15661
      18     H     0.42332  0.42332  0.00000  0.15336
      19     C     3.15116  3.15116  0.00000 -0.30232
      20     H     0.42495  0.42495  0.00000  0.15011
      21     H     0.42241  0.42241  0.00000  0.15518
      22     C     3.23916  3.23916  0.00000 -0.47831
      23     H     0.42316  0.42316  0.00000  0.15368
      24     H     0.42286  0.42286  0.00000  0.15427
      25     H     0.42207  0.42207  0.00000  0.15586
      26     H     0.41936  0.41936  0.00000  0.16127
      27     H     0.42204  0.42204  0.00000  0.15592

   Total alpha = 37.00000, Total beta = 37.00000, Total charge =  0.00000
