  ==> Input File <==

--------------------------------------------------------------------------
set {
	reference rhf
	basis 6-31G*
}

set_num_threads( 4 )
memory 2 gb

molecule MOL {
0 1

H	 2.663299	 -0.043875	 0.620514
O	 2.064459	 -0.086912	 -0.111827
C	 0.745630	 0.005118	 0.354752
H	 0.739005	 0.037656	 1.444976
C	 -0.064159	 -1.194875	 -0.122754
C	 -0.046302	 1.193543	 -0.190431
H	 0.197384	 -1.376065	 -1.160690
H	 0.162855	 -2.097978	 0.431858
C	 -1.535782	 -0.752177	 0.006642
H	 0.154512	 1.271315	 -1.255561
H	 0.226209	 2.140461	 0.267302
C	 -1.509193	 0.801505	 0.065617
H	 -2.127797	 -1.112194	 -0.826847
H	 -1.986849	 -1.158408	 0.905561
H	 -2.183670	 1.254107	 -0.651985
H	 -1.821727	 1.144320	 1.047089

	symmetry c1
}
set optking {
	frozen_dihedral = ("
		1 2 3 6
	")
}

ee = optimize('scf')
oeprop('DIPOLE', 'QUADRUPOLE', 'MULLIKEN_CHARGES')
f=open( 'psi4out.xyz', 'w' )
f.write( "16  " )
f.write( str(ee) + "\n" )
f.write( MOL.save_string_xyz() )
f.close()
--------------------------------------------------------------------------

    Molecular point group: c1
  Charge       = 0
  Multiplicity = 1
  Basis Set: 6-31G*
  Basis Set:
  @DF-RHF Final Energy:  -270.01224087503215
    Total Energy =                       -270.0122408750320346
    Molecular point group: c1
  Basis Set: 6-31G*
  Basis Set:
  Basis Set: 6-31G*
  Basis Set:
  @DF-RHF Final Energy:  -270.01264713333489
    Total Energy =                       -270.0126471333348945
  Basis Set: 6-31G*
  Basis Set:
  Basis Set: 6-31G*
  Basis Set:
  @DF-RHF Final Energy:  -270.01268509829845
    Total Energy =                       -270.0126850982986753
  Basis Set: 6-31G*
  Basis Set:
  Basis Set: 6-31G*
  Basis Set:
  @DF-RHF Final Energy:  -270.01268702220716
    Total Energy =                       -270.0126870222072739
  Basis Set: 6-31G*
  Basis Set:
  Charge       = 0
  Multiplicity = 1
  Basis Set: 6-31G*
  Basis Set:

    Orbital Energies (a.u.)
    -----------------------

    Doubly Occupied:

       1A    -20.550918     2A    -11.269634     3A    -11.214114
       4A    -11.213530     5A    -11.206900     6A    -11.206839
       7A     -1.359440     8A     -1.111335     9A     -0.962654
      10A     -0.947569    11A     -0.779887    12A     -0.777052
      13A     -0.714183    14A     -0.650950    15A     -0.619886
      16A     -0.577006    17A     -0.546628    18A     -0.529743
      19A     -0.519188    20A     -0.478798    21A     -0.468110
      22A     -0.455428    23A     -0.452230    24A     -0.408763

  @DF-RHF Final Energy:  -270.01268738504410

   => Energetics <=

    Nuclear Repulsion Energy =            254.8380866213853437
    One-Electron Energy =                -871.6599762621700620
    Two-Electron Energy =                 346.8092022557408995
    DFT Exchange-Correlation Energy =       0.0000000000000000
    Empirical Dispersion Energy =           0.0000000000000000
    PCM Polarization Energy =               0.0000000000000000
    EFP Energy =                            0.0000000000000000
    Total Energy =                       -270.0126873850438756
    Molecular point group: c1
  Basis Set: 6-31G*
  Basis Set:

  -Total Gradient:
     Atom            X                  Y                   Z
    ------   -----------------  -----------------  -----------------
       1        0.000011152300    -0.000247855605     0.000031890471
       2       -0.000033798074     0.000245523885    -0.000074365912
       3        0.000067754010     0.000102157161     0.000145187644
       4        0.000008040757    -0.000003778142    -0.000002678057
       5        0.000042993752     0.000001517847    -0.000013972905
       6       -0.000102844300    -0.000065033315    -0.000092863678
       7       -0.000010411277    -0.000015577326     0.000005444676
       8       -0.000011754552     0.000004435881     0.000004504002
       9       -0.000015867261     0.000004413728     0.000047628185
      10        0.000002155008    -0.000015625614     0.000006613729
      11        0.000016708986     0.000013033633     0.000005410722
      12        0.000025443840    -0.000000799113    -0.000046504073
      13        0.000007126597    -0.000001291608    -0.000020788081
      14       -0.000017037338    -0.000013730660    -0.000018183250
      15       -0.000010293666    -0.000012484828     0.000015133111
      16        0.000020631218     0.000005094072     0.000007543418

  **** Optimization is complete! (in 5 steps) ****
    Final optimized geometry and variables:
    Molecular point group: c1

    Geometry (in Angstrom), charge = 0, multiplicity = 1:

    H            2.679119563065     0.001993257079     0.591583575476
    O            2.066678075936    -0.041057716617    -0.126000082377
    C            0.745282009711    -0.001525203453     0.353829831137
    H            0.744795550954     0.030183858712     1.442436812863
    C           -0.074857203514    -1.199790476437    -0.122428402726
    C           -0.040767177399     1.190643416783    -0.185455279479
    H            0.189277528830    -1.384153139207    -1.159191616659
    H            0.143720222850    -2.105898863471     0.432469778381
    C           -1.543729608076    -0.748705827469     0.000899352185
    H            0.170650266294     1.274186136713    -1.247740408504
    H            0.240637059695     2.130093930207     0.278830351744
    C           -1.507178696008     0.805636179657     0.056455923612
    H           -2.135832279936    -1.106799425659    -0.833481265419
    H           -2.000807585003    -1.149992246878     0.899262647977
    H           -2.173231167466     1.259124007021    -0.668481344564
    H           -1.828592984799     1.152091101136     1.034031845000

  Mulliken Charges: (a.u.)
   Center  Symbol    Alpha    Beta     Spin     Total
       1     H     0.27964  0.27964  0.00000  0.44072
       2     O     4.37870  4.37870  0.00000 -0.75740
       3     C     2.91077  2.91077  0.00000  0.17847
       4     H     0.43099  0.43099  0.00000  0.13802
       5     C     3.16774  3.16774  0.00000 -0.33549
       6     C     3.16597  3.16597  0.00000 -0.33195
       7     H     0.41134  0.41134  0.00000  0.17731
       8     H     0.41758  0.41758  0.00000  0.16484
       9     C     3.16906  3.16906  0.00000 -0.33812
      10     H     0.41312  0.41312  0.00000  0.17376
      11     H     0.41829  0.41829  0.00000  0.16341
      12     C     3.17026  3.17026  0.00000 -0.34053
      13     H     0.41474  0.41474  0.00000  0.17052
      14     H     0.41818  0.41818  0.00000  0.16365
      15     H     0.41432  0.41432  0.00000  0.17137
      16     H     0.41929  0.41929  0.00000  0.16141

   Total alpha = 24.00000, Total beta = 24.00000, Total charge =  0.00000
