                              Psi4 1.0.54 Driver

  ==> Input File <==

--------------------------------------------------------------------------
set {
	reference rhf
	basis cc-pvtz
}

set_num_threads( 4 )
memory 2 gb

molecule MOL {
0 1

O	 -2.374409	 1.338660	 -0.336961
C	 -2.104891	 0.204655	 -0.107126
C	 -0.881910	 -0.448129	 -0.720509
C	 -2.949910	 -0.638219	 0.818225
C	 0.366382	 0.419400	 -0.515563
H	 -1.071012	 -0.568050	 -1.779740
H	 -0.723290	 -1.430585	 -0.288669
C	 1.614447	 -0.204738	 -1.136280
H	 0.176267	 1.394850	 -0.945194
H	 0.535552	 0.572903	 0.547507
C	 2.901892	 0.590259	 -0.911841
H	 1.454770	 -0.334961	 -2.203765
H	 1.747639	 -1.201548	 -0.724901
C	 2.939892	 1.950545	 -1.603980
H	 3.736443	 -0.005336	 -1.268349
H	 3.059961	 0.723167	 0.155250
H	 2.778690	 1.848177	 -2.672214
H	 3.902931	 2.426643	 -1.460251
H	 2.183979	 2.624140	 -1.219084
H	 -3.440322	 -1.417144	 0.243099
H	 -3.694377	 -0.025850	 1.303346
H	 -2.331085	 -1.129829	 1.560495

	symmetry c1
}
set optking {
	frozen_dihedral = ("
		6 3 2 1
	")
}

ee,wfn = optimize('scf', return_wfn=True)
oeprop( wfn, 'DIPOLE', 'QUADRUPOLE', 'MULLIKEN_CHARGES')
f=open( 'psi4out.xyz', 'w' )
f.write( "22  " )
f.write( str(ee) + "\n" )
f.write( MOL.save_string_xyz() )
f.close()
--------------------------------------------------------------------------

    Molecular point group: c1
  Charge       = 0
  Multiplicity = 1
  Basis Set: CC-PVTZ
  Basis Set:
  @DF-RHF Final Energy:  -348.22311990080931
    Total Energy =                       -348.2231199008087970
    Molecular point group: c1
  Basis Set: CC-PVTZ
  Basis Set:
  Basis Set: CC-PVTZ
  Basis Set:
  @DF-RHF Final Energy:  -348.22205006979050
    Total Energy =                       -348.2220500697904413
  Basis Set: CC-PVTZ
  Basis Set:
  Basis Set: CC-PVTZ
  Basis Set:
  @DF-RHF Final Energy:  -348.22343179067838
    Total Energy =                       -348.2234317906782621
  Basis Set: CC-PVTZ
  Basis Set:
  Basis Set: CC-PVTZ
  Basis Set:
  @DF-RHF Final Energy:  -348.22357701133268
    Total Energy =                       -348.2235770113325657
  Basis Set: CC-PVTZ
  Basis Set:
  Basis Set: CC-PVTZ
  Basis Set:
  @DF-RHF Final Energy:  -348.22359316985859
    Total Energy =                       -348.2235931698584750
  Basis Set: CC-PVTZ
  Basis Set:
  Basis Set: CC-PVTZ
  Basis Set:
  @DF-RHF Final Energy:  -348.22357299705885
    Total Energy =                       -348.2235729970587386
  Basis Set: CC-PVTZ
  Basis Set:
  Basis Set: CC-PVTZ
  Basis Set:
  @DF-RHF Final Energy:  -348.22362474164345
    Total Energy =                       -348.2236247416435617
  Basis Set: CC-PVTZ
  Basis Set:
  Charge       = 0
  Multiplicity = 1
  Basis Set: CC-PVTZ
  Basis Set:

    Orbital Energies (a.u.)
    -----------------------

    Doubly Occupied:

       1A    -20.537251     2A    -11.320516     3A    -11.228726
       4A    -11.227469     5A    -11.220209     6A    -11.217218
       7A    -11.216016     8A    -11.206529     9A     -1.397895
      10A     -1.093403    11A     -1.043686    12A     -1.002026
      13A     -0.936567    14A     -0.855632    15A     -0.783629
      16A     -0.733110    17A     -0.662651    18A     -0.646577
      19A     -0.626755    20A     -0.621151    21A     -0.598325
      22A     -0.582391    23A     -0.564063    24A     -0.546065
      25A     -0.530450    26A     -0.513793    27A     -0.500456
      28A     -0.486152    29A     -0.468302    30A     -0.462197
      31A     -0.458979    32A     -0.399467

  @DF-RHF Final Energy:  -348.22362542594357

   => Energetics <=

    Nuclear Repulsion Energy =            373.1941050559393602
    One-Electron Energy =               -1211.4601442075424984
    Two-Electron Energy =                 490.0424137256594577
    DFT Exchange-Correlation Energy =       0.0000000000000000
    Empirical Dispersion Energy =           0.0000000000000000
    PCM Polarization Energy =               0.0000000000000000
    EFP Energy =                            0.0000000000000000
    Total Energy =                       -348.2236254259436237
    Molecular point group: c1
  Basis Set: CC-PVTZ
  Basis Set:

  -Total Gradient:
     Atom            X                  Y                   Z
    ------   -----------------  -----------------  -----------------
       1       -0.000480109709    -0.000165385690    -0.000710267140
       2        0.000654306700     0.000453190502     0.000941269362
       3       -0.000500987231    -0.000970161092    -0.000032261097
       4        0.000035318227     0.000056736923     0.000041209098
       5       -0.000039097634    -0.000027695857    -0.000015255600
       6        0.000301915780     0.000757938708    -0.000182413867
       7        0.000020177276    -0.000030454293    -0.000008093085
       8        0.000020163021    -0.000005700490     0.000010836917
       9       -0.000002288295     0.000004994821     0.000000419802
      10       -0.000001175599     0.000003253408     0.000004258316
      11        0.000000608484    -0.000016950900    -0.000008017247
      12        0.000003585782    -0.000001537610    -0.000002757076
      13        0.000004936068    -0.000004079181     0.000001567111
      14       -0.000008409974     0.000008929113     0.000000059909
      15        0.000001110512    -0.000007313595    -0.000001556310
      16        0.000001834498    -0.000005490921     0.000004106460
      17        0.000001772730     0.000002324404    -0.000004210261
      18       -0.000001800241    -0.000000143225     0.000002653440
      19       -0.000011310220     0.000006537580    -0.000000812083
      20       -0.000011799520    -0.000011190075    -0.000003296059
      21        0.000031554356    -0.000027610417    -0.000024591313
      22       -0.000020305014    -0.000020192117    -0.000012849279

  **** Optimization is complete! (in 8 steps) ****
    Final optimized geometry and variables:
    Molecular point group: c1

    Geometry (in Angstrom), charge = 0, multiplicity = 1:

    O           -2.339857511096     0.893870001575     0.213190258126
    C           -2.044360844057    -0.225972417985     0.477170453100
    C           -0.795381530642    -0.866114111191    -0.104379340695
    C           -2.901684211299    -1.079111760781     1.379138050448
    C            0.447468524187     0.008049624060     0.066440721837
    H           -0.990800966609    -1.011077191225    -1.163547985445
    H           -0.636587321773    -1.846790523194     0.329342384331
    C            1.682401233857    -0.601900289299    -0.592833653172
    H            0.235210784412     0.984754721719    -0.344972925812
    H            0.640805684126     0.152794599290     1.126662902402
    C            2.971557328669     0.194685914098    -0.384985065050
    H            1.499898619721    -0.714795324952    -1.659140590467
    H            1.830890807992    -1.605421157341    -0.202777004350
    C            2.985033459944     1.568506133688    -1.050796581903
    H            3.800451347886    -0.389168150560    -0.773057254707
    H            3.154439706874     0.308053722283     0.680345088847
    H            2.800986932296     1.485849188279    -2.117157056598
    H            3.947843099635     2.048668811632    -0.919072226337
    H            2.232917607774     2.228297034341    -0.636075912382
    H           -3.196922731556    -1.985029770346     0.859993807587
    H           -3.777539660915    -0.531001043481     1.690270658633
    H           -2.328274843028    -1.382561944813     2.249058152607

  Mulliken Charges: (a.u.)
   Center  Symbol    Alpha    Beta     Spin     Total
       1     O     4.17530  4.17530  0.00000 -0.35059
       2     C     2.85887  2.85887  0.00000  0.28227
       3     C     3.10473  3.10473  0.00000 -0.20946
       4     C     3.15292  3.15292  0.00000 -0.30583
       5     C     3.09526  3.09526  0.00000 -0.19052
       6     H     0.44324  0.44324  0.00000  0.11352
       7     H     0.44623  0.44623  0.00000  0.10754
       8     C     3.09666  3.09666  0.00000 -0.19332
       9     H     0.43619  0.43619  0.00000  0.12761
      10     H     0.45359  0.45359  0.00000  0.09282
      11     C     3.09046  3.09046  0.00000 -0.18093
      12     H     0.45292  0.45292  0.00000  0.09415
      13     H     0.45001  0.45001  0.00000  0.09998
      14     C     3.15213  3.15213  0.00000 -0.30426
      15     H     0.44830  0.44830  0.00000  0.10339
      16     H     0.45457  0.45457  0.00000  0.09086
      17     H     0.45467  0.45467  0.00000  0.09066
      18     H     0.44669  0.44669  0.00000  0.10661
      19     H     0.45118  0.45118  0.00000  0.09765
      20     H     0.44946  0.44946  0.00000  0.10107
      21     H     0.43641  0.43641  0.00000  0.12719
      22     H     0.45020  0.45020  0.00000  0.09959

   Total alpha = 32.00000, Total beta = 32.00000, Total charge =  0.00000

*** Psi4 exiting successfully. Buy a developer a beer!
