                              Psi4 1.0.54 Driver

  ==> Input File <==

--------------------------------------------------------------------------
set {
	reference rhf
	basis cc-pvtz
}

set_num_threads( 4 )
memory 2 gb

molecule MOL {
0 1

H	 -2.816458	 -0.841657	 -0.064679
N	 -1.878861	 -0.711874	 0.250184
C	 -1.341419	 0.551458	 -0.220231
H	 -1.333674	 -1.468530	 -0.105118
C	 0.158260	 0.460701	 -0.385678
H	 -1.771975	 0.880572	 -1.165139
H	 -1.555142	 1.316200	 0.518378
O	 0.444827	 -0.457590	 -1.396780
H	 0.561485	 1.438990	 -0.643619
H	 0.610575	 0.141581	 0.550539
C	 1.799685	 -0.684714	 -1.601706
H	 1.898909	 -1.403543	 -2.402222
H	 2.317423	 0.228775	 -1.886626
H	 2.275287	 -1.085527	 -0.709677

	symmetry c1
}
set optking {
	frozen_dihedral = ("
		6 3 2 4
	")
}

ee,wfn = optimize('scf', return_wfn=True)
oeprop( wfn, 'DIPOLE', 'QUADRUPOLE', 'MULLIKEN_CHARGES')
f=open( 'psi4out.xyz', 'w' )
f.write( "14  " )
f.write( str(ee) + "\n" )
f.write( MOL.save_string_xyz() )
f.close()
--------------------------------------------------------------------------

    Molecular point group: c1
  Charge       = 0
  Multiplicity = 1
  Basis Set: CC-PVTZ
  Basis Set:
  @DF-RHF Final Energy:  -248.22392234655712
    Total Energy =                       -248.2239223465572309
    Molecular point group: c1
  Basis Set: CC-PVTZ
  Basis Set:
  Basis Set: CC-PVTZ
  Basis Set:
  @DF-RHF Final Energy:  -248.22413530209650
    Total Energy =                       -248.2241353020964993
  Basis Set: CC-PVTZ
  Basis Set:
  Basis Set: CC-PVTZ
  Basis Set:
  @DF-RHF Final Energy:  -248.22416890325712
    Total Energy =                       -248.2241689032570093
  Basis Set: CC-PVTZ
  Basis Set:
  Basis Set: CC-PVTZ
  Basis Set:
  @DF-RHF Final Energy:  -248.22417043203157
    Total Energy =                       -248.2241704320315989
  Basis Set: CC-PVTZ
  Basis Set:
  Charge       = 0
  Multiplicity = 1
  Basis Set: CC-PVTZ
  Basis Set:

    Orbital Energies (a.u.)
    -----------------------

    Doubly Occupied:

       1A    -20.553935     2A    -15.520476     3A    -11.268233
       4A    -11.266326     5A    -11.239760     6A     -1.387921
       7A     -1.173798     8A     -1.001964     9A     -0.910550
      10A     -0.818779    11A     -0.689752    12A     -0.672314
      13A     -0.652987    14A     -0.618829    15A     -0.595715
      16A     -0.549161    17A     -0.534341    18A     -0.501286
      19A     -0.474107    20A     -0.423287    21A     -0.379408

  @DF-RHF Final Energy:  -248.22417058451978

   => Energetics <=

    Nuclear Repulsion Energy =            194.7071896559015443
    One-Electron Energy =                -723.3968616351787659
    Two-Electron Energy =                 280.4655013947574957
    DFT Exchange-Correlation Energy =       0.0000000000000000
    Empirical Dispersion Energy =           0.0000000000000000
    PCM Polarization Energy =               0.0000000000000000
    EFP Energy =                            0.0000000000000000
    Total Energy =                       -248.2241705845197544
    Molecular point group: c1
  Basis Set: CC-PVTZ
  Basis Set:

  -Total Gradient:
     Atom            X                  Y                   Z
    ------   -----------------  -----------------  -----------------
       1       -0.000008674556     0.000001155730    -0.000005620322
       2       -0.003669332754     0.000623860363    -0.003294073524
       3        0.003805734636    -0.002404474839    -0.001755325788
       4        0.002376289177    -0.000097272580     0.003119269672
       5       -0.000018540269    -0.000014875303    -0.000002998285
       6       -0.002484552872     0.001854953237     0.001934297969
       7        0.000003419743     0.000011719896     0.000006943110
       8       -0.000001382255     0.000012181628     0.000004210560
       9        0.000013186502     0.000013282305    -0.000007721032
      10       -0.000013445868     0.000003438756     0.000000686509
      11        0.000001564701    -0.000002915460    -0.000003045095
      12        0.000001240954    -0.000000560676     0.000002744231
      13       -0.000004033639    -0.000000036808     0.000000832297
      14       -0.000001473499    -0.000000456249    -0.000000200306

  **** Optimization is complete! (in 5 steps) ****
    Final optimized geometry and variables:
    Molecular point group: c1

    Geometry (in Angstrom), charge = 0, multiplicity = 1:

    H           -2.727615959518    -0.549725025021     0.624666894758
    N           -1.770987789905    -0.486314958957     0.893944959694
    C           -1.167011198536     0.764779417119     0.469759127093
    H           -1.281586188432    -1.260518184113     0.500677483383
    C            0.329281090820     0.626706787661     0.311498086802
    H           -1.597031422783     1.151638567740    -0.451703039021
    H           -1.343945626135     1.520392843371     1.229960527461
    O            0.608617146292    -0.288583280246    -0.703435446259
    H            0.760915449015     1.597052111615     0.073627931359
    H            0.765544679955     0.287390339022     1.249699367025
    C            1.962522704587    -0.521030925092    -0.911678248188
    H            2.056430365791    -1.241317595075    -1.711349685727
    H            2.482618670117     0.390093863170    -1.199048059490
    H            2.439486176017    -0.922312355069    -0.020383895624

  Mulliken Charges: (a.u.)
   Center  Symbol    Alpha    Beta     Spin     Total
       1     H     0.42911  0.42911  0.00000  0.14177
       2     N     3.69712  3.69712  0.00000 -0.39423
       3     C     3.01278  3.01278  0.00000 -0.02555
       4     H     0.42299  0.42299  0.00000  0.15402
       5     C     2.97788  2.97788  0.00000  0.04424
       6     H     0.46417  0.46417  0.00000  0.07166
       7     H     0.46457  0.46457  0.00000  0.07087
       8     O     4.17858  4.17858  0.00000 -0.35715
       9     H     0.46641  0.46641  0.00000  0.06718
      10     H     0.46683  0.46683  0.00000  0.06635
      11     C     3.03266  3.03266  0.00000 -0.06532
      12     H     0.44695  0.44695  0.00000  0.10610
      13     H     0.46986  0.46986  0.00000  0.06028
      14     H     0.47011  0.47011  0.00000  0.05979

   Total alpha = 21.00000, Total beta = 21.00000, Total charge =  0.00000

*** Psi4 exiting successfully. Buy a developer a beer!
