  ==> Input File <==

--------------------------------------------------------------------------
set {
	reference rhf
	basis 6-31G*
}

set_num_threads( 4 )
memory 2 gb

molecule MOL {
0 1

H	 5.268524	 0.192471	 1.070992
C	 4.673736	 -0.214914	 0.259335
C	 3.185378	 -0.203514	 0.605509
H	 4.871837	 0.380453	 -0.627026
H	 5.025590	 -1.224632	 0.065769
C	 2.317601	 -0.778379	 -0.516234
H	 2.874655	 0.814325	 0.817774
H	 3.023650	 -0.778480	 1.515976
C	 2.203377	 0.135862	 -1.736227
H	 2.716664	 -1.736430	 -0.830130
H	 1.316753	 -0.962521	 -0.132259
C	 3.477861	 0.243313	 -2.560477
H	 1.431817	 -0.240274	 -2.406293
H	 1.879743	 1.132904	 -1.445806
C	 3.587397	 1.401859	 -3.536431
O	 4.356011	 -0.560212	 -2.462471
C	 2.523611	 1.379540	 -4.644142
H	 4.579631	 1.358708	 -3.969242
H	 3.506878	 2.332928	 -2.978478
C	 2.722677	 2.502793	 -5.663596
H	 2.558498	 0.419835	 -5.155381
H	 1.530657	 1.465205	 -4.210351
C	 1.670054	 2.491176	 -6.771185
H	 3.712872	 2.415839	 -6.104068
H	 2.698401	 3.461865	 -5.150774
H	 1.692178	 1.556040	 -7.323233
H	 0.670005	 2.611430	 -6.364302
H	 1.837931	 3.296782	 -7.478783

	symmetry c1
}
set optking {
	frozen_dihedral = ("
		10 6 3 2
	")
}

ee = optimize('scf')
oeprop('DIPOLE', 'QUADRUPOLE', 'MULLIKEN_CHARGES')
f=open( 'psi4out.xyz', 'w' )
f.write( "28  " )
f.write( str(ee) + "\n" )
f.write( MOL.save_string_xyz() )
f.close()
--------------------------------------------------------------------------

    Molecular point group: c1
  Charge       = 0
  Multiplicity = 1
  Basis Set: 6-31G*
  Basis Set:
  @DF-RHF Final Energy:  -426.15681353944763
    Total Energy =                       -426.1568135394468300
    Molecular point group: c1
  Basis Set: 6-31G*
  Basis Set:
  Basis Set: 6-31G*
  Basis Set:
  @DF-RHF Final Energy:  -426.16263264915597
    Total Energy =                       -426.1626326491561940
  Basis Set: 6-31G*
  Basis Set:
  Basis Set: 6-31G*
  Basis Set:
  @DF-RHF Final Energy:  -426.16416274218773
    Total Energy =                       -426.1641627421878411
  Basis Set: 6-31G*
  Basis Set:
  Basis Set: 6-31G*
  Basis Set:
  @DF-RHF Final Energy:  -426.16454830760938
    Total Energy =                       -426.1645483076091523
  Basis Set: 6-31G*
  Basis Set:
  @DF-RHF Final Energy:  -426.16499542595102
    Total Energy =                       -426.1649954259510196
  @DF-RHF Final Energy:  -426.16552446186734
    Total Energy =                       -426.1655244618673350
  @DF-RHF Final Energy:  -426.16559269650156
    Total Energy =                       -426.1655926965012213
  @DF-RHF Final Energy:  -426.16565199738989
    Total Energy =                       -426.1656519973902277
  Basis Set: 6-31G*
  Basis Set:
  @DF-RHF Final Energy:  -426.16567674665316
    Total Energy =                       -426.1656767466533893
  Basis Set: 6-31G*
  Basis Set:
  Basis Set: 6-31G*
  Basis Set:
  @DF-RHF Final Energy:  -426.16567927338940
    Total Energy =                       -426.1656792733892871
  Basis Set: 6-31G*
  Basis Set:
  Basis Set: 6-31G*
  Basis Set:
  @DF-RHF Final Energy:  -426.16568258400082
    Total Energy =                       -426.1656825840011606
  Basis Set: 6-31G*
  Basis Set:
  Charge       = 0
  Multiplicity = 1
  Basis Set: 6-31G*
  Basis Set:

    Orbital Energies (a.u.)
    -----------------------

    Doubly Occupied:

       1A    -20.546886     2A    -11.321745     3A    -11.232432
       4A    -11.229434     5A    -11.228783     6A    -11.226065
       7A    -11.217139     8A    -11.216284     9A    -11.216274
      10A    -11.204656    11A     -1.392506    12A     -1.095136
      13A     -1.076853    14A     -1.021515    15A     -0.988727
      16A     -0.910186    17A     -0.879219    18A     -0.808830
      19A     -0.793132    20A     -0.723057    21A     -0.667570
      22A     -0.647979    23A     -0.638350    24A     -0.624967
      25A     -0.598986    26A     -0.591416    27A     -0.580686
      28A     -0.559019    29A     -0.551311    30A     -0.537588
      31A     -0.517334    32A     -0.506609    33A     -0.505298
      34A     -0.484637    35A     -0.478425    36A     -0.475015
      37A     -0.468909    38A     -0.466097    39A     -0.452095
      40A     -0.391506

  @DF-RHF Final Energy:  -426.16568351182150

   => Energetics <=

    Nuclear Repulsion Energy =            540.0996575392028944
    One-Electron Energy =               -1648.3853732192203552
    Two-Electron Energy =                 682.1200321681959622
    DFT Exchange-Correlation Energy =       0.0000000000000000
    Empirical Dispersion Energy =           0.0000000000000000
    PCM Polarization Energy =               0.0000000000000000
    EFP Energy =                            0.0000000000000000
    Total Energy =                       -426.1656835118213849
    Molecular point group: c1
  Basis Set: 6-31G*
  Basis Set:

  -Total Gradient:
     Atom            X                  Y                   Z
    ------   -----------------  -----------------  -----------------
       1       -0.000017097332     0.000011511207     0.000012866303
       2        0.000292535468    -0.001453581564     0.000737813396
       3       -0.000025242103     0.002293011249    -0.001397639619
       4        0.000000191743     0.000014115000     0.000000984686
       5       -0.000016110866     0.000017071994    -0.000001975296
       6       -0.001419586568    -0.002049025437     0.002067534935
       7       -0.000009298036     0.000010442761     0.000008213646
       8        0.000013818195     0.000000347234    -0.000004078934
       9       -0.000000524181     0.000054382408    -0.000004462981
      10        0.001220006351     0.001137385637    -0.001408889530
      11       -0.000004710926     0.000007149268    -0.000003436558
      12        0.000026407460    -0.000016682973    -0.000021048257
      13       -0.000006680311    -0.000009389169    -0.000021486932
      14        0.000001154421    -0.000011721475     0.000000004175
      15       -0.000040858805    -0.000014645064    -0.000039579277
      16       -0.000044244280     0.000030374670     0.000017436246
      17        0.000037015075    -0.000025865532     0.000019659741
      18        0.000011366823    -0.000000773692    -0.000001216095
      19        0.000010957226    -0.000001613583     0.000037967815
      20        0.000004222723    -0.000001525790     0.000011538960
      21       -0.000024103250    -0.000006115161    -0.000003196799
      22       -0.000006413130     0.000007365167    -0.000000083120
      23        0.000000685205     0.000002181214    -0.000005838700
      24        0.000000876095     0.000001059476     0.000005480343
      25       -0.000002977024     0.000003999366    -0.000003942487
      26        0.000000331993     0.000000420451     0.000000873307
      27        0.000000826535    -0.000000094825    -0.000000571374
      28       -0.000002548502     0.000000217161    -0.000002927597

  **** Optimization is complete! (in 12 steps) ****
    Final optimized geometry and variables:
    Molecular point group: c1

    Geometry (in Angstrom), charge = 0, multiplicity = 1:

    H            2.006471326192    -0.142651480888     4.106940802503
    C            1.566516129807    -0.548643519132     3.200984454276
    C            0.059802811428    -0.742542309968     3.379942929308
    H            1.799170744017     0.137937560967     2.393197121969
    H            2.058122004821    -1.489285526214     2.978130694036
    C           -0.658353864205    -1.428687420020     2.210236501835
    H           -0.412813505832     0.217209182797     3.581191375685
    H           -0.101142191730    -1.346834240895     4.269519580409
    C           -0.803792296398    -0.563167391559     0.951460943795
    H           -0.134958363221    -2.336923141606     1.935316780152
    H           -1.652457830848    -1.714017629378     2.541320023628
    C            0.395980225025    -0.585829151749     0.014092538501
    H           -1.641265320469    -0.927601449553     0.358037484656
    H           -1.050876431890     0.463537570385     1.209109182405
    C            0.578845283925     0.597765324309    -0.918841451919
    O            1.146852669445    -1.513762826024    -0.017242323720
    C           -0.566086528448     0.758801046570    -1.930294991640
    H            1.518862203033     0.453422392932    -1.437652258964
    H            0.661221605528     1.503099243221    -0.320268401335
    C           -0.320112946776     1.908538911604    -2.909126620614
    H           -0.684362496142    -0.168443688873    -2.486731827762
    H           -1.504131109212     0.930292184908    -1.408355906786
    C           -1.450683438490     2.075159065170    -3.923523559538
    H            0.616011341725     1.737536614007    -3.434941208962
    H           -0.194101359855     2.834210753502    -2.351768144334
    H           -1.578943869677     1.175753207277    -4.518764934065
    H           -2.395441419121     2.281777885606    -3.428702897186
    H           -1.247742439510     2.895852226233    -4.604116808191

  Mulliken Charges: (a.u.)
   Center  Symbol    Alpha    Beta     Spin     Total
       1     H     0.42157  0.42157  0.00000  0.15685
       2     C     3.23820  3.23820  0.00000 -0.47640
       3     C     3.15418  3.15418  0.00000 -0.30836
       4     H     0.42568  0.42568  0.00000  0.14864
       5     H     0.41195  0.41195  0.00000  0.17610
       6     C     3.15712  3.15712  0.00000 -0.31425
       7     H     0.42592  0.42592  0.00000  0.14816
       8     H     0.41979  0.41979  0.00000  0.16042
       9     C     3.21032  3.21032  0.00000 -0.42063
      10     H     0.40069  0.40069  0.00000  0.19862
      11     H     0.41952  0.41952  0.00000  0.16095
      12     C     2.73076  2.73076  0.00000  0.53848
      13     H     0.40226  0.40226  0.00000  0.19549
      14     H     0.41376  0.41376  0.00000  0.17248
      15     C     3.20150  3.20150  0.00000 -0.40300
      16     O     4.26811  4.26811  0.00000 -0.53621
      17     C     3.16413  3.16413  0.00000 -0.32825
      18     H     0.39985  0.39985  0.00000  0.20030
      19     H     0.41339  0.41339  0.00000  0.17322
      20     C     3.15175  3.15175  0.00000 -0.30350
      21     H     0.41336  0.41336  0.00000  0.17328
      22     H     0.41837  0.41837  0.00000  0.16326
      23     C     3.24034  3.24034  0.00000 -0.48069
      24     H     0.41837  0.41837  0.00000  0.16326
      25     H     0.42147  0.42147  0.00000  0.15706
      26     H     0.41955  0.41955  0.00000  0.16089
      27     H     0.42120  0.42120  0.00000  0.15761
      28     H     0.41689  0.41689  0.00000  0.16622

   Total alpha = 40.00000, Total beta = 40.00000, Total charge =  0.00000
