  ==> Input File <==

--------------------------------------------------------------------------
set {
	reference rhf
	basis 6-31G*
}

set_num_threads( 4 )
memory 2 gb

molecule MOL {
0 1

H	 -2.047595	 -0.728869	 -0.569114
O	 -2.035884	 -0.060112	 0.102722
C	 -0.955155	 0.788182	 -0.092531
C	 0.353668	 0.040312	 -0.004810
H	 -0.985057	 1.290372	 -1.054184
H	 -0.974469	 1.533190	 0.688632
F	 0.394464	 -0.937475	 -0.903053
F	 1.368604	 0.853376	 -0.249821
F	 0.546173	 -0.502608	 1.179981

	symmetry c1
}
set optking {
	frozen_dihedral = ("
		1 2 3 5
	")
}

ee = optimize('scf')
oeprop('DIPOLE', 'QUADRUPOLE', 'MULLIKEN_CHARGES')
f=open( 'psi4out.xyz', 'w' )
f.write( "9  " )
f.write( str(ee) + "\n" )
f.write( MOL.save_string_xyz() )
f.close()
--------------------------------------------------------------------------

    Molecular point group: c1
  Charge       = 0
  Multiplicity = 1
  Basis Set: 6-31G*
  Basis Set:
  @DF-RHF Final Energy:  -450.66277436511996
    Total Energy =                       -450.6627743651199580
    Molecular point group: c1
  Basis Set: 6-31G*
  Basis Set:
  Basis Set: 6-31G*
  Basis Set:
  @DF-RHF Final Energy:  -450.66277984844663
    Total Energy =                       -450.6627798484464620
  Basis Set: 6-31G*
  Basis Set:
  Charge       = 0
  Multiplicity = 1
  Basis Set: 6-31G*
  Basis Set:

    Orbital Energies (a.u.)
    -----------------------

    Doubly Occupied:

       1A    -26.345197     2A    -26.344417     3A    -26.340190
       4A    -20.590266     5A    -11.501346     6A    -11.309637
       7A     -1.741331     8A     -1.640306     9A     -1.637819
      10A     -1.402399    11A     -1.048565    12A     -0.924519
      13A     -0.831557    14A     -0.829760    15A     -0.807720
      16A     -0.725739    17A     -0.712872    18A     -0.696549
      19A     -0.665624    20A     -0.660139    21A     -0.643679
      22A     -0.628884    23A     -0.617228    24A     -0.530317
      25A     -0.480404

  @DF-RHF Final Energy:  -450.66278101174640

   => Energetics <=

    Nuclear Repulsion Energy =            277.1526856731470048
    One-Electron Energy =               -1176.3180005997769513
    Two-Electron Energy =                 448.5025339148835997
    DFT Exchange-Correlation Energy =       0.0000000000000000
    Empirical Dispersion Energy =           0.0000000000000000
    PCM Polarization Energy =               0.0000000000000000
    EFP Energy =                            0.0000000000000000
    Total Energy =                       -450.6627810117462900
    Molecular point group: c1
  Basis Set: 6-31G*
  Basis Set:

  -Total Gradient:
     Atom            X                  Y                   Z
    ------   -----------------  -----------------  -----------------
       1        0.000429962379    -0.000474771541     0.000417467546
       2       -0.000630840491     0.000752344548    -0.000444558463
       3        0.000630575044    -0.000753640950    -0.000254019579
       4       -0.000066812498    -0.000169921942    -0.000014760750
       5       -0.000372796220     0.000518137539     0.000293973672
       6       -0.000026999144     0.000004074720    -0.000002641068
       7        0.000004683843     0.000008991272    -0.000030703950
       8        0.000003421467     0.000033819451     0.000032978084
       9        0.000028805627     0.000080966898     0.000002264506

  **** Optimization is complete! (in 3 steps) ****
    Final optimized geometry and variables:
    Molecular point group: c1

    Geometry (in Angstrom), charge = 0, multiplicity = 1:

    H           -2.052163103761    -0.724967982056    -0.577296494631
    O           -2.037847488776    -0.060366578544     0.099069899010
    C           -0.955903504722     0.787266916400    -0.092482726753
    C            0.353799104132     0.041534820486    -0.004634353291
    H           -0.987528938703     1.295368944977    -1.050999828961
    H           -0.977194800027     1.529547029110     0.691359052491
    F            0.391637138483    -0.941879457859    -0.897583075345
    F            1.367377317702     0.853266261921    -0.257111643662
    F            0.550062153642    -0.495459191333     1.182331737424

  Mulliken Charges: (a.u.)
   Center  Symbol    Alpha    Beta     Spin     Total
       1     H     0.27257  0.27257  0.00000  0.45486
       2     O     4.36231  4.36231  0.00000 -0.72461
       3     C     3.05075  3.05075  0.00000 -0.10150
       4     C     2.46648  2.46648  0.00000  1.06705
       5     H     0.40974  0.40974  0.00000  0.18053
       6     H     0.39562  0.39562  0.00000  0.20876
       7     F     4.68647  4.68647  0.00000 -0.37294
       8     F     4.68120  4.68120  0.00000 -0.36241
       9     F     4.67487  4.67487  0.00000 -0.34973

   Total alpha = 25.00000, Total beta = 25.00000, Total charge = -0.00000
