                              Psi4 1.0.54 Driver

  ==> Input File <==

--------------------------------------------------------------------------
set {
	reference rhf
	basis cc-pvtz
}

set_num_threads( 4 )
memory 2 gb

molecule MOL {
0 1

O	 -2.360944	 -0.843569	 -0.708397
C	 -1.880760	 0.111543	 -0.200180
C	 -2.596620	 1.413623	 0.024734
O	 -0.637375	 0.157174	 0.243149
H	 -2.072414	 2.209867	 -0.488026
H	 -3.607194	 1.338351	 -0.342296
H	 -2.599745	 1.649289	 1.081153
C	 0.162530	 -1.009518	 0.097799
C	 1.587210	 -0.664190	 0.477086
H	 0.096803	 -1.356267	 -0.924704
H	 -0.233803	 -1.785900	 0.736810
C	 2.256770	 0.342732	 -0.454344
H	 2.154716	 -1.590834	 0.479041
H	 1.598751	 -0.289614	 1.496104
C	 3.698146	 0.643205	 -0.057145
H	 2.235038	 -0.042575	 -1.470299
H	 1.683491	 1.262594	 -0.461300
H	 4.150202	 1.356548	 -0.736242
H	 4.305463	 -0.255904	 -0.069842
H	 3.749130	 1.061068	 0.942759

	symmetry c1
}
set optking {
	frozen_dihedral = ("
		2 4 8 10
	")
}

ee,wfn = optimize('scf', return_wfn=True)
oeprop( wfn, 'DIPOLE', 'QUADRUPOLE', 'MULLIKEN_CHARGES')
f=open( 'psi4out.xyz', 'w' )
f.write( "20  " )
f.write( str(ee) + "\n" )
f.write( MOL.save_string_xyz() )
f.close()
--------------------------------------------------------------------------

    Molecular point group: c1
  Charge       = 0
  Multiplicity = 1
  Basis Set: CC-PVTZ
  Basis Set:
  @DF-RHF Final Energy:  -384.08746233583577
    Total Energy =                       -384.0874623358357667
    Molecular point group: c1
  Basis Set: CC-PVTZ
  Basis Set:
  Basis Set: CC-PVTZ
  Basis Set:
  @DF-RHF Final Energy:  -384.08747053015799
    Total Energy =                       -384.0874705301582708
  Basis Set: CC-PVTZ
  Basis Set:
  Basis Set: CC-PVTZ
  Basis Set:
  @DF-RHF Final Energy:  -384.08746461445224
    Total Energy =                       -384.0874646144520739
  Basis Set: CC-PVTZ
  Basis Set:
  Basis Set: CC-PVTZ
  Basis Set:
  @DF-RHF Final Energy:  -384.08747593345998
    Total Energy =                       -384.0874759334600412
  Basis Set: CC-PVTZ
  Basis Set:
  Charge       = 0
  Multiplicity = 1
  Basis Set: CC-PVTZ
  Basis Set:

    Orbital Energies (a.u.)
    -----------------------

    Doubly Occupied:

       1A    -20.594304     2A    -20.532604     3A    -11.366721
       4A    -11.280100     5A    -11.231654     6A    -11.223622
       7A    -11.218977     8A    -11.211688     9A     -1.470907
      10A     -1.365208    11A     -1.087262    12A     -1.029359
      13A     -0.982342    14A     -0.881579    15A     -0.811738
      16A     -0.777525    17A     -0.692740    18A     -0.685612
      19A     -0.670588    20A     -0.632887    21A     -0.602242
      22A     -0.594357    23A     -0.573302    24A     -0.551167
      25A     -0.545260    26A     -0.533763    27A     -0.512315
      28A     -0.483251    29A     -0.477190    30A     -0.475362
      31A     -0.450784    32A     -0.441928

  @DF-RHF Final Energy:  -384.08747610895790

   => Energetics <=

    Nuclear Repulsion Energy =            385.9857481314451775
    One-Electron Energy =               -1288.1697857221820414
    Two-Electron Energy =                 518.0965614817790765
    DFT Exchange-Correlation Energy =       0.0000000000000000
    Empirical Dispersion Energy =           0.0000000000000000
    PCM Polarization Energy =               0.0000000000000000
    EFP Energy =                            0.0000000000000000
    Total Energy =                       -384.0874761089577305
    Molecular point group: c1
  Basis Set: CC-PVTZ
  Basis Set:

  -Total Gradient:
     Atom            X                  Y                   Z
    ------   -----------------  -----------------  -----------------
       1        0.000018107197     0.000006304445     0.000013790369
       2        0.000168874714     0.000209720611    -0.000568898143
       3        0.000010126057     0.000009855959    -0.000026569055
       4       -0.000417639129    -0.000413469971     0.000853060415
       5        0.000000922643     0.000002078662     0.000009749845
       6       -0.000001024243    -0.000001857472     0.000002452993
       7       -0.000004543136    -0.000008317573     0.000005269903
       8        0.000819790261     0.000624748726    -0.000509509592
       9        0.000000089043    -0.000001218123     0.000009473380
      10       -0.000582110302    -0.000408532845     0.000209495892
      11       -0.000002549054    -0.000019046987     0.000007299632
      12       -0.000005278883    -0.000001917919     0.000002388272
      13       -0.000006187355    -0.000004239620    -0.000000544279
      14        0.000000048243     0.000000131337    -0.000005342423
      15        0.000000585679     0.000001475815    -0.000003472194
      16        0.000002082563     0.000001343581     0.000001644352
      17        0.000000143023     0.000002276397     0.000000503227
      18        0.000002293112     0.000000053887     0.000000198419
      19       -0.000002129901     0.000000431369     0.000000296024
      20       -0.000001600529     0.000000179720    -0.000001287037

  **** Optimization is complete! (in 5 steps) ****
    Final optimized geometry and variables:
    Molecular point group: c1

    Geometry (in Angstrom), charge = 0, multiplicity = 1:

    O           -2.394335628556    -0.864301668600    -0.611197047097
    C           -1.904005861369     0.090816069301    -0.112883630200
    C           -2.611023768072     1.397397342841     0.112339240629
    O           -0.655923873490     0.132807021792     0.317366568085
    H           -2.089431393433     2.187861637548    -0.411815544334
    H           -3.626415850656     1.324540774078    -0.241676126349
    H           -2.599907374160     1.639333239504     1.167232105473
    C            0.144219727778    -1.031992061725     0.157600902771
    C            1.570305234376    -0.691676840662     0.535507324091
    H            0.070256994718    -1.374573705216    -0.864825671740
    H           -0.250386359009    -1.812138497796     0.794434328640
    C            2.240299558159     0.315981527539    -0.394639091596
    H            2.135372183836    -1.619744852692     0.533685005502
    H            1.584954871851    -0.319905957145     1.555446920054
    C            3.680156522558     0.618885879305     0.005774426360
    H            2.221394006774    -0.069305613403    -1.410589405205
    H            1.665837713902     1.235069656564    -0.402483839614
    H            4.132310939118     1.333448305408    -0.671951559706
    H            4.288938552250    -0.279173512981    -0.006292581178
    H            3.728180549894     1.036161533293     1.006045284853

  Mulliken Charges: (a.u.)
   Center  Symbol    Alpha    Beta     Spin     Total
       1     O     4.19738  4.19738  0.00000 -0.39476
       2     C     2.80823  2.80823  0.00000  0.38354
       3     C     3.13853  3.13853  0.00000 -0.27706
       4     O     4.15411  4.15411  0.00000 -0.30821
       5     H     0.44629  0.44629  0.00000  0.10742
       6     H     0.43779  0.43779  0.00000  0.12442
       7     H     0.44558  0.44558  0.00000  0.10883
       8     C     2.99447  2.99447  0.00000  0.01105
       9     C     3.08379  3.08379  0.00000 -0.16758
      10     H     0.44876  0.44876  0.00000  0.10247
      11     H     0.44581  0.44581  0.00000  0.10838
      12     C     3.08638  3.08638  0.00000 -0.17276
      13     H     0.45155  0.45155  0.00000  0.09690
      14     H     0.45193  0.45193  0.00000  0.09614
      15     C     3.15020  3.15020  0.00000 -0.30039
      16     H     0.45461  0.45461  0.00000  0.09078
      17     H     0.44760  0.44760  0.00000  0.10480
      18     H     0.44731  0.44731  0.00000  0.10538
      19     H     0.45538  0.45538  0.00000  0.08924
      20     H     0.45430  0.45430  0.00000  0.09140

   Total alpha = 32.00000, Total beta = 32.00000, Total charge =  0.00000

*** Psi4 exiting successfully. Buy a developer a beer!
