                              Psi4 1.0.54 Driver

  ==> Input File <==

--------------------------------------------------------------------------
set {
	reference rhf
	basis cc-pvtz
}

set_num_threads( 4 )
memory 2 gb

molecule MOL {
0 1

H	 -4.344476	 0.089194	 -1.179552
O	 -3.458596	 0.315260	 -0.960865
C	 -3.176635	 -0.080824	 0.355601
C	 -1.763371	 0.265266	 0.799691
H	 -3.321825	 -1.153438	 0.379502
H	 -3.895468	 0.357385	 1.043382
C	 -0.673390	 -0.426948	 -0.013392
H	 -1.631049	 1.344913	 0.747560
H	 -1.664587	 -0.001624	 1.849167
C	 0.737842	 -0.043159	 0.423759
H	 -0.806103	 -0.190518	 -1.063345
H	 -0.797221	 -1.503753	 0.074146
C	 1.824000	 -0.743224	 -0.390623
H	 0.850588	 1.033777	 0.343840
H	 0.868587	 -0.286314	 1.476203
C	 3.255957	 -0.453067	 0.062319
H	 1.718250	 -0.470599	 -1.438164
H	 1.658105	 -1.815850	 -0.339904
C	 3.707029	 0.992337	 -0.133857
H	 3.928201	 -1.104096	 -0.488158
H	 3.362667	 -0.724561	 1.109374
H	 3.605811	 1.294044	 -1.171549
H	 4.748333	 1.111029	 0.143343
H	 3.129882	 1.683078	 0.468956

	symmetry c1
}
set optking {
	frozen_dihedral = ("
		1 2 3 5
	")
}

ee,wfn = optimize('scf', return_wfn=True)
oeprop( wfn, 'DIPOLE', 'QUADRUPOLE', 'MULLIKEN_CHARGES')
f=open( 'psi4out.xyz', 'w' )
f.write( "24  " )
f.write( str(ee) + "\n" )
f.write( MOL.save_string_xyz() )
f.close()
--------------------------------------------------------------------------

    Molecular point group: c1
  Charge       = 0
  Multiplicity = 1
  Basis Set: CC-PVTZ
  Basis Set:
  @DF-RHF Final Energy:  -349.37907004351575
    Total Energy =                       -349.3790700435156396
    Molecular point group: c1
  Basis Set: CC-PVTZ
  Basis Set:
  Basis Set: CC-PVTZ
  Basis Set:
  @DF-RHF Final Energy:  -349.38048509407281
    Total Energy =                       -349.3804850940725260
  Basis Set: CC-PVTZ
  Basis Set:
  Basis Set: CC-PVTZ
  Basis Set:
  @DF-RHF Final Energy:  -349.38077228397685
    Total Energy =                       -349.3807722839776488
  Basis Set: CC-PVTZ
  Basis Set:
  Basis Set: CC-PVTZ
  Basis Set:
  @DF-RHF Final Energy:  -349.38078042290158
    Total Energy =                       -349.3807804229016938
  Basis Set: CC-PVTZ
  Basis Set:
  Basis Set: CC-PVTZ
  Basis Set:
  @DF-RHF Final Energy:  -349.38078152339745
    Total Energy =                       -349.3807815233975589
  Basis Set: CC-PVTZ
  Basis Set:
  Charge       = 0
  Multiplicity = 1
  Basis Set: CC-PVTZ
  Basis Set:

    Orbital Energies (a.u.)
    -----------------------

    Doubly Occupied:

       1A    -20.546085     2A    -11.265724     3A    -11.210147
       4A    -11.209592     5A    -11.206752     6A    -11.205966
       7A    -11.204519     8A    -11.202618     9A     -1.363959
      10A     -1.086580    11A     -1.047254    12A     -0.985180
      13A     -0.913026    14A     -0.844011    15A     -0.789021
      16A     -0.773476    17A     -0.708028    18A     -0.645033
      19A     -0.634075    20A     -0.610610    21A     -0.588621
      22A     -0.578377    23A     -0.557121    24A     -0.532892
      25A     -0.521097    26A     -0.504209    27A     -0.491860
      28A     -0.479520    29A     -0.466728    30A     -0.455875
      31A     -0.449729    32A     -0.441188    33A     -0.426607

  @DF-RHF Final Energy:  -349.38078156284763

   => Energetics <=

    Nuclear Repulsion Energy =            385.1797008060617031
    One-Electron Energy =               -1237.2299975800874563
    Two-Electron Energy =                 502.6695152111780089
    DFT Exchange-Correlation Energy =       0.0000000000000000
    Empirical Dispersion Energy =           0.0000000000000000
    PCM Polarization Energy =               0.0000000000000000
    EFP Energy =                            0.0000000000000000
    Total Energy =                       -349.3807815628478011
    Molecular point group: c1
  Basis Set: CC-PVTZ
  Basis Set:

  -Total Gradient:
     Atom            X                  Y                   Z
    ------   -----------------  -----------------  -----------------
       1       -0.000055964155     0.000173199888     0.000065348606
       2        0.000102937624    -0.000218112178    -0.000091938635
       3       -0.000214479660     0.000073169623     0.000060508657
       4        0.000000139474     0.000000168860    -0.000006288348
       5        0.000160059165    -0.000027518996    -0.000038264902
       6       -0.000003195299     0.000002480821    -0.000001128651
       7        0.000002575235     0.000000890011     0.000007882513
       8        0.000006684098    -0.000001423025     0.000000866545
       9        0.000003588993    -0.000004363123    -0.000000244321
      10        0.000002570401     0.000001709907     0.000001418748
      11       -0.000003772435    -0.000004079563     0.000003739304
      12       -0.000000691368    -0.000000665773     0.000000103463
      13        0.000001005575     0.000001240967    -0.000001562815
      14        0.000001776958     0.000004431237     0.000001214962
      15        0.000000686183    -0.000001134615    -0.000002563077
      16       -0.000000812747    -0.000000093905     0.000000875995
      17        0.000000582384    -0.000000387747    -0.000000721159
      18       -0.000001441592    -0.000000153471     0.000000866156
      19       -0.000000902170     0.000000142632    -0.000000435408
      20       -0.000001422481     0.000000721813    -0.000000531742
      21        0.000001002067    -0.000001211880     0.000000446690
      22        0.000000598944     0.000000210736    -0.000000159303
      23       -0.000000288245     0.000000161000     0.000000629064
      24       -0.000001236955     0.000000616777    -0.000000062340

  **** Optimization is complete! (in 6 steps) ****
    Final optimized geometry and variables:
    Molecular point group: c1

    Geometry (in Angstrom), charge = 0, multiplicity = 1:

    H           -4.310121667171     0.254807411530    -1.008335786326
    O           -3.418875495430     0.439864876268    -0.777400618574
    C           -3.153892578621    -0.009761642744     0.526200576133
    C           -1.716444515660     0.318304570586     0.880898505792
    H           -3.316341602582    -1.083518045093     0.597522296849
    H           -3.822245710732     0.472822991087     1.234741783265
    C           -0.687358644257    -0.410745895597     0.021550494224
    H           -1.578284862301     1.391442095741     0.790217485433
    H           -1.563172417858     0.068032645846     1.927564896207
    C            0.752012344089    -0.054838985428     0.384092119441
    H           -0.867494040357    -0.178921977462    -1.021820996597
    H           -0.830051788340    -1.483969661893     0.128256446665
    C            1.780782898185    -0.786322841627    -0.475926533652
    H            0.883115299010     1.018324693962     0.286848080447
    H            0.930187083216    -0.290899936827     1.431337875835
    C            3.239658590641    -0.523317547211    -0.098342110211
    H            1.628384404842    -0.521278454036    -1.519637009256
    H            1.595006119179    -1.854726605192    -0.405639149801
    C            3.710622185230     0.910331439906    -0.330856493338
    H            3.869642101848    -1.193382768023    -0.675510667704
    H            3.393289747587    -0.788023344322     0.944671137535
    H            3.562390208157     1.205652528865    -1.364693832076
    H            4.767144379755     1.008799459759    -0.108482269752
    H            3.179757367403     1.618239057120     0.294036800566

  Mulliken Charges: (a.u.)
   Center  Symbol    Alpha    Beta     Spin     Total
       1     H     0.39579  0.39579  0.00000  0.20843
       2     O     4.19871  4.19871  0.00000 -0.39741
       3     C     2.97412  2.97412  0.00000  0.05176
       4     C     3.09143  3.09143  0.00000 -0.18285
       5     H     0.47366  0.47366  0.00000  0.05267
       6     H     0.46535  0.46535  0.00000  0.06930
       7     C     3.08907  3.08907  0.00000 -0.17814
       8     H     0.45241  0.45241  0.00000  0.09518
       9     H     0.45441  0.45441  0.00000  0.09118
      10     C     3.09187  3.09187  0.00000 -0.18374
      11     H     0.44379  0.44379  0.00000  0.11243
      12     H     0.45867  0.45867  0.00000  0.08266
      13     C     3.09421  3.09421  0.00000 -0.18842
      14     H     0.45215  0.45215  0.00000  0.09569
      15     H     0.45698  0.45698  0.00000  0.08605
      16     C     3.09017  3.09017  0.00000 -0.18034
      17     H     0.45362  0.45362  0.00000  0.09276
      18     H     0.45078  0.45078  0.00000  0.09843
      19     C     3.15231  3.15231  0.00000 -0.30462
      20     H     0.44917  0.44917  0.00000  0.10166
      21     H     0.45562  0.45562  0.00000  0.08875
      22     H     0.45474  0.45474  0.00000  0.09051
      23     H     0.44720  0.44720  0.00000  0.10559
      24     H     0.45376  0.45376  0.00000  0.09247

   Total alpha = 33.00000, Total beta = 33.00000, Total charge = -0.00000

*** Psi4 exiting successfully. Buy a developer a beer!
