  ==> Input File <==

--------------------------------------------------------------------------
set {
	reference rhf
	basis 6-31G*
}

set_num_threads( 4 )
memory 2 gb

molecule MOL {
0 1

H	 -2.798360	 -0.862255	 -0.071053
N	 -1.863561	 -0.715187	 0.256814
C	 -1.344686	 0.554728	 -0.219830
H	 -1.300452	 -1.461917	 -0.101532
C	 0.081427	 0.741154	 0.254071
H	 -1.362155	 0.656231	 -1.305829
H	 -1.952773	 1.354456	 0.191809
O	 0.874168	 -0.245412	 -0.342030
H	 0.444037	 1.730782	 -0.023037
H	 0.121165	 0.653424	 1.337565
C	 1.424227	 0.122252	 -1.566705
H	 2.009499	 -0.712666	 -1.927353
H	 0.650801	 0.350916	 -2.297804
H	 2.072239	 0.990537	 -1.466857

	symmetry c1
}
set optking {
	frozen_dihedral = ("
		11 8 5 3
	")
}

ee = optimize('scf')
oeprop('DIPOLE', 'QUADRUPOLE', 'MULLIKEN_CHARGES')
f=open( 'psi4out.xyz', 'w' )
f.write( "14  " )
f.write( str(ee) + "\n" )
f.write( MOL.save_string_xyz() )
f.close()
--------------------------------------------------------------------------

    Molecular point group: c1
  Charge       = 0
  Multiplicity = 1
  Basis Set: 6-31G*
  Basis Set:
  @DF-RHF Final Energy:  -248.12041689570492
    Total Energy =                       -248.1204168957052616
    Molecular point group: c1
  Basis Set: 6-31G*
  Basis Set:
  Basis Set: 6-31G*
  Basis Set:
  @DF-RHF Final Energy:  -248.12157751751036
    Total Energy =                       -248.1215775175102181
  Basis Set: 6-31G*
  Basis Set:
  Basis Set: 6-31G*
  Basis Set:
  @DF-RHF Final Energy:  -248.12186947344333
    Total Energy =                       -248.1218694734434393
  Basis Set: 6-31G*
  Basis Set:
  Basis Set: 6-31G*
  Basis Set:
  @DF-RHF Final Energy:  -248.12187582588282
    Total Energy =                       -248.1218758258826256
  Basis Set: 6-31G*
  Basis Set:
  Charge       = 0
  Multiplicity = 1
  Basis Set: 6-31G*
  Basis Set:

    Orbital Energies (a.u.)
    -----------------------

    Doubly Occupied:

       1A    -20.557192     2A    -15.529873     3A    -11.268215
       4A    -11.266427     5A    -11.242312     6A     -1.379137
       7A     -1.174913     8A     -0.996951     9A     -0.917440
      10A     -0.811510    11A     -0.685432    12A     -0.674266
      13A     -0.642051    14A     -0.619204    15A     -0.599951
      16A     -0.543725    17A     -0.530996    18A     -0.510220
      19A     -0.468210    20A     -0.417328    21A     -0.378646

  @DF-RHF Final Energy:  -248.12187637168751

   => Energetics <=

    Nuclear Repulsion Energy =            195.9209513024334797
    One-Electron Energy =                -725.6576584110727026
    Two-Electron Energy =                 281.6148307369516033
    DFT Exchange-Correlation Energy =       0.0000000000000000
    Empirical Dispersion Energy =           0.0000000000000000
    PCM Polarization Energy =               0.0000000000000000
    EFP Energy =                            0.0000000000000000
    Total Energy =                       -248.1218763716875628
    Molecular point group: c1
  Basis Set: 6-31G*
  Basis Set:

  -Total Gradient:
     Atom            X                  Y                   Z
    ------   -----------------  -----------------  -----------------
       1       -0.000001005473     0.000003888890     0.000008830596
       2       -0.000007399848    -0.000007670123    -0.000008436110
       3       -0.000033674373    -0.000256092350     0.000308159231
       4       -0.000002504230     0.000014002522     0.000006943886
       5        0.000256203476     0.000437190365    -0.000342837234
       6       -0.000011873624     0.000001382806    -0.000005916367
       7       -0.000015938431    -0.000006294181    -0.000001509568
       8       -0.000551248878    -0.000378494903    -0.000195450405
       9        0.000003970978    -0.000013131543    -0.000012963347
      10        0.000007475619    -0.000001346472     0.000009142495
      11        0.000355105593     0.000198032195     0.000249720535
      12       -0.000003161431     0.000005001564     0.000005242857
      13       -0.000000335048     0.000003016740    -0.000014388959
      14        0.000004385668     0.000000514491    -0.000006537609

  **** Optimization is complete! (in 5 steps) ****
    Final optimized geometry and variables:
    Molecular point group: c1

    Geometry (in Angstrom), charge = 0, multiplicity = 1:

    H           -2.648376025987    -0.956507931555     0.278426536344
    N           -1.717929298026    -0.791894870328     0.609558141306
    C           -1.217218813612     0.489406583516     0.146108784896
    H           -1.137653691279    -1.528885575864     0.258441912187
    C            0.230344437171     0.658006555971     0.578231594287
    H           -1.292160553450     0.622396938036    -0.935498069487
    H           -1.806819383590     1.279222512290     0.602455345527
    O            1.064403224962    -0.312294348019     0.000695054045
    H            0.585779835878     1.657327795625     0.334872647517
    H            0.294956871170     0.522888286795     1.649873035819
    C            1.626383381517     0.030985452299    -1.227685948475
    H            2.239977203812    -0.800867138665    -1.545833551936
    H            0.872871648218     0.216995633639    -1.989421284647
    H            2.253559734570     0.915641959721    -1.140512445376

  Mulliken Charges: (a.u.)
   Center  Symbol    Alpha    Beta     Spin     Total
       1     H     0.33265  0.33265  0.00000  0.33469
       2     N     3.92410  3.92410  0.00000 -0.84820
       3     C     3.06931  3.06931  0.00000 -0.13863
       4     H     0.32464  0.32464  0.00000  0.35072
       5     C     2.99884  2.99884  0.00000  0.00232
       6     H     0.43372  0.43372  0.00000  0.13257
       7     H     0.42051  0.42051  0.00000  0.15898
       8     O     4.30883  4.30883  0.00000 -0.61766
       9     H     0.42963  0.42963  0.00000  0.14075
      10     H     0.40642  0.40642  0.00000  0.18715
      11     C     3.08125  3.08125  0.00000 -0.16249
      12     H     0.41172  0.41172  0.00000  0.17657
      13     H     0.43043  0.43043  0.00000  0.13914
      14     H     0.42796  0.42796  0.00000  0.14409

   Total alpha = 21.00000, Total beta = 21.00000, Total charge =  0.00000
