  ==> Input File <==

--------------------------------------------------------------------------
set {
	reference rhf
	basis 6-31G*
}

set_num_threads( 1 )
memory 2 gb

molecule MOL {
0 1

H	 -2.545333	 -0.772121	 -0.226909
O	 -2.322464	 -0.208186	 0.500206
C	 -1.170622	 0.529278	 0.189733
C	 0.074309	 -0.337224	 0.260367
H	 -1.240970	 0.988720	 -0.792267
H	 -1.099637	 1.323100	 0.919978
O	 1.171513	 0.459272	 -0.058250
H	 -0.009842	 -1.171560	 -0.438763
H	 0.170427	 -0.757850	 1.259576
C	 2.397842	 -0.198080	 -0.002151
H	 2.508049	 -0.905315	 -0.822092
H	 3.173794	 0.550865	 -0.078850
H	 2.517602	 -0.735921	 0.936026

	symmetry c1
}
set optking {
	frozen_dihedral = ("
		8 4 3 5,
		1 2 3 5,
		10 7 4 8
	")
}

ee = energy('scf')
oeprop('DIPOLE', 'QUADRUPOLE', 'MULLIKEN_CHARGES')
f=open( 'psi4out.xyz', 'w' )
f.write( "13  " )
f.write( str(ee) + "\n" )
f.write( MOL.save_string_xyz() )
f.close()
--------------------------------------------------------------------------

    Molecular point group: c1

    Geometry (in Angstrom), charge = 0, multiplicity = 1:

       Center              X                  Y                   Z               Mass
    ------------   -----------------  -----------------  -----------------  -----------------
           H         -2.554672082184    -0.804363539250    -0.400566262064     1.007825032070
           O         -2.331803082184    -0.240428539250     0.326548737936    15.994914619560
           C         -1.179961082184     0.497035460750     0.016075737936    12.000000000000
           C          0.064969917816    -0.369466539250     0.086709737936    12.000000000000
           H         -1.250309082184     0.956477460750    -0.965924262064     1.007825032070
           H         -1.108976082184     1.290857460750     0.746320737936     1.007825032070
           O          1.162173917816     0.427029460750    -0.231907262064    15.994914619560
           H         -0.019181082184    -1.203802539250    -0.612420262064     1.007825032070
           H          0.161087917816    -0.790092539250     1.085918737936     1.007825032070
           C          2.388502917816    -0.230322539250    -0.175808262064    12.000000000000
           H          2.498709917816    -0.937557539250    -0.995749262064     1.007825032070
           H          3.164454917816     0.518622460750    -0.252507262064     1.007825032070
           H          2.508262917816    -0.768163539250     0.762368737936     1.007825032070

  Charge       = 0
  Multiplicity = 1
  Basis Set: 6-31G*
  Basis Set:

    Orbital Energies (a.u.)
    -----------------------

    Doubly Occupied:

       1A    -20.562328     2A    -20.560172     3A    -11.270959
       4A    -11.270238     5A    -11.268985     6A     -1.388915
       7A     -1.365234     8A     -1.018572     9A     -0.913376
      10A     -0.842014    11A     -0.709669    12A     -0.673931
      13A     -0.660473    14A     -0.637772    15A     -0.595541
      16A     -0.570080    17A     -0.545002    18A     -0.489890
      19A     -0.481826    20A     -0.438469    21A     -0.421841

  @DF-RHF Final Energy:  -267.95034389359535

   => Energetics <=

    Nuclear Repulsion Energy =            190.2484004452904571
    One-Electron Energy =                -743.0269401951495638
    Two-Electron Energy =                 284.8281958562631644
    DFT Exchange-Correlation Energy =       0.0000000000000000
    Empirical Dispersion Energy =           0.0000000000000000
    PCM Polarization Energy =               0.0000000000000000
    EFP Energy =                            0.0000000000000000
    Total Energy =                       -267.9503438935959139

  Mulliken Charges: (a.u.)
   Center  Symbol    Alpha    Beta     Spin     Total
       1     H     0.28125  0.28125  0.00000  0.43749
       2     O     4.37087  4.37087  0.00000 -0.74174
       3     C     3.00470  3.00470  0.00000 -0.00939
       4     C     2.99674  2.99674  0.00000  0.00651
       5     H     0.42226  0.42226  0.00000  0.15548
       6     H     0.40845  0.40845  0.00000  0.18311
       7     O     4.30757  4.30757  0.00000 -0.61514
       8     H     0.43775  0.43775  0.00000  0.12450
       9     H     0.42295  0.42295  0.00000  0.15409
      10     C     3.07978  3.07978  0.00000 -0.15957
      11     H     0.42823  0.42823  0.00000  0.14355
      12     H     0.41095  0.41095  0.00000  0.17810
      13     H     0.42850  0.42850  0.00000  0.14301

   Total alpha = 21.00000, Total beta = 21.00000, Total charge =  0.00000
