                              Psi4 1.0.54 Driver

  ==> Input File <==

--------------------------------------------------------------------------
set {
	reference rhf
	basis cc-pvtz
}

set_num_threads( 4 )
memory 2 gb

molecule MOL {
0 1

H	 2.649487	 0.012967	 0.948555
O	 1.804584	 -0.408871	 0.992469
C	 1.050374	 0.054877	 0.000135
C	 -0.318151	 -0.570512	 0.000144
O	 1.447090	 0.861630	 -0.767807
C	 -1.454884	 0.441630	 -0.000560
H	 -0.371613	 -1.223646	 -0.864985
H	 -0.371920	 -1.222758	 0.865929
C	 -2.822577	 -0.232186	 0.000063
H	 -1.359760	 1.084704	 -0.867077
H	 -1.359641	 1.085996	 0.864983
H	 -2.954352	 -0.858985	 -0.875745
H	 -3.615886	 0.505352	 0.000019
H	 -2.953878	 -0.858359	 0.876394

	symmetry c1
}
set optking {
	frozen_dihedral = ("
		2 3 4 7
	")
}

ee,wfn = optimize('scf', return_wfn=True)
oeprop( wfn, 'DIPOLE', 'QUADRUPOLE', 'MULLIKEN_CHARGES')
f=open( 'psi4out.xyz', 'w' )
f.write( "14  " )
f.write( str(ee) + "\n" )
f.write( MOL.save_string_xyz() )
f.close()
--------------------------------------------------------------------------

    Molecular point group: c1
  Charge       = 0
  Multiplicity = 1
  Basis Set: CC-PVTZ
  Basis Set:
  @DF-RHF Final Energy:  -305.99891792177777
    Total Energy =                       -305.9989179217777178
    Molecular point group: c1
  Basis Set: CC-PVTZ
  Basis Set:
  Basis Set: CC-PVTZ
  Basis Set:
  @DF-RHF Final Energy:  -305.99945145559286
    Total Energy =                       -305.9994514555926912
  Basis Set: CC-PVTZ
  Basis Set:
  Basis Set: CC-PVTZ
  Basis Set:
  @DF-RHF Final Energy:  -305.99919717471573
    Total Energy =                       -305.9991971747159596
  Basis Set: CC-PVTZ
  Basis Set:
  Basis Set: CC-PVTZ
  Basis Set:
  @DF-RHF Final Energy:  -305.99955072949717
    Total Energy =                       -305.9995507294971731
  Basis Set: CC-PVTZ
  Basis Set:
  Basis Set: CC-PVTZ
  Basis Set:
  @DF-RHF Final Energy:  -305.99956163616832
    Total Energy =                       -305.9995616361682096
  Basis Set: CC-PVTZ
  Basis Set:
  Charge       = 0
  Multiplicity = 1
  Basis Set: CC-PVTZ
  Basis Set:

    Orbital Energies (a.u.)
    -----------------------

    Doubly Occupied:

       1A    -20.606659     2A    -20.538467     3A    -11.373869
       4A    -11.238745     5A    -11.228913     6A    -11.217070
       7A     -1.478612     8A     -1.368782     9A     -1.085228
      10A     -0.980260    11A     -0.857675    12A     -0.801034
      13A     -0.706200    14A     -0.690986    15A     -0.656840
      16A     -0.627671    17A     -0.596542    18A     -0.572979
      19A     -0.550454    20A     -0.512038    21A     -0.495135
      22A     -0.487620    23A     -0.476098    24A     -0.444896

  @DF-RHF Final Energy:  -305.99956236375283

   => Energetics <=

    Nuclear Repulsion Energy =            240.4596165486761095
    One-Electron Energy =                -893.7328082059711960
    Two-Electron Energy =                 347.2736292935422853
    DFT Exchange-Correlation Energy =       0.0000000000000000
    Empirical Dispersion Energy =           0.0000000000000000
    PCM Polarization Energy =               0.0000000000000000
    EFP Energy =                            0.0000000000000000
    Total Energy =                       -305.9995623637528297
    Molecular point group: c1
  Basis Set: CC-PVTZ
  Basis Set:

  -Total Gradient:
     Atom            X                  Y                   Z
    ------   -----------------  -----------------  -----------------
       1        0.000018534122     0.000017814160    -0.000013830559
       2       -0.000269942291     0.000316144962     0.000403718923
       3        0.000256079473    -0.000371172089    -0.000564727046
       4        0.000305958689    -0.000424740407     0.000504594163
       5       -0.000031008875     0.000026093245    -0.000059766570
       6        0.000024372956    -0.000020682660     0.000044408617
       7       -0.000266644088     0.000494437334    -0.000325941411
       8       -0.000017835355    -0.000085140146     0.000055743646
       9        0.000017450596    -0.000008790493    -0.000025458602
      10       -0.000006053723     0.000052493949    -0.000044370896
      11        0.000000963469     0.000013186763     0.000013011755
      12       -0.000001477396    -0.000017852326    -0.000018965131
      13       -0.000028866570     0.000033136247    -0.000006541108
      14       -0.000001531002    -0.000024928538     0.000038124222

  **** Optimization is complete! (in 6 steps) ****
    Final optimized geometry and variables:
    Molecular point group: c1

    Geometry (in Angstrom), charge = 0, multiplicity = 1:

    H            2.720994647275     0.077926099372     0.755025461565
    O            1.904595339399    -0.390050574221     0.850975253807
    C            1.052507600226     0.065190200235    -0.060342998769
    C           -0.283622126551    -0.629935430406    -0.018080683140
    O            1.342872385828     0.925689209626    -0.818829149556
    C           -1.447890274616     0.361048486866     0.005972196462
    H           -0.342264544388    -1.234704883733    -0.917489908505
    H           -0.318189448670    -1.297094885290     0.831698573118
    C           -2.800106501827    -0.341513586017    -0.023472123900
    H           -1.356205982555     1.030042210351    -0.839680010592
    H           -1.376639850768     0.975389321587     0.898090149086
    H           -2.911829329034    -0.937495273818    -0.923016331631
    H           -3.609142074486     0.378603452197    -0.001299526764
    H           -2.921210592426    -1.001913900093     0.828635574622

  Mulliken Charges: (a.u.)
   Center  Symbol    Alpha    Beta     Spin     Total
       1     H     0.38059  0.38059  0.00000  0.23883
       2     O     4.15751  4.15751  0.00000 -0.31502
       3     C     2.80907  2.80907  0.00000  0.38185
       4     C     3.09161  3.09161  0.00000 -0.18322
       5     O     4.19779  4.19779  0.00000 -0.39558
       6     C     3.08753  3.08753  0.00000 -0.17505
       7     H     0.44387  0.44387  0.00000  0.11226
       8     H     0.43783  0.43783  0.00000  0.12434
       9     C     3.14988  3.14988  0.00000 -0.29976
      10     H     0.43925  0.43925  0.00000  0.12150
      11     H     0.45084  0.45084  0.00000  0.09833
      12     H     0.45385  0.45385  0.00000  0.09231
      13     H     0.44548  0.44548  0.00000  0.10903
      14     H     0.45491  0.45491  0.00000  0.09017

   Total alpha = 24.00000, Total beta = 24.00000, Total charge = -0.00000

*** Psi4 exiting successfully. Buy a developer a beer!
