  ==> Input File <==

--------------------------------------------------------------------------
set {
	reference rhf
	basis 6-31G*
}

set_num_threads( 4 )
memory 2 gb

molecule MOL {
0 1

H	 2.365902	 -0.207477	 0.313151
O	 1.499460	 -0.065305	 0.666115
C	 0.702312	 0.627605	 -0.264544
C	 -0.714990	 0.596302	 0.266387
H	 0.736288	 0.142532	 -1.236349
H	 1.039400	 1.655764	 -0.377608
O	 -1.405996	 -0.526611	 -0.195820
H	 -1.257453	 1.468809	 -0.075599
H	 -0.688972	 0.618407	 1.353696
H	 -0.890587	 -1.292708	 0.022039

	symmetry c1
}
set optking {
	frozen_dihedral = ("
		5 3 4 7
	")
}

ee = optimize('scf')
oeprop('DIPOLE', 'QUADRUPOLE', 'MULLIKEN_CHARGES')
f=open( 'psi4out.xyz', 'w' )
f.write( "10  " )
f.write( str(ee) + "\n" )
f.write( MOL.save_string_xyz() )
f.close()
--------------------------------------------------------------------------

    Molecular point group: c1
  Charge       = 0
  Multiplicity = 1
  Basis Set: 6-31G*
  Basis Set:
  @DF-RHF Final Energy:  -228.92036688754527
    Total Energy =                       -228.9203668875452991
    Molecular point group: c1
  Basis Set: 6-31G*
  Basis Set:
  Basis Set: 6-31G*
  Basis Set:
  @DF-RHF Final Energy:  -228.92119639150246
    Total Energy =                       -228.9211963915024626
  Basis Set: 6-31G*
  Basis Set:
  Basis Set: 6-31G*
  Basis Set:
  @DF-RHF Final Energy:  -228.92137589950400
    Total Energy =                       -228.9213758995041985
  Basis Set: 6-31G*
  Basis Set:
  Basis Set: 6-31G*
  Basis Set:
  @DF-RHF Final Energy:  -228.92137975957377
    Total Energy =                       -228.9213797595737390
  Basis Set: 6-31G*
  Basis Set:
  Charge       = 0
  Multiplicity = 1
  Basis Set: 6-31G*
  Basis Set:

    Orbital Energies (a.u.)
    -----------------------

    Doubly Occupied:

       1A    -20.562645     2A    -20.553765     3A    -11.273128
       4A    -11.268405     5A     -1.374753     6A     -1.354129
       7A     -0.999516     8A     -0.843694     9A     -0.725608
      10A     -0.674961    11A     -0.647456    12A     -0.605583
      13A     -0.572400    14A     -0.524823    15A     -0.490350
      16A     -0.453230    17A     -0.433274

  @DF-RHF Final Energy:  -228.92138020005839

   => Energetics <=

    Nuclear Repulsion Energy =            132.8810507735889530
    One-Electron Energy =                -576.8894239446169649
    Two-Electron Energy =                 215.0869929709696464
    DFT Exchange-Correlation Energy =       0.0000000000000000
    Empirical Dispersion Energy =           0.0000000000000000
    PCM Polarization Energy =               0.0000000000000000
    EFP Energy =                            0.0000000000000000
    Total Energy =                       -228.9213802000583371
    Molecular point group: c1
  Basis Set: 6-31G*
  Basis Set:

  -Total Gradient:
     Atom            X                  Y                   Z
    ------   -----------------  -----------------  -----------------
       1       -0.000010363239     0.000006582601    -0.000008249307
       2       -0.000056710216     0.000046669847    -0.000032967254
       3       -0.002139585362     0.008348590557    -0.005062842738
       4        0.002557361971    -0.005301115738     0.006444737502
       5        0.001313008155    -0.006018251102     0.002936324430
       6        0.000003437489     0.000017889106    -0.000005274903
       7       -0.001670656629     0.002863577263    -0.004280096186
       8        0.000010401540    -0.000004683272     0.000008480036
       9       -0.000001341747    -0.000001192871     0.000006459668
      10       -0.000005551959     0.000041933609    -0.000006571248

  **** Optimization is complete! (in 5 steps) ****
    Final optimized geometry and variables:
    Molecular point group: c1

    Geometry (in Angstrom), charge = 0, multiplicity = 1:

    H            2.344814250413    -0.289677717266     0.186837762197
    O            1.466330931265    -0.210163915534     0.530650303345
    C            0.666301012449     0.534416377883    -0.362989785714
    C           -0.762428318486     0.467850643904     0.148229890532
    H            0.703819954890     0.068869102728    -1.343136319563
    H            1.012508962509     1.562706026889    -0.425144066167
    O           -1.453017394257    -0.651013520466    -0.336302246895
    H           -1.317580244525     1.327228261943    -0.206427705064
    H           -0.751604516814     0.497622741937     1.233484711621
    H           -1.058682535386    -1.433059289580     0.027050206260

  Mulliken Charges: (a.u.)
   Center  Symbol    Alpha    Beta     Spin     Total
       1     H     0.27927  0.27927  0.00000  0.44147
       2     O     4.37621  4.37621  0.00000 -0.75241
       3     C     3.01529  3.01529  0.00000 -0.03058
       4     C     3.00104  3.00104  0.00000 -0.00208
       5     H     0.41947  0.41947  0.00000  0.16106
       6     H     0.42734  0.42734  0.00000  0.14531
       7     O     4.37001  4.37001  0.00000 -0.74001
       8     H     0.41623  0.41623  0.00000  0.16754
       9     H     0.41685  0.41685  0.00000  0.16631
      10     H     0.27831  0.27831  0.00000  0.44339

   Total alpha = 17.00000, Total beta = 17.00000, Total charge =  0.00000
