                              Psi4 1.0.54 Driver

  ==> Input File <==

--------------------------------------------------------------------------
set {
	reference rhf
	basis cc-pvtz
}

set_num_threads( 4 )
memory 2 gb

molecule MOL {
0 1

H	 3.285259	 -0.477806	 0.025692
C	 2.229369	 -0.285389	 0.019596
C	 1.721220	 0.744432	 -0.757955
C	 1.385342	 -1.064173	 0.785514
H	 2.383513	 1.345303	 -1.350505
C	 0.367301	 0.994617	 -0.768629
H	 1.781236	 -1.859964	 1.385897
C	 0.025825	 -0.811696	 0.773756
H	 -0.044375	 1.785811	 -1.362927
C	 -0.486398	 0.214248	 0.000000
H	 -0.636805	 -1.413885	 1.367444
C	 -1.946525	 0.470130	 0.000000
O	 -2.779618	 -0.371226	 0.000000
H	 -2.227127	 1.528393	 0.000000

	symmetry c1
}
set optking {
	frozen_dihedral = ("
		8 10 12 14
	")
}

ee,wfn = optimize('scf', return_wfn=True)
oeprop( wfn, 'DIPOLE', 'QUADRUPOLE', 'MULLIKEN_CHARGES')
f=open( 'psi4out.xyz', 'w' )
f.write( "14  " )
f.write( str(ee) + "\n" )
f.write( MOL.save_string_xyz() )
f.close()
--------------------------------------------------------------------------

    Molecular point group: c1
  Charge       = 0
  Multiplicity = 1
  Basis Set: CC-PVTZ
  Basis Set:
  @DF-RHF Final Energy:  -343.54471473762874
    Total Energy =                       -343.5447147376287376
    Molecular point group: c1
  Basis Set: CC-PVTZ
  Basis Set:
  Basis Set: CC-PVTZ
  Basis Set:
  @DF-RHF Final Energy:  -343.54225778457152
    Total Energy =                       -343.5422577845715182
  Basis Set: CC-PVTZ
  Basis Set:
  Basis Set: CC-PVTZ
  Basis Set:
  @DF-RHF Final Energy:  -343.54508246845950
    Total Energy =                       -343.5450824684596114
  Basis Set: CC-PVTZ
  Basis Set:
  Basis Set: CC-PVTZ
  Basis Set:
  @DF-RHF Final Energy:  -343.54553681848432
    Total Energy =                       -343.5455368184840950
  Basis Set: CC-PVTZ
  Basis Set:
  Basis Set: CC-PVTZ
  Basis Set:
  @DF-RHF Final Energy:  -343.54554902656935
    Total Energy =                       -343.5455490265694038
  Basis Set: CC-PVTZ
  Basis Set:
  Basis Set: CC-PVTZ
  Basis Set:
  @DF-RHF Final Energy:  -343.54554592549380
    Total Energy =                       -343.5455459254934567
  Basis Set: CC-PVTZ
  Basis Set:
  Basis Set: CC-PVTZ
  Basis Set:
  @DF-RHF Final Energy:  -343.54555056618966
    Total Energy =                       -343.5455505661894904
  Basis Set: CC-PVTZ
  Basis Set:
  Charge       = 0
  Multiplicity = 1
  Basis Set: CC-PVTZ
  Basis Set:

    Orbital Energies (a.u.)
    -----------------------

    Doubly Occupied:

       1A    -20.556264     2A    -11.328791     3A    -11.250572
       4A    -11.247748     5A    -11.247427     6A    -11.246000
       7A    -11.243507     8A    -11.242014     9A     -1.411476
      10A     -1.176444    11A     -1.050968    12A     -1.035351
      13A     -0.891903    14A     -0.847342    15A     -0.795670
      16A     -0.725673    17A     -0.681865    18A     -0.657193
      19A     -0.630919    20A     -0.622089    21A     -0.605888
      22A     -0.553127    23A     -0.530796    24A     -0.511481
      25A     -0.508426    26A     -0.426240    27A     -0.354210
      28A     -0.352449

  @DF-RHF Final Energy:  -343.54555094807517

   => Energetics <=

    Nuclear Repulsion Energy =            323.6918665391784771
    One-Electron Energy =               -1107.0111682664037289
    Two-Electron Energy =                 439.7737507791500775
    DFT Exchange-Correlation Energy =       0.0000000000000000
    Empirical Dispersion Energy =           0.0000000000000000
    PCM Polarization Energy =               0.0000000000000000
    EFP Energy =                            0.0000000000000000
    Total Energy =                       -343.5455509480751743
    Molecular point group: c1
  Basis Set: CC-PVTZ
  Basis Set:

  -Total Gradient:
     Atom            X                  Y                   Z
    ------   -----------------  -----------------  -----------------
       1        0.000002537122     0.000009577763    -0.000002559546
       2       -0.000008694913    -0.000057344366     0.000043094598
       3       -0.000047770375     0.000040812415    -0.000037474255
       4        0.000069949352     0.000035465476    -0.000039575533
       5        0.000006611094    -0.000005319303     0.000000234873
       6        0.000046610935     0.000007705335     0.000040912662
       7       -0.000006717009    -0.000002452178     0.000004447792
       8        0.000802375904     0.003521073330     0.003825447945
       9        0.000008188134     0.000015511898    -0.000009638185
      10       -0.001090158123    -0.005143372092    -0.003620403522
      11       -0.000004812709     0.000003629513    -0.000005787419
      12        0.000165137814     0.001407243329    -0.006584702994
      13       -0.000180874928    -0.000182505833     0.000054474361
      14        0.000237617701     0.000349974710     0.006331529223

  **** Optimization is complete! (in 7 steps) ****
    Final optimized geometry and variables:
    Molecular point group: c1

    Geometry (in Angstrom), charge = 0, multiplicity = 1:

    H            3.292246787607    -0.470540506655    -0.014374816154
    C            2.236129502126    -0.279777566864    -0.022306382133
    C            1.725649280945     0.734016956423    -0.810732298441
    C            1.391710838971    -1.042578414991     0.765825693516
    H            2.381902736730     1.329277002041    -1.415558947236
    C            0.367869200955     0.988459243252    -0.804446936067
    H            1.793568778126    -1.818190836118     1.388674724916
    C            0.032927966604    -0.804366986558     0.752609941613
    H           -0.029654114201     1.792401924669    -1.396405154070
    C           -0.484472036637     0.202351251576    -0.047702496576
    H           -0.633546503644    -1.393498570617     1.351206731183
    C           -1.938888725012     0.511902926992    -0.008274018761
    O           -2.789859399310    -0.296654374512     0.139820704951
    H           -2.188190039366     1.577466067427    -0.048588078490

  Mulliken Charges: (a.u.)
   Center  Symbol    Alpha    Beta     Spin     Total
       1     H     0.41998  0.41998  0.00000  0.16004
       2     C     3.07487  3.07487  0.00000 -0.14974
       3     C     3.06988  3.06988  0.00000 -0.13976
       4     C     3.06871  3.06871  0.00000 -0.13741
       5     H     0.42060  0.42060  0.00000  0.15881
       6     C     3.09290  3.09290  0.00000 -0.18581
       7     H     0.42008  0.42008  0.00000  0.15983
       8     C     3.08928  3.08928  0.00000 -0.17856
       9     H     0.42345  0.42345  0.00000  0.15310
      10     C     2.96310  2.96310  0.00000  0.07380
      11     H     0.41134  0.41134  0.00000  0.17733
      12     C     2.91903  2.91903  0.00000  0.16194
      13     O     4.16832  4.16832  0.00000 -0.33665
      14     H     0.45846  0.45846  0.00000  0.08309

   Total alpha = 28.00000, Total beta = 28.00000, Total charge =  0.00000

*** Psi4 exiting successfully. Buy a developer a beer!
