                              Psi4 1.0.54 Driver

  ==> Input File <==

--------------------------------------------------------------------------
set {
	reference rhf
	basis cc-pvtz
}

set_num_threads( 4 )
memory 2 gb

molecule MOL {
0 1

O	 -2.817697	 1.304178	 0.001046
C	 -2.664672	 0.129869	 0.003507
C	 -3.797908	 -0.860100	 -0.001145
O	 -1.481217	 -0.452708	 0.001092
H	 -4.408836	 -0.679689	 -0.875387
H	 -3.443486	 -1.878443	 -0.002770
H	 -4.412123	 -0.683688	 0.871605
C	 -0.332055	 0.384012	 -0.000250
C	 0.892252	 -0.506059	 -0.000295
H	 -0.360822	 1.020205	 -0.874146
H	 -0.359817	 1.021310	 0.872861
C	 2.188199	 0.299473	 -0.001416
H	 0.857046	 -1.152781	 -0.871031
H	 0.857910	 -1.151798	 0.871202
C	 3.357716	 -0.450677	 -0.632787
H	 2.033733	 1.234055	 -0.534965
H	 2.447260	 0.570837	 1.018987
C	 4.653223	 0.353480	 -0.633037
H	 3.100717	 -0.720857	 -1.653086
H	 3.513130	 -1.384721	 -0.100344
H	 4.539502	 1.278735	 -1.187850
H	 5.462218	 -0.206670	 -1.087201
H	 4.954934	 0.610007	 0.376922

	symmetry c1
}
set optking {
	frozen_dihedral = ("
		16 12 9 13
	")
}

ee,wfn = optimize('scf', return_wfn=True)
oeprop( wfn, 'DIPOLE', 'QUADRUPOLE', 'MULLIKEN_CHARGES')
f=open( 'psi4out.xyz', 'w' )
f.write( "23  " )
f.write( str(ee) + "\n" )
f.write( MOL.save_string_xyz() )
f.close()
--------------------------------------------------------------------------

    Molecular point group: c1
  Charge       = 0
  Multiplicity = 1
  Basis Set: CC-PVTZ
  Basis Set:
  @DF-RHF Final Energy:  -423.13272296019750
    Total Energy =                       -423.1327229601981799
    Molecular point group: c1
  Basis Set: CC-PVTZ
  Basis Set:
  Basis Set: CC-PVTZ
  Basis Set:
  @DF-RHF Final Energy:  -423.13270203875459
    Total Energy =                       -423.1327020387545872
  Basis Set: CC-PVTZ
  Basis Set:
  Basis Set: CC-PVTZ
  Basis Set:
  @DF-RHF Final Energy:  -423.13209261734755
    Total Energy =                       -423.1320926173469843
  Basis Set: CC-PVTZ
  Basis Set:
  Basis Set: CC-PVTZ
  Basis Set:
  @DF-RHF Final Energy:  -423.13296902123329
    Total Energy =                       -423.1329690212331798
  Basis Set: CC-PVTZ
  Basis Set:
  Basis Set: CC-PVTZ
  Basis Set:
  @DF-RHF Final Energy:  -423.13298241932785
    Total Energy =                       -423.1329824193275044
  Basis Set: CC-PVTZ
  Basis Set:
  Basis Set: CC-PVTZ
  Basis Set:
  @DF-RHF Final Energy:  -423.13299062498709
    Total Energy =                       -423.1329906249872010
  Basis Set: CC-PVTZ
  Basis Set:
  Charge       = 0
  Multiplicity = 1
  Basis Set: CC-PVTZ
  Basis Set:

    Orbital Energies (a.u.)
    -----------------------

    Doubly Occupied:

       1A    -20.596065     2A    -20.529648     3A    -11.366536
       4A    -11.279925     5A    -11.230745     6A    -11.222079
       7A    -11.221253     8A    -11.219815     9A    -11.210889
      10A     -1.471360    11A     -1.364158    12A     -1.094597
      13A     -1.043454    14A     -1.004192    15A     -0.931664
      16A     -0.843116    17A     -0.803474    18A     -0.776978
      19A     -0.693596    20A     -0.688408    21A     -0.672499
      22A     -0.644698    23A     -0.608626    24A     -0.588925
      25A     -0.584019    26A     -0.568198    27A     -0.559582
      28A     -0.538251    29A     -0.524679    30A     -0.505317
      31A     -0.492165    32A     -0.478603    33A     -0.468807
      34A     -0.467208    35A     -0.454972    36A     -0.439011

  @DF-RHF Final Energy:  -423.13299115740881

   => Energetics <=

    Nuclear Repulsion Energy =            450.5160621731461106
    One-Electron Energy =               -1468.9230865897575313
    Two-Electron Energy =                 595.2740332592022696
    DFT Exchange-Correlation Energy =       0.0000000000000000
    Empirical Dispersion Energy =           0.0000000000000000
    PCM Polarization Energy =               0.0000000000000000
    EFP Energy =                            0.0000000000000000
    Total Energy =                       -423.1329911574091511
    Molecular point group: c1
  Basis Set: CC-PVTZ
  Basis Set:

  -Total Gradient:
     Atom            X                  Y                   Z
    ------   -----------------  -----------------  -----------------
       1       -0.000001782805     0.000026170826    -0.000000167431
       2        0.000042412955    -0.000064546390    -0.000003874593
       3       -0.000001232737     0.000011157697     0.000006261219
       4       -0.000047240784     0.000019986890    -0.000002411383
       5        0.000002984779    -0.000001955066     0.000002178232
       6       -0.000002236536     0.000000055636    -0.000000639897
       7       -0.000002470643    -0.000000418624    -0.000002947362
       8        0.000034417742     0.000036935573     0.000005657371
       9       -0.002263392755     0.003677428221    -0.001627611797
      10       -0.000010444367    -0.000007381533     0.000005704773
      11       -0.000011632957    -0.000009875326    -0.000007684308
      12        0.001682870854    -0.002593092198    -0.003354205167
      13        0.001602327418    -0.002646254322     0.001888363050
      14        0.000008918649     0.000004891666     0.000000740848
      15        0.000012411894    -0.000017853669     0.000030716155
      16       -0.001053705008     0.001568806329     0.003079415333
      17        0.000007757741    -0.000001767179    -0.000006350319
      18       -0.000002610239     0.000007050188    -0.000016336236
      19        0.000021636880     0.000010971774     0.000029385097
      20        0.000009173655     0.000008993229    -0.000015381357
      21       -0.000005113561    -0.000016605323     0.000017666556
      22       -0.000004902159     0.000002073658    -0.000003463373
      23       -0.000018148024    -0.000014772055    -0.000025015412

  **** Optimization is complete! (in 7 steps) ****
    Final optimized geometry and variables:
    Molecular point group: c1

    Geometry (in Angstrom), charge = 0, multiplicity = 1:

    O           -2.810121680464     1.272297022999     0.155043160828
    C           -2.654749011325     0.098310693118     0.166919833643
    C           -3.785286061201    -0.893486660579     0.220030929096
    O           -1.470577258930    -0.481873755813     0.135243661372
    H           -4.428654530871    -0.727670883156    -0.633636521163
    H           -3.428941748105    -1.911192599278     0.221083321605
    H           -4.366994853690    -0.704387811475     1.112260880750
    C           -0.324802992216     0.356792979005     0.083136182291
    C            0.901805207657    -0.527374527897     0.052137627031
    H           -0.384445868546     0.981617346619    -0.797273142769
    H           -0.322634933820     1.006085669049     0.948348351400
    C            2.202104560048     0.280853394100     0.078709619241
    H            0.872646589375    -1.169414136631    -0.822189011142
    H            0.871641820340    -1.196137223444     0.906256139170
    C            3.397028447268    -0.470490438587    -0.497988703118
    H            2.065068957267     1.222792248348    -0.447372132454
    H            2.420598097018     0.561576231541     1.105839031206
    C            4.700836237795     0.313665009354    -0.401450025976
    H            3.197651043855    -0.713816626113    -1.537617359766
    H            3.506521973714    -1.419068529620     0.020804231907
    H            4.630299672922     1.256546707462    -0.933412762057
    H            5.526397091541    -0.244899881798    -0.826910652070
    H            4.948803831177     0.535708209760     0.630999493927

  Mulliken Charges: (a.u.)
   Center  Symbol    Alpha    Beta     Spin     Total
       1     O     4.20240  4.20240  0.00000 -0.40481
       2     C     2.81485  2.81485  0.00000  0.37031
       3     C     3.13990  3.13990  0.00000 -0.27981
       4     O     4.14518  4.14518  0.00000 -0.29036
       5     H     0.44212  0.44212  0.00000  0.11576
       6     H     0.44182  0.44182  0.00000  0.11637
       7     H     0.44212  0.44212  0.00000  0.11577
       8     C     2.97814  2.97814  0.00000  0.04372
       9     C     3.08257  3.08257  0.00000 -0.16515
      10     H     0.45391  0.45391  0.00000  0.09217
      11     H     0.45358  0.45358  0.00000  0.09284
      12     C     3.09899  3.09899  0.00000 -0.19797
      13     H     0.45153  0.45153  0.00000  0.09695
      14     H     0.45014  0.45014  0.00000  0.09971
      15     C     3.08447  3.08447  0.00000 -0.16894
      16     H     0.45374  0.45374  0.00000  0.09251
      17     H     0.45196  0.45196  0.00000  0.09608
      18     C     3.14952  3.14952  0.00000 -0.29904
      19     H     0.45341  0.45341  0.00000  0.09319
      20     H     0.45304  0.45304  0.00000  0.09392
      21     H     0.45436  0.45436  0.00000  0.09128
      22     H     0.44773  0.44773  0.00000  0.10453
      23     H     0.45452  0.45452  0.00000  0.09096

   Total alpha = 36.00000, Total beta = 36.00000, Total charge =  0.00000

*** Psi4 exiting successfully. Buy a developer a beer!
