  ==> Input File <==

--------------------------------------------------------------------------
set {
	reference rhf
	basis 6-31G*
}

set_num_threads( 4 )
memory 2 gb

molecule MOL {
0 1

O	 3.225979	 0.970355	 -0.599647
C	 2.701189	 0.057885	 -0.047330
C	 1.245376	 -0.013843	 0.345420
O	 3.347903	 -1.046386	 0.304773
C	 0.455112	 1.231400	 -0.050772
H	 0.838542	 -0.913825	 -0.103701
H	 1.208210	 -0.175333	 1.419774
C	 -0.998893	 1.219485	 0.433193
H	 0.482531	 1.345121	 -1.130325
H	 0.957290	 2.103070	 0.354729
C	 -2.048319	 1.365158	 -0.672518
H	 -1.124856	 2.035248	 1.141280
H	 -1.187600	 0.303829	 0.991739
C	 -3.475726	 1.458150	 -0.129508
H	 -1.828259	 2.255618	 -1.259436
H	 -1.988139	 0.523982	 -1.359375
C	 -4.533318	 1.598722	 -1.225806
H	 -3.547915	 2.306364	 0.549136
H	 -3.692692	 0.572974	 0.466386
C	 -5.955671	 1.694809	 -0.675005
H	 -4.317441	 2.482224	 -1.822852
H	 -4.465612	 0.749579	 -1.902675
H	 -6.682162	 1.793503	 -1.475677
H	 -6.065486	 2.555270	 -0.020985
H	 -6.214473	 0.809517	 -0.100936
C	 4.728119	 -1.109107	 -0.004993
H	 4.882018	 -1.033965	 -1.071845
H	 5.068212	 -2.067527	 0.355250
H	 5.265056	 -0.311663	 0.488280

	symmetry c1
}
set optking {
	frozen_dihedral = ("
		11 8 5 9
	")
}

ee = optimize('scf')
oeprop('DIPOLE', 'QUADRUPOLE', 'MULLIKEN_CHARGES')
f=open( 'psi4out.xyz', 'w' )
f.write( "29  " )
f.write( str(ee) + "\n" )
f.write( MOL.save_string_xyz() )
f.close()
--------------------------------------------------------------------------

    Molecular point group: c1
  Charge       = 0
  Multiplicity = 1
  Basis Set: 6-31G*
  Basis Set:
  @DF-RHF Final Energy:  -501.03957531195374
    Total Energy =                       -501.0395753119541951
    Molecular point group: c1
  Basis Set: 6-31G*
  Basis Set:
  Basis Set: 6-31G*
  Basis Set:
  @DF-RHF Final Energy:  -501.04014109593413
    Total Energy =                       -501.0401410959341320
  Basis Set: 6-31G*
  Basis Set:
  Basis Set: 6-31G*
  Basis Set:
  @DF-RHF Final Energy:  -501.04018901735719
    Total Energy =                       -501.0401890173574202
  Basis Set: 6-31G*
  Basis Set:
  Basis Set: 6-31G*
  Basis Set:
  @DF-RHF Final Energy:  -501.04018368870504
    Total Energy =                       -501.0401836887051559
  Basis Set: 6-31G*
  Basis Set:
  Basis Set: 6-31G*
  Basis Set:
  @DF-RHF Final Energy:  -501.04015492713040
    Total Energy =                       -501.0401549271300610
  Basis Set: 6-31G*
  Basis Set:
  Basis Set: 6-31G*
  Basis Set:
  @DF-RHF Final Energy:  -501.04021804174022
    Total Energy =                       -501.0402180417399904
  Basis Set: 6-31G*
  Basis Set:
  Charge       = 0
  Multiplicity = 1
  Basis Set: 6-31G*
  Basis Set:

    Orbital Energies (a.u.)
    -----------------------

    Doubly Occupied:

       1A    -20.603457     2A    -20.545362     3A    -11.371865
       4A    -11.280726     5A    -11.235648     6A    -11.218525
       7A    -11.217089     8A    -11.214984     9A    -11.214877
      10A    -11.213279    11A    -11.208364    12A     -1.469124
      13A     -1.362593    14A     -1.095872    15A     -1.066697
      16A     -1.019684    17A     -0.977159    18A     -0.926479
      19A     -0.856713    20A     -0.801595    21A     -0.790383
      22A     -0.766962    23A     -0.699405    24A     -0.682351
      25A     -0.672176    26A     -0.651007    27A     -0.628273
      28A     -0.599985    29A     -0.595822    30A     -0.582527
      31A     -0.565381    32A     -0.547411    33A     -0.530906
      34A     -0.529553    35A     -0.514685    36A     -0.507426
      37A     -0.498185    38A     -0.478243    39A     -0.468366
      40A     -0.462199    41A     -0.460058    42A     -0.455927
      43A     -0.442779    44A     -0.431199

  @DF-RHF Final Energy:  -501.04021822432026

   => Energetics <=

    Nuclear Repulsion Energy =            604.1531235437315672
    One-Electron Energy =               -1879.4640853973833146
    Two-Electron Energy =                 774.2707436293313776
    DFT Exchange-Correlation Energy =       0.0000000000000000
    Empirical Dispersion Energy =           0.0000000000000000
    PCM Polarization Energy =               0.0000000000000000
    EFP Energy =                            0.0000000000000000
    Total Energy =                       -501.0402182243204834
    Molecular point group: c1
  Basis Set: 6-31G*
  Basis Set:

  -Total Gradient:
     Atom            X                  Y                   Z
    ------   -----------------  -----------------  -----------------
       1        0.000015613356     0.000053536094     0.000062947615
       2       -0.000063251429    -0.000085691059    -0.000202642674
       3        0.000003029627    -0.000003255396     0.000015674055
       4       -0.000006836481    -0.000001187900     0.000044983586
       5        0.000029227105    -0.000791989618     0.000122321485
       6        0.000031115924    -0.000000095472     0.000035348647
       7        0.000013259638     0.000033571363     0.000023148437
       8       -0.000011850865     0.000697089439    -0.000081717490
       9        0.000002592467     0.000547573924    -0.000000888623
      10       -0.000011010872    -0.000038366172    -0.000003964615
      11       -0.000012498567    -0.000444569157    -0.000020676885
      12        0.000036010265     0.000026020138    -0.000000362215
      13       -0.000012483251    -0.000008909827    -0.000022247353
      14       -0.000000519295    -0.000028119023     0.000011505596
      15       -0.000013443425     0.000008570226     0.000014926668
      16       -0.000010934111     0.000002448461    -0.000004614033
      17        0.000012978881     0.000030483923    -0.000001672389
      18        0.000007056355    -0.000006308168     0.000001519579
      19       -0.000005333755    -0.000005532361    -0.000001319748
      20        0.000002778702    -0.000005339929     0.000005767556
      21       -0.000001750594     0.000007962973    -0.000009150328
      22        0.000000984505     0.000003520207     0.000006052106
      23        0.000002786085    -0.000004220975    -0.000001004069
      24       -0.000000122679     0.000000475578    -0.000004754495
      25        0.000000006019     0.000000756165     0.000004343423
      26       -0.000003094167     0.000012532396     0.000003760768
      27       -0.000002846382     0.000000737479     0.000001077534
      28       -0.000004653193     0.000000034304     0.000002977031
      29        0.000003190141    -0.000001727611    -0.000001339166

  **** Optimization is complete! (in 7 steps) ****
    Final optimized geometry and variables:
    Molecular point group: c1

    Geometry (in Angstrom), charge = 0, multiplicity = 1:

    O            3.272332916190     0.242407149470    -0.497730715576
    C            2.749984551327    -0.608963172815     0.146956391640
    C            1.324312800181    -0.586042816355     0.641727418725
    O            3.372376584492    -1.718377634711     0.525304127105
    C            0.559170528470     0.669580102758     0.232029090596
    H            0.835956522256    -1.482403605043     0.268908193111
    H            1.353356563797    -0.693316235176     1.722619277413
    C           -0.903829091759     0.667884633482     0.729523893773
    H            0.586556432820     0.759904497024    -0.848597017828
    H            1.086263179768     1.538618385133     0.608650872420
    C           -1.930221299718     0.791247995344    -0.399412990224
    H           -1.053319064304     1.480824456558     1.434889191033
    H           -1.107225841895    -0.245327731815     1.285120254740
    C           -3.376967050570     0.787026461653     0.095343063153
    H           -1.741363103363     1.707447304274    -0.955975807573
    H           -1.786656899843    -0.026715836282    -1.103897061516
    C           -4.403116034529     0.914989817024    -1.032068775085
    H           -3.517983357320     1.602960476082     0.802476886757
    H           -3.566103962163    -0.131104940182     0.649616172028
    C           -5.846525721315     0.909671289103    -0.529865646458
    H           -4.217179024122     1.833053417627    -1.585336877897
    H           -4.264444474521     0.099863920597    -1.739178642912
    H           -6.549805816314     1.000859657541    -1.351884692010
    H           -6.027114520863     1.735207179321     0.152872271350
    H           -6.074213907685    -0.011374010935    -0.000560590599
    C            4.722867995761    -1.865618983047     0.126034726382
    H            4.802965415116    -1.864234858268    -0.951512196778
    H            5.046394643585    -2.814874813342     0.523805136814
    H            5.327516202786    -1.065461624377     0.528125116916

  Mulliken Charges: (a.u.)
   Center  Symbol    Alpha    Beta     Spin     Total
       1     O     4.28601  4.28601  0.00000 -0.57202
       2     C     2.60573  2.60573  0.00000  0.78855
       3     C     3.20986  3.20986  0.00000 -0.41972
       4     O     4.30735  4.30735  0.00000 -0.61469
       5     C     3.15611  3.15611  0.00000 -0.31221
       6     H     0.40084  0.40084  0.00000  0.19831
       7     H     0.40017  0.40017  0.00000  0.19966
       8     C     3.15801  3.15801  0.00000 -0.31602
       9     H     0.40860  0.40860  0.00000  0.18280
      10     H     0.40932  0.40932  0.00000  0.18135
      11     C     3.15380  3.15380  0.00000 -0.30760
      12     H     0.41861  0.41861  0.00000  0.16278
      13     H     0.42216  0.42216  0.00000  0.15568
      14     C     3.15162  3.15162  0.00000 -0.30324
      15     H     0.42101  0.42101  0.00000  0.15799
      16     H     0.42402  0.42402  0.00000  0.15196
      17     C     3.15139  3.15139  0.00000 -0.30278
      18     H     0.42377  0.42377  0.00000  0.15246
      19     H     0.42444  0.42444  0.00000  0.15112
      20     C     3.23927  3.23927  0.00000 -0.47854
      21     H     0.42255  0.42255  0.00000  0.15489
      22     H     0.42316  0.42316  0.00000  0.15367
      23     H     0.41926  0.41926  0.00000  0.16148
      24     H     0.42177  0.42177  0.00000  0.15647
      25     H     0.42205  0.42205  0.00000  0.15591
      26     C     3.09245  3.09245  0.00000 -0.18489
      27     H     0.40911  0.40911  0.00000  0.18179
      28     H     0.40849  0.40849  0.00000  0.18303
      29     H     0.40909  0.40909  0.00000  0.18182

   Total alpha = 44.00000, Total beta = 44.00000, Total charge =  0.00000
