                              Psi4 1.0.54 Driver

  ==> Input File <==

--------------------------------------------------------------------------
set {
	reference rhf
	basis cc-pvtz
}

set_num_threads( 4 )
memory 2 gb

molecule MOL {
0 1

H	 -2.698799	 -0.000846	 0.036018
C	 -1.694291	 -0.000483	 0.434279
O	 -0.828718	 -0.000608	 -0.655022
H	 -1.576855	 0.881100	 1.056504
H	 -1.576401	 -0.881658	 1.057001
C	 0.557892	 0.000078	 -0.420099
C	 1.350163	 -0.575005	 -1.588799
C	 1.077441	 1.365625	 0.015331
H	 0.667246	 -0.677143	 0.417774
H	 0.931807	 -1.525474	 -1.896443
H	 2.379562	 -0.736856	 -1.290656
H	 1.359080	 0.089843	 -2.444650
H	 0.470013	 1.760944	 0.820190
H	 2.096975	 1.274362	 0.371692
H	 1.079015	 2.081977	 -0.797921

	symmetry c1
}
set optking {
	frozen_dihedral = ("
		9 6 3 2
	")
}

ee,wfn = optimize('scf', return_wfn=True)
oeprop( wfn, 'DIPOLE', 'QUADRUPOLE', 'MULLIKEN_CHARGES')
f=open( 'psi4out.xyz', 'w' )
f.write( "15  " )
f.write( str(ee) + "\n" )
f.write( MOL.save_string_xyz() )
f.close()
--------------------------------------------------------------------------

    Molecular point group: c1
  Charge       = 0
  Multiplicity = 1
  Basis Set: CC-PVTZ
  Basis Set:
  @DF-RHF Final Energy:  -232.22595084231560
    Total Energy =                       -232.2259508423155125
    Molecular point group: c1
  Basis Set: CC-PVTZ
  Basis Set:
  Basis Set: CC-PVTZ
  Basis Set:
  @DF-RHF Final Energy:  -231.18285730911552
    Total Energy =                       -231.1828573091156329
  Basis Set: CC-PVTZ
  Basis Set:
  Basis Set: CC-PVTZ
  Basis Set:
  @DF-RHF Final Energy:  -231.36366623716873
    Total Energy =                       -231.3636662371687578
  Basis Set: CC-PVTZ
  Basis Set:
  Basis Set: CC-PVTZ
  Basis Set:
  @DF-RHF Final Energy:  -231.71097664687474
    Total Energy =                       -231.7109766468746272
  Basis Set: CC-PVTZ
  Basis Set:
  @DF-RHF Final Energy:  -231.99565491450036
    Total Energy =                       -231.9956549145003351
  @DF-RHF Final Energy:  -232.16865193006177
    Total Energy =                       -232.1686519300618556
  @DF-RHF Final Energy:  -232.21907178271391
    Total Energy =                       -232.2190717827140247
  @DF-RHF Final Energy:  -232.22957114111691
    Total Energy =                       -232.2295711411168782
  @DF-RHF Final Energy:  -232.22993849627073
    Total Energy =                       -232.2299384962706199
  Basis Set: CC-PVTZ
  Basis Set:
  @DF-RHF Final Energy:  -232.23001310298787
    Total Energy =                       -232.2300131029880390
  Basis Set: CC-PVTZ
  Basis Set:
  Basis Set: CC-PVTZ
  Basis Set:
  @DF-RHF Final Energy:  -232.23002021869792
    Total Energy =                       -232.2300202186978595
  Basis Set: CC-PVTZ
  Basis Set:
  Basis Set: CC-PVTZ
  Basis Set:
  @DF-RHF Final Energy:  -232.23002151551162
    Total Energy =                       -232.2300215155116234
  Basis Set: CC-PVTZ
  Basis Set:
  Charge       = 0
  Multiplicity = 1
  Basis Set: CC-PVTZ
  Basis Set:

    Orbital Energies (a.u.)
    -----------------------

    Doubly Occupied:

       1A    -20.544179     2A    -11.272786     3A    -11.260873
       4A    -11.207270     5A    -11.204607     6A     -1.378365
       7A     -1.053778     8A     -0.941434     9A     -0.916467
      10A     -0.794153    11A     -0.674196    12A     -0.640391
      13A     -0.639015    14A     -0.588091    15A     -0.550493
      16A     -0.541956    17A     -0.531016    18A     -0.499011
      19A     -0.490908    20A     -0.456411    21A     -0.410797

  @DF-RHF Final Energy:  -232.23002170726917

   => Energetics <=

    Nuclear Repulsion Energy =            197.5844417827314885
    One-Electron Energy =                -706.4365368338679900
    Two-Electron Energy =                 276.6220733438671004
    DFT Exchange-Correlation Energy =       0.0000000000000000
    Empirical Dispersion Energy =           0.0000000000000000
    PCM Polarization Energy =               0.0000000000000000
    EFP Energy =                            0.0000000000000000
    Total Energy =                       -232.2300217072694295
    Molecular point group: c1
  Basis Set: CC-PVTZ
  Basis Set:

  -Total Gradient:
     Atom            X                  Y                   Z
    ------   -----------------  -----------------  -----------------
       1        0.000003462620    -0.000000171537     0.000002442716
       2        0.000134951301    -0.000092871912     0.000043201087
       3       -0.000233979056     0.000167990351    -0.000069396827
       4        0.000007193136    -0.000008916736    -0.000003509343
       5       -0.000003374210     0.000005106847    -0.000009502024
       6        0.000292612277    -0.000130095466    -0.000050927742
       7       -0.000029062975    -0.000020883365     0.000032914437
       8       -0.000022770211    -0.000028215733     0.000028755782
       9       -0.000155295833     0.000124772748     0.000045497527
      10        0.000006765987    -0.000005899315    -0.000003470991
      11       -0.000005932959     0.000000282198     0.000003748517
      12       -0.000009707831     0.000004416943     0.000001909192
      13       -0.000000692011    -0.000014771815     0.000003231845
      14        0.000021720681    -0.000003106739    -0.000001269947
      15       -0.000005890920     0.000002363531    -0.000023624231

  **** Optimization is complete! (in 13 steps) ****
    Final optimized geometry and variables:
    Molecular point group: c1

    Geometry (in Angstrom), charge = 0, multiplicity = 1:

    H           -1.966049280277    -1.842775158031     0.742104755999
    C           -1.354077944707    -0.986432002042     0.986867452061
    O           -0.485088260258    -0.775601005788    -0.076273321142
    H           -2.008978134306    -0.137938702359     1.162391417121
    H           -0.812419767497    -1.198518686592     1.906153117083
    C            0.463908032247     0.245730854365     0.084388449794
    C            1.607637429664    -0.057690021780    -0.866259480097
    C           -0.142330145339     1.619439049434    -0.176096489768
    H            0.840562270941     0.217186243002     1.106409952555
    H            2.031072443165    -1.029750051615    -0.648673982022
    H            2.388908381792     0.688432316765    -0.778474053675
    H            1.251885530747    -0.064459768747    -1.889934390616
    H           -0.951736354100     1.837185145180     0.509335374779
    H            0.607843338019     2.392857800013    -0.056022960245
    H           -0.530447874713     1.671055216030    -1.186882813453

  Mulliken Charges: (a.u.)
   Center  Symbol    Alpha    Beta     Spin     Total
       1     H     0.44605  0.44605  0.00000  0.10789
       2     C     3.03556  3.03556  0.00000 -0.07112
       3     O     4.18350  4.18350  0.00000 -0.36701
       4     H     0.47133  0.47133  0.00000  0.05733
       5     H     0.47146  0.47146  0.00000  0.05708
       6     C     2.91986  2.91986  0.00000  0.16028
       7     C     3.14050  3.14050  0.00000 -0.28100
       8     C     3.14809  3.14809  0.00000 -0.29619
       9     H     0.46867  0.46867  0.00000  0.06266
      10     H     0.44792  0.44792  0.00000  0.10416
      11     H     0.45859  0.45859  0.00000  0.08282
      12     H     0.45238  0.45238  0.00000  0.09524
      13     H     0.45180  0.45180  0.00000  0.09639
      14     H     0.45247  0.45247  0.00000  0.09507
      15     H     0.45182  0.45182  0.00000  0.09637

   Total alpha = 21.00000, Total beta = 21.00000, Total charge = -0.00000

*** Psi4 exiting successfully. Buy a developer a beer!
