                              Psi4 1.0.54 Driver

  ==> Input File <==

--------------------------------------------------------------------------
set {
	reference rhf
	basis cc-pvtz
}

set_num_threads( 4 )
memory 2 gb

molecule MOL {
0 1

O	 0.395927	 1.296676	 -0.000076
C	 0.503051	 0.114301	 -0.000074
C	 -0.701422	 -0.805636	 -0.000109
C	 1.858118	 -0.556123	 0.000212
C	 -1.529197	 -0.743137	 -1.274065
H	 -0.342343	 -1.815640	 0.179864
H	 -1.305714	 -0.554375	 0.867726
H	 -0.935526	 -1.016139	 -2.136186
H	 -2.371278	 -1.421765	 -1.209110
H	 -1.907449	 0.256300	 -1.442238
H	 1.961106	 -1.191101	 -0.872843
H	 2.636688	 0.191085	 -0.000109
H	 1.961070	 -1.190284	 0.873873

	symmetry c1
}
set optking {
	frozen_dihedral = ("
		6 3 2 1
	")
}

ee,wfn = optimize('scf', return_wfn=True)
oeprop( wfn, 'DIPOLE', 'QUADRUPOLE', 'MULLIKEN_CHARGES')
f=open( 'psi4out.xyz', 'w' )
f.write( "13  " )
f.write( str(ee) + "\n" )
f.write( MOL.save_string_xyz() )
f.close()
--------------------------------------------------------------------------

    Molecular point group: c1
  Charge       = 0
  Multiplicity = 1
  Basis Set: CC-PVTZ
  Basis Set:
  @DF-RHF Final Energy:  -231.08050106257716
    Total Energy =                       -231.0805010625770706
    Molecular point group: c1
  Basis Set: CC-PVTZ
  Basis Set:
  Basis Set: CC-PVTZ
  Basis Set:
  @DF-RHF Final Energy:  -231.08124849722935
    Total Energy =                       -231.0812484972293532
  Basis Set: CC-PVTZ
  Basis Set:
  Basis Set: CC-PVTZ
  Basis Set:
  @DF-RHF Final Energy:  -231.08125777471309
    Total Energy =                       -231.0812577747130945
  Basis Set: CC-PVTZ
  Basis Set:
  Basis Set: CC-PVTZ
  Basis Set:
  @DF-RHF Final Energy:  -231.08121182326067
    Total Energy =                       -231.0812118232606736
  Basis Set: CC-PVTZ
  Basis Set:
  Basis Set: CC-PVTZ
  Basis Set:
  @DF-RHF Final Energy:  -231.08133293786486
    Total Energy =                       -231.0813329378649428
  Basis Set: CC-PVTZ
  Basis Set:
  Basis Set: CC-PVTZ
  Basis Set:
  @DF-RHF Final Energy:  -231.08133394379291
    Total Energy =                       -231.0813339437926857
  Basis Set: CC-PVTZ
  Basis Set:
  Charge       = 0
  Multiplicity = 1
  Basis Set: CC-PVTZ
  Basis Set:

    Orbital Energies (a.u.)
    -----------------------

    Doubly Occupied:

       1A    -20.537965     2A    -11.320973     3A    -11.231748
       4A    -11.228417     5A    -11.222720     6A     -1.398616
       7A     -1.064304     8A     -1.000559     9A     -0.881439
      10A     -0.734251    11A     -0.658250    12A     -0.647577
      13A     -0.611077    14A     -0.591676    15A     -0.570750
      16A     -0.538132    17A     -0.525950    18A     -0.503346
      19A     -0.482788    20A     -0.402255

  @DF-RHF Final Energy:  -231.08133415678085

   => Energetics <=

    Nuclear Repulsion Energy =            177.3024101116569398
    One-Electron Energy =                -664.4619010554160923
    Two-Electron Energy =                 256.0781567869784112
    DFT Exchange-Correlation Energy =       0.0000000000000000
    Empirical Dispersion Energy =           0.0000000000000000
    PCM Polarization Energy =               0.0000000000000000
    EFP Energy =                            0.0000000000000000
    Total Energy =                       -231.0813341567807129
    Molecular point group: c1
  Basis Set: CC-PVTZ
  Basis Set:

  -Total Gradient:
     Atom            X                  Y                   Z
    ------   -----------------  -----------------  -----------------
       1        0.000005128033     0.000028240154     0.000000615570
       2       -0.000007247914    -0.000015846969    -0.000027640423
       3        0.000008665765     0.000006959212     0.000031854395
       4       -0.000014139821     0.000007057933     0.000038868267
       5       -0.000004378360     0.000003025291    -0.000012198217
       6        0.000002011333    -0.000016340251    -0.000002993952
       7       -0.000005460588    -0.000005208660    -0.000003672142
       8        0.000007512478     0.000000476968     0.000002960927
       9       -0.000007069327    -0.000004410628     0.000000858016
      10       -0.000004420416     0.000006365759    -0.000003358236
      11        0.000000565684    -0.000006268960    -0.000016218046
      12        0.000011006254     0.000007174553    -0.000006950348
      13        0.000007826877    -0.000011224400    -0.000002125812

  **** Optimization is complete! (in 7 steps) ****
    Final optimized geometry and variables:
    Molecular point group: c1

    Geometry (in Angstrom), charge = 0, multiplicity = 1:

    O            0.237938507823     1.408490009389     0.333181281119
    C            0.384945130497     0.230631422915     0.293099160704
    C           -0.813718577654    -0.700370122457     0.233952024142
    C            1.755990260921    -0.399068059497     0.286766805254
    C           -1.562844761514    -0.553655048443    -1.092070088087
    H           -0.504089519054    -1.728456880878     0.379090947518
    H           -1.468934564910    -0.431263944414     1.053902986661
    H           -0.932816463494    -0.823297442410    -1.932766780814
    H           -2.432095697801    -1.199042422822    -1.109098590207
    H           -1.889663862072     0.467800548101    -1.229719147970
    H            1.863449019986    -1.047629188220    -0.576504525096
    H            2.517980788819     0.364874001464     0.271512674079
    H            1.875495118603    -1.019734185048     1.168853782386

  Mulliken Charges: (a.u.)
   Center  Symbol    Alpha    Beta     Spin     Total
       1     O     4.17628  4.17628  0.00000 -0.35256
       2     C     2.85419  2.85419  0.00000  0.29163
       3     C     3.09852  3.09852  0.00000 -0.19704
       4     C     3.15267  3.15267  0.00000 -0.30535
       5     C     3.14614  3.14614  0.00000 -0.29228
       6     H     0.44939  0.44939  0.00000  0.10122
       7     H     0.44203  0.44203  0.00000  0.11594
       8     H     0.45559  0.45559  0.00000  0.08882
       9     H     0.44773  0.44773  0.00000  0.10455
      10     H     0.44114  0.44114  0.00000  0.11771
      11     H     0.45068  0.45068  0.00000  0.09864
      12     H     0.43647  0.43647  0.00000  0.12705
      13     H     0.44916  0.44916  0.00000  0.10167

   Total alpha = 20.00000, Total beta = 20.00000, Total charge = -0.00000

*** Psi4 exiting successfully. Buy a developer a beer!
