                              Psi4 1.0.54 Driver

  ==> Input File <==

--------------------------------------------------------------------------
set {
	reference rhf
	basis cc-pvtz
}

set_num_threads( 4 )
memory 2 gb

molecule MOL {
0 1

H	 -2.123760	 -0.667311	 -0.609803
O	 -2.041545	 -0.058939	 0.103469
C	 -0.959170	 0.780921	 -0.094933
C	 0.355039	 0.037829	 -0.006209
H	 -0.985765	 1.279505	 -1.057590
H	 -0.969675	 1.529449	 0.682895
F	 0.412194	 -0.931101	 -0.902702
F	 1.359775	 0.856038	 -0.239955
F	 0.545514	 -0.506460	 1.171688

	symmetry c1
}
ee,wfn = energy('scf', return_wfn=True)
oeprop( wfn, 'DIPOLE', 'QUADRUPOLE', 'MULLIKEN_CHARGES')
oeprop( wfn, 'GRID_ESP')
f=open( 'psi4out.xyz', 'w' )
f.write( "9  " )
f.write( str(ee) + "\n" )
f.write( MOL.save_string_xyz() )
f.close()
--------------------------------------------------------------------------

    Molecular point group: c1

    Geometry (in Angstrom), charge = 0, multiplicity = 1:

       Center              X                  Y                   Z               Mass
    ------------   -----------------  -----------------  -----------------  -----------------
           H         -2.123894448325    -0.667237697112    -0.609809146528     1.007825032070
           O         -2.041679448325    -0.058865697112     0.103462853472    15.994914619560
           C         -0.959304448325     0.780994302888    -0.094939146528    12.000000000000
           C          0.354904551675     0.037902302888    -0.006215146528    12.000000000000
           H         -0.985899448325     1.279578302888    -1.057596146528     1.007825032070
           H         -0.969809448325     1.529522302888     0.682888853472     1.007825032070
           F          0.412059551675    -0.931027697112    -0.902708146528    18.998403224000
           F          1.359640551675     0.856111302888    -0.239961146528    18.998403224000
           F          0.545379551675    -0.506386697112     1.171681853472    18.998403224000

  Charge       = 0
  Multiplicity = 1
  Basis Set: CC-PVTZ
  Basis Set:

    Orbital Energies (a.u.)
    -----------------------

    Doubly Occupied:

       1A    -26.339704     2A    -26.339496     3A    -26.335631
       4A    -20.583821     5A    -11.493654     6A    -11.310087
       7A     -1.747795     8A     -1.644936     9A     -1.642831
      10A     -1.407303    11A     -1.050575    12A     -0.929808
      13A     -0.837912    14A     -0.836258    15A     -0.811509
      16A     -0.732168    17A     -0.718848    18A     -0.703760
      19A     -0.671806    20A     -0.665850    21A     -0.649307
      22A     -0.632991    23A     -0.619234    24A     -0.534275
      25A     -0.484741

  @DF-RHF Final Energy:  -450.84727398448609

   => Energetics <=

    Nuclear Repulsion Energy =            277.7139088002858784
    One-Electron Energy =               -1177.6738003596933595
    Two-Electron Energy =                 449.1126175749215577
    DFT Exchange-Correlation Energy =       0.0000000000000000
    Empirical Dispersion Energy =           0.0000000000000000
    PCM Polarization Energy =               0.0000000000000000
    EFP Energy =                            0.0000000000000000
    Total Energy =                       -450.8472739844858665

  Mulliken Charges: (a.u.)
   Center  Symbol    Alpha    Beta     Spin     Total
       1     H     0.38648  0.38648  0.00000  0.22704
       2     O     4.19245  4.19245  0.00000 -0.38490
       3     C     2.99058  2.99058  0.00000  0.01884
       4     C     2.68409  2.68409  0.00000  0.63182
       5     H     0.46190  0.46190  0.00000  0.07620
       6     H     0.44740  0.44740  0.00000  0.10519
       7     F     4.61750  4.61750  0.00000 -0.23500
       8     F     4.61216  4.61216  0.00000 -0.22432
       9     F     4.60743  4.60743  0.00000 -0.21487

   Total alpha = 25.00000, Total beta = 25.00000, Total charge = -0.00000

*** Psi4 exiting successfully. Buy a developer a beer!
