  ==> Input File <==

--------------------------------------------------------------------------
set {
	reference rhf
	basis cc-pvtz
}

set_num_threads( 4 )
memory 2 gb

molecule MOL {
0 1

H	 1.651322	 -0.822465	 0.000000
O	 0.729993	 -1.034364	 0.000000
C	 0.037305	 0.100061	 0.000000
C	 0.859145	 1.260511	 0.475407
O	 -1.093012	 0.151450	 -0.341373
H	 1.214629	 1.064497	 1.478741
H	 0.261448	 2.156746	 0.459736
H	 1.724876	 1.376058	 -0.163832

	symmetry c1
}
set optking {
	frozen_dihedral = ("
		4 3 2 1
	")
}

ee = optimize('scf')
oeprop('DIPOLE', 'QUADRUPOLE', 'MULLIKEN_CHARGES')
f=open( 'psi4out.xyz', 'w' )
f.write( "8  " )
f.write( str(ee) + "\n" )
f.write( MOL.save_string_xyz() )
f.close()
--------------------------------------------------------------------------

    Molecular point group: c1
  Charge       = 0
  Multiplicity = 1
  Basis Set: CC-PVTZ
  Basis Set:
  @DF-RHF Final Energy:  -227.89223820522170
    Total Energy =                       -227.8922382052215880
    Molecular point group: c1
  Basis Set: CC-PVTZ
  Basis Set:
  Basis Set: CC-PVTZ
  Basis Set:
  @DF-RHF Final Energy:  -227.89239647291089
    Total Energy =                       -227.8923964729109457
  Basis Set: CC-PVTZ
  Basis Set:
  Basis Set: CC-PVTZ
  Basis Set:
  @DF-RHF Final Energy:  -227.89354148429712
    Total Energy =                       -227.8935414842970886
  Basis Set: CC-PVTZ
  Basis Set:
  Basis Set: CC-PVTZ
  Basis Set:
  @DF-RHF Final Energy:  -227.89386475501996
    Total Energy =                       -227.8938647550201040
  Basis Set: CC-PVTZ
  Basis Set:
  @DF-RHF Final Energy:  -227.89389003584967
    Total Energy =                       -227.8938900358496085
  @DF-RHF Final Energy:  -227.89389666010237
    Total Energy =                       -227.8938966601023708
  @DF-RHF Final Energy:  -227.89390141936605
    Total Energy =                       -227.8939014193660739
  @DF-RHF Final Energy:  -227.89389024003336
    Total Energy =                       -227.8938902400331870
  @DF-RHF Final Energy:  -227.89390262076409
    Total Energy =                       -227.8939026207640950
  @DF-RHF Final Energy:  -227.87671710461640
    Total Energy =                       -227.8767171046164890
  @DF-RHF Final Energy:  -227.89219723510399
    Total Energy =                       -227.8921972351041347
  @DF-RHF Final Energy:  -227.89380919402896
    Total Energy =                       -227.8938091940289041
  Basis Set: CC-PVTZ
  Basis Set:
  @DF-RHF Final Energy:  -227.89388363367982
    Total Energy =                       -227.8938836336797067
  Basis Set: CC-PVTZ
  Basis Set:
  Basis Set: CC-PVTZ
  Basis Set:
  @DF-RHF Final Energy:  -227.89389907189599
    Total Energy =                       -227.8938990718957598
  Basis Set: CC-PVTZ
  Basis Set:
  Basis Set: CC-PVTZ
  Basis Set:
  @DF-RHF Final Energy:  -227.89390295578372
    Total Energy =                       -227.8939029557838012
  Basis Set: CC-PVTZ
  Basis Set:
  Charge       = 0
  Multiplicity = 1
  Basis Set: CC-PVTZ
  Basis Set:

    Orbital Energies (a.u.)
    -----------------------

    Doubly Occupied:

       1A    -20.606287     2A    -20.539288     3A    -11.377940
       4A    -11.249960     5A     -1.473591     6A     -1.376159
       7A     -1.027481     8A     -0.842698     9A     -0.722335
      10A     -0.672432    11A     -0.659802    12A     -0.604259
      13A     -0.574174    14A     -0.553441    15A     -0.484354
      16A     -0.449910

  @DF-RHF Final Energy:  -227.89390312194433

   => Energetics <=

    Nuclear Repulsion Energy =            122.5605577066696839
    One-Electron Energy =                -554.4806993070279759
    Two-Electron Energy =                 204.0262384784139442
    DFT Exchange-Correlation Energy =       0.0000000000000000
    Empirical Dispersion Energy =           0.0000000000000000
    PCM Polarization Energy =               0.0000000000000000
    EFP Energy =                            0.0000000000000000
    Total Energy =                       -227.8939031219443621
    Molecular point group: c1
  Basis Set: CC-PVTZ
  Basis Set:

  -Total Gradient:
     Atom            X                  Y                   Z
    ------   -----------------  -----------------  -----------------
       1       -0.000061083553     0.000071980819    -0.003812734912
       2       -0.000232015846    -0.000357847561     0.005925796428
       3        0.000933223420     0.000763448130    -0.004415523190
       4       -0.000690217880    -0.000460734119     0.002307447491
       5        0.000042847364    -0.000016347170     0.000008115774
       6        0.000001169164    -0.000002482030    -0.000005360957
       7        0.000001661475    -0.000000376503    -0.000004499581
       8        0.000004415857     0.000002358433    -0.000003241052

  **** Optimization is complete! (in 16 steps) ****
    Final optimized geometry and variables:
    Molecular point group: c1

    Geometry (in Angstrom), charge = 0, multiplicity = 1:

    H            1.484728917480    -1.033021042081    -0.086247222655
    O            0.551820433310    -1.156151637168    -0.074062049292
    C           -0.109651550551     0.005483299946    -0.043652313470
    C            0.693327613746     1.189476250178     0.431191485188
    O           -1.251941206515     0.046255907245    -0.315895259730
    H            1.001787495209     1.020752669310     1.456152016807
    H            0.089096134140     2.079448341298     0.375456286361
    H            1.586081297811     1.319492049567    -0.170818127149

  Mulliken Charges: (a.u.)
   Center  Symbol    Alpha    Beta     Spin     Total
       1     H     0.38902  0.38902  0.00000  0.22196
       2     O     4.14507  4.14507  0.00000 -0.29014
       3     C     2.80968  2.80968  0.00000  0.38063
       4     C     3.15076  3.15076  0.00000 -0.30153
       5     O     4.17435  4.17435  0.00000 -0.34869
       6     H     0.44274  0.44274  0.00000  0.11452
       7     H     0.43367  0.43367  0.00000  0.13267
       8     H     0.45471  0.45471  0.00000  0.09059

   Total alpha = 16.00000, Total beta = 16.00000, Total charge = -0.00000
