  ==> Input File <==

--------------------------------------------------------------------------
set {
	reference rhf
	basis cc-pvtz
}

set_num_threads( 4 )
memory 2 gb

molecule MOL {
0 1

H	 -1.002705	 -0.598729	 -0.836725
N	 -0.712187	 0.000026	 -0.093397
C	 0.734067	 -0.000020	 0.038424
H	 -1.146438	 -0.334433	 0.740274
H	 1.140372	 -0.872115	 -0.458226
H	 1.140363	 0.872301	 -0.457869
H	 1.095085	 -0.000244	 1.065614

	symmetry c1
}
set optking {
	frozen_dihedral = ("
		1 2 3 7
	")
}

ee = optimize('scf')
oeprop('DIPOLE', 'QUADRUPOLE', 'MULLIKEN_CHARGES')
f=open( 'psi4out.xyz', 'w' )
f.write( "7  " )
f.write( str(ee) + "\n" )
f.write( MOL.save_string_xyz() )
f.close()
--------------------------------------------------------------------------

    Molecular point group: c1
  Charge       = 0
  Multiplicity = 1
  Basis Set: CC-PVTZ
  Basis Set:
  @DF-RHF Final Energy:   -95.25001394165133
    Total Energy =                        -95.2500139416513889
    Molecular point group: c1
  Basis Set: CC-PVTZ
  Basis Set:
  Basis Set: CC-PVTZ
  Basis Set:
  @DF-RHF Final Energy:   -95.25110501247732
    Total Energy =                        -95.2511050124773817
  Basis Set: CC-PVTZ
  Basis Set:
  Basis Set: CC-PVTZ
  Basis Set:
  @DF-RHF Final Energy:   -95.25126095857640
    Total Energy =                        -95.2512609585764238
  Basis Set: CC-PVTZ
  Basis Set:
  Basis Set: CC-PVTZ
  Basis Set:
  @DF-RHF Final Energy:   -95.25126241945766
    Total Energy =                        -95.2512624194576460
  Basis Set: CC-PVTZ
  Basis Set:
  Charge       = 0
  Multiplicity = 1
  Basis Set: CC-PVTZ
  Basis Set:

    Orbital Energies (a.u.)
    -----------------------

    Doubly Occupied:

       1A    -15.527654     2A    -11.235774     3A     -1.170500
       4A     -0.897951     5A     -0.664605     6A     -0.602022
       7A     -0.559705     8A     -0.516689     9A     -0.386182

  @DF-RHF Final Energy:   -95.25126251304836

   => Energetics <=

    Nuclear Repulsion Energy =             42.3148919803914936
    One-Electron Energy =                -212.0101446755333825
    Two-Electron Energy =                  74.4439901820935859
    DFT Exchange-Correlation Energy =       0.0000000000000000
    Empirical Dispersion Energy =           0.0000000000000000
    PCM Polarization Energy =               0.0000000000000000
    EFP Energy =                            0.0000000000000000
    Total Energy =                        -95.2512625130483173
    Molecular point group: c1
  Basis Set: CC-PVTZ
  Basis Set:

  -Total Gradient:
     Atom            X                  Y                   Z
    ------   -----------------  -----------------  -----------------
       1       -0.000125019366    -0.001932920369     0.001625023840
       2        0.000177635844     0.001798314445    -0.002017793520
       3       -0.000041517744     0.002459491039     0.000398802949
       4       -0.000022057746     0.000003033841    -0.000005267642
       5       -0.000000650708     0.000000563688    -0.000002607808
       6        0.000010142510    -0.000011232017    -0.000001494952
       7        0.000001467212    -0.002317250627     0.000003337134

  **** Optimization is complete! (in 5 steps) ****
    Final optimized geometry and variables:
    Molecular point group: c1

    Geometry (in Angstrom), charge = 0, multiplicity = 1:

    H           -1.034415255300    -0.559789534746    -0.790601357239
    N           -0.718695366929     0.034363052447    -0.055233580660
    C            0.736211258685     0.026050002363     0.044715864065
    H           -1.133256644040    -0.310454787274     0.782875353283
    H            1.190327749050    -0.846926055032    -0.416225169040
    H            1.157069418808     0.906646426786    -0.425007528273
    H            1.040138563644     0.022898747938     1.083969284674

  Mulliken Charges: (a.u.)
   Center  Symbol    Alpha    Beta     Spin     Total
       1     H     0.42913  0.42913  0.00000  0.14174
       2     N     3.68544  3.68544  0.00000 -0.37089
       3     C     3.06956  3.06956  0.00000 -0.13913
       4     H     0.42827  0.42827  0.00000  0.14346
       5     H     0.46812  0.46812  0.00000  0.06375
       6     H     0.45951  0.45951  0.00000  0.08099
       7     H     0.45996  0.45996  0.00000  0.08008

   Total alpha =  9.00000, Total beta =  9.00000, Total charge =  0.00000
