  ==> Input File <==

--------------------------------------------------------------------------
set {
	reference rhf
	basis cc-pvtz
}

set_num_threads( 4 )
memory 2 gb

molecule MOL {
0 1

H	 -0.415439	 0.199203	 3.164109
O	 -0.300259	 0.052559	 2.243629
C	 -0.145999	 1.277583	 1.574647
C	 0.027642	 1.012027	 0.090274
H	 0.730079	 1.803454	 1.945744
H	 -1.006728	 1.916796	 1.750753
C	 -1.138737	 0.285728	 -0.581921
H	 0.930984	 0.425408	 -0.041477
H	 0.197925	 1.966419	 -0.402022
C	 -1.933983	 -0.631436	 0.343653
H	 -0.763151	 -0.285569	 -1.422081
H	 -1.808359	 1.035291	 -0.992333
H	 -2.789188	 -1.049673	 -0.174718
H	 -1.335629	 -1.461368	 0.700418
H	 -2.305435	 -0.092167	 1.209725

	symmetry c1
}
set optking {
	frozen_dihedral = ("
		8 4 7 11
	")
}

ee = optimize('scf')
oeprop('DIPOLE', 'QUADRUPOLE', 'MULLIKEN_CHARGES')
f=open( 'psi4out.xyz', 'w' )
f.write( "15  " )
f.write( str(ee) + "\n" )
f.write( MOL.save_string_xyz() )
f.close()
--------------------------------------------------------------------------

    Molecular point group: c1
  Charge       = 0
  Multiplicity = 1
  Basis Set: CC-PVTZ
  Basis Set:
  @DF-RHF Final Energy:  -232.22431589346638
    Total Energy =                       -232.2243158934668372
    Molecular point group: c1
  Basis Set: CC-PVTZ
  Basis Set:
  Basis Set: CC-PVTZ
  Basis Set:
  @DF-RHF Final Energy:  -232.23029303428393
    Total Energy =                       -232.2302930342839318
  Basis Set: CC-PVTZ
  Basis Set:
  Basis Set: CC-PVTZ
  Basis Set:
  @DF-RHF Final Energy:  -232.23173688853484
    Total Energy =                       -232.2317368885347264
  Basis Set: CC-PVTZ
  Basis Set:
  Basis Set: CC-PVTZ
  Basis Set:
  @DF-RHF Final Energy:  -232.23208346774925
    Total Energy =                       -232.2320834677491916
  Basis Set: CC-PVTZ
  Basis Set:
  Basis Set: CC-PVTZ
  Basis Set:
  @DF-RHF Final Energy:  -232.23212880177041
    Total Energy =                       -232.2321288017702159
  Basis Set: CC-PVTZ
  Basis Set:
  Basis Set: CC-PVTZ
  Basis Set:
  @DF-RHF Final Energy:  -232.23214263520015
    Total Energy =                       -232.2321426352001481
  Basis Set: CC-PVTZ
  Basis Set:
  Basis Set: CC-PVTZ
  Basis Set:
  @DF-RHF Final Energy:  -232.23214627640215
    Total Energy =                       -232.2321462764019770
  Basis Set: CC-PVTZ
  Basis Set:
  Charge       = 0
  Multiplicity = 1
  Basis Set: CC-PVTZ
  Basis Set:

    Orbital Energies (a.u.)
    -----------------------

    Doubly Occupied:

       1A    -20.545979     2A    -11.267065     3A    -11.211659
       4A    -11.210762     5A    -11.196042     6A     -1.364264
       7A     -1.062153     8A     -0.971336     9A     -0.868230
      10A     -0.773931    11A     -0.706762    12A     -0.650302
      13A     -0.609821    14A     -0.569949    15A     -0.560406
      16A     -0.537159    17A     -0.508157    18A     -0.477286
      19A     -0.462396    20A     -0.453157    21A     -0.429605

  @DF-RHF Final Energy:  -232.23214647182911

   => Energetics <=

    Nuclear Repulsion Energy =            193.0292715611577421
    One-Electron Energy =                -697.6499993831521351
    Two-Electron Energy =                 272.3885813501653388
    DFT Exchange-Correlation Energy =       0.0000000000000000
    Empirical Dispersion Energy =           0.0000000000000000
    PCM Polarization Energy =               0.0000000000000000
    EFP Energy =                            0.0000000000000000
    Total Energy =                       -232.2321464718290258
    Molecular point group: c1
  Basis Set: CC-PVTZ
  Basis Set:

  -Total Gradient:
     Atom            X                  Y                   Z
    ------   -----------------  -----------------  -----------------
       1        0.000001946733     0.000000355895    -0.000002468717
       2       -0.000000730444     0.000015123308     0.000004667682
       3        0.000020931472    -0.000008570585     0.000014714862
       4       -0.001484723316    -0.004231315742     0.006180212835
       5        0.000002775619     0.000001322863     0.000014853520
       6        0.000004786894    -0.000004014298    -0.000007836082
       7       -0.000229655016     0.005842713923    -0.004754534946
       8        0.001244855361     0.002679185682    -0.004451428278
       9        0.000009298110    -0.000000322025     0.000002454305
      10        0.000000363256    -0.000001709530    -0.000011455330
      11        0.000441959454    -0.004288974889     0.003018937179
      12       -0.000004874447     0.000000145264     0.000001797162
      13       -0.000012273743    -0.000013978293    -0.000004719381
      14        0.000001205805     0.000002283413    -0.000002573342
      15        0.000004134263     0.000007755014    -0.000002621469

  **** Optimization is complete! (in 8 steps) ****
    Final optimized geometry and variables:
    Molecular point group: c1

    Geometry (in Angstrom), charge = 0, multiplicity = 1:

    H            0.505967878219    -0.051347311802     2.476434644608
    O            0.623533767367    -0.263505049847     1.568971484439
    C            0.534859635334     0.899525285850     0.787555804042
    C            0.692194933049     0.549354443915    -0.680493611201
    H            1.322609884686     1.593712892934     1.068223927614
    H           -0.415710524636     1.402494575831     0.954346539927
    C           -0.513399807411    -0.085580099655    -1.398375039987
    H            1.573379727543    -0.070580306501    -0.805079550280
    H            0.929224039365     1.474483470530    -1.199966314317
    C           -1.365672356758    -1.053725246641    -0.576506134169
    H           -0.133614528954    -0.645027401598    -2.246879581091
    H           -1.153033052646     0.698978018194    -1.789324903930
    H           -2.156383694710    -1.462809863762    -1.196253571006
    H           -0.774297556262    -1.875630642301    -0.194724310863
    H           -1.830613736248    -0.568306218364     0.272307709395

  Mulliken Charges: (a.u.)
   Center  Symbol    Alpha    Beta     Spin     Total
       1     H     0.39621  0.39621  0.00000  0.20757
       2     O     4.19800  4.19800  0.00000 -0.39600
       3     C     2.98376  2.98376  0.00000  0.03247
       4     C     3.09244  3.09244  0.00000 -0.18489
       5     H     0.45910  0.45910  0.00000  0.08179
       6     H     0.46953  0.46953  0.00000  0.06094
       7     C     3.09205  3.09205  0.00000 -0.18410
       8     H     0.45018  0.45018  0.00000  0.09964
       9     H     0.45243  0.45243  0.00000  0.09514
      10     C     3.14209  3.14209  0.00000 -0.28418
      11     H     0.45203  0.45203  0.00000  0.09594
      12     H     0.45411  0.45411  0.00000  0.09178
      13     H     0.45161  0.45161  0.00000  0.09677
      14     H     0.44800  0.44800  0.00000  0.10399
      15     H     0.45844  0.45844  0.00000  0.08312

   Total alpha = 21.00000, Total beta = 21.00000, Total charge = -0.00000
