  ==> Input File <==

--------------------------------------------------------------------------
set {
	reference rhf
	basis 6-31G*
}

set_num_threads( 4 )
memory 2 gb

molecule MOL {
0 1

H	 -3.420663	 1.227371	 -1.044276
O	 -3.452007	 0.283848	 -0.965577
C	 -3.181085	 -0.079926	 0.364119
C	 -1.765924	 0.277073	 0.805136
H	 -3.327791	 -1.152017	 0.410903
H	 -3.905698	 0.375695	 1.036898
C	 -0.677594	 -0.417312	 -0.014550
H	 -1.637766	 1.358238	 0.744969
H	 -1.659588	 0.017670	 1.857098
C	 0.738335	 -0.034840	 0.421385
H	 -0.814977	 -0.178223	 -1.064632
H	 -0.802730	 -1.495410	 0.071702
C	 1.207345	 1.291284	 -0.183190
H	 0.771609	 0.019353	 1.506915
H	 1.431514	 -0.824378	 0.133746
C	 2.653221	 1.673990	 0.153167
H	 0.540931	 2.089480	 0.140028
H	 1.108535	 1.234478	 -1.265237
C	 2.904695	 1.970822	 1.632713
H	 2.920825	 2.552849	 -0.428455
H	 3.320949	 0.879578	 -0.174325
H	 2.241655	 2.753589	 1.991591
H	 3.925361	 2.305692	 1.790641
H	 2.750368	 1.095480	 2.254905

	symmetry c1
}
set optking {
	frozen_dihedral = ("
		13 10 7 11
	")
}

ee = optimize('scf')
oeprop('DIPOLE', 'QUADRUPOLE', 'MULLIKEN_CHARGES')
f=open( 'psi4out.xyz', 'w' )
f.write( "24  " )
f.write( str(ee) + "\n" )
f.write( MOL.save_string_xyz() )
f.close()
--------------------------------------------------------------------------

    Molecular point group: c1
  Charge       = 0
  Multiplicity = 1
  Basis Set: 6-31G*
  Basis Set:
  @DF-RHF Final Energy:  -349.24502718290444
    Total Energy =                       -349.2450271829045505
    Molecular point group: c1
  Basis Set: 6-31G*
  Basis Set:
  Basis Set: 6-31G*
  Basis Set:
  @DF-RHF Final Energy:  -349.24523254863993
    Total Energy =                       -349.2452325486401605
  Basis Set: 6-31G*
  Basis Set:
  Basis Set: 6-31G*
  Basis Set:
  @DF-RHF Final Energy:  -349.24525079452320
    Total Energy =                       -349.2452507945232583
  Basis Set: 6-31G*
  Basis Set:
  Basis Set: 6-31G*
  Basis Set:
  @DF-RHF Final Energy:  -349.24523062433281
    Total Energy =                       -349.2452306243328621
  Basis Set: 6-31G*
  Basis Set:
  Basis Set: 6-31G*
  Basis Set:
  @DF-RHF Final Energy:  -349.24526536569459
    Total Energy =                       -349.2452653656947064
  Basis Set: 6-31G*
  Basis Set:
  Charge       = 0
  Multiplicity = 1
  Basis Set: 6-31G*
  Basis Set:

    Orbital Energies (a.u.)
    -----------------------

    Doubly Occupied:

       1A    -20.553491     2A    -11.267528     3A    -11.216999
       4A    -11.215051     5A    -11.213234     6A    -11.212445
       7A    -11.211297     8A    -11.208291     9A     -1.360041
      10A     -1.088723    11A     -1.047508    12A     -0.984825
      13A     -0.915876    14A     -0.852326    15A     -0.805685
      16A     -0.772240    17A     -0.679245    18A     -0.644548
      19A     -0.631406    20A     -0.615420    21A     -0.601637
      22A     -0.583265    23A     -0.566772    24A     -0.533069
      25A     -0.523866    26A     -0.510032    27A     -0.493055
      28A     -0.482822    29A     -0.467889    30A     -0.458688
      31A     -0.452354    32A     -0.443875    33A     -0.421291

  @DF-RHF Final Energy:  -349.24526522094959

   => Energetics <=

    Nuclear Repulsion Energy =            389.3220468437548334
    One-Electron Energy =               -1245.0650407323796571
    Two-Electron Energy =                 506.4977286676754602
    DFT Exchange-Correlation Energy =       0.0000000000000000
    Empirical Dispersion Energy =           0.0000000000000000
    PCM Polarization Energy =               0.0000000000000000
    EFP Energy =                            0.0000000000000000
    Total Energy =                       -349.2452652209493635
    Molecular point group: c1
  Basis Set: 6-31G*
  Basis Set:

  -Total Gradient:
     Atom            X                  Y                   Z
    ------   -----------------  -----------------  -----------------
       1       -0.000003498474     0.000012916280    -0.000009967264
       2       -0.000031532188     0.000030930503     0.000031299034
       3       -0.000001654976    -0.000064381093    -0.000000034029
       4        0.000003763682     0.000010782816    -0.000051619853
       5        0.000005365303    -0.000001266884     0.000001748953
       6       -0.000011072851    -0.000002701359    -0.000003272737
       7        0.001125430368    -0.002863203139    -0.001224020190
       8        0.000020348707     0.000010672736    -0.000005863334
       9       -0.000004809455     0.000008529379    -0.000015181653
      10       -0.001026753076     0.001623265211     0.001985929345
      11       -0.000746251412     0.002034846681     0.000608496425
      12       -0.000029467105    -0.000013047766    -0.000031553272
      13        0.000651852721    -0.000857333138    -0.001298614742
      14        0.000032927031     0.000015738448     0.000015901084
      15        0.000021208909     0.000014819020     0.000017020013
      16       -0.000006825939     0.000058249223    -0.000025047698
      17        0.000009561960    -0.000020738675     0.000010118098
      18        0.000007971174     0.000009871187    -0.000005423818
      19       -0.000009962601    -0.000012649102     0.000000706049
      20        0.000015921784     0.000012540191    -0.000003211309
      21       -0.000015551749     0.000004179378    -0.000001633361
      22        0.000005313196     0.000003712288     0.000000788719
      23        0.000000984798    -0.000008064296    -0.000002921091
      24       -0.000013269808    -0.000007667888     0.000006356632

  **** Optimization is complete! (in 6 steps) ****
    Final optimized geometry and variables:
    Molecular point group: c1

    Geometry (in Angstrom), charge = 0, multiplicity = 1:

    H           -3.175333052663     0.616923548421    -1.288257223115
    O           -3.203661228656    -0.328038105753    -1.228282277301
    C           -2.936620176787    -0.717071283893     0.095169274852
    C           -1.524642298316    -0.362999546162     0.549173949244
    H           -3.078954340349    -1.790464616952     0.119890224507
    H           -3.666114565593    -0.278042847949     0.773630726303
    C           -0.432089258487    -1.054136563771    -0.272050106343
    H           -1.402474412295     0.718699744386     0.504674311804
    H           -1.424148445005    -0.636522460131     1.598131140542
    C            0.993614360767    -0.663223825960     0.145224692580
    H           -0.586233392447    -0.816651061863    -1.319795558400
    H           -0.556331937255    -2.129869125573    -0.172730975901
    C            1.470968005606     0.663740482953    -0.455184695821
    H            1.056477797178    -0.635321557607     1.230041745056
    H            1.680205536519    -1.443719912959    -0.176749624884
    C            2.917097435380     1.035857677505    -0.107440032744
    H            0.814204905570     1.473851332169    -0.142978488013
    H            1.381192377929     0.600477823332    -1.537432391240
    C            3.153845824794     1.355666775878     1.369764135514
    H            3.202355867143     1.901305890927    -0.700692669861
    H            3.579032868557     0.228019684927    -0.412887868071
    H            2.499206852562     2.155693993925     1.705392748493
    H            4.177646102380     1.677009427668     1.535177187400
    H            2.976955796535     0.494831035104     2.005851247844

  Mulliken Charges: (a.u.)
   Center  Symbol    Alpha    Beta     Spin     Total
       1     H     0.28335  0.28335  0.00000  0.43330
       2     O     4.36835  4.36835  0.00000 -0.73670
       3     C     2.99638  2.99638  0.00000  0.00724
       4     C     3.16954  3.16954  0.00000 -0.33907
       5     H     0.41646  0.41646  0.00000  0.16708
       6     H     0.42821  0.42821  0.00000  0.14357
       7     C     3.15494  3.15494  0.00000 -0.30988
       8     H     0.42717  0.42717  0.00000  0.14567
       9     H     0.42260  0.42260  0.00000  0.15480
      10     C     3.15622  3.15622  0.00000 -0.31244
      11     H     0.41127  0.41127  0.00000  0.17746
      12     H     0.42128  0.42128  0.00000  0.15744
      13     C     3.15338  3.15338  0.00000 -0.30676
      14     H     0.42250  0.42250  0.00000  0.15501
      15     H     0.42146  0.42146  0.00000  0.15708
      16     C     3.15235  3.15235  0.00000 -0.30469
      17     H     0.42586  0.42586  0.00000  0.14828
      18     H     0.42113  0.42113  0.00000  0.15775
      19     C     3.24082  3.24082  0.00000 -0.48163
      20     H     0.42130  0.42130  0.00000  0.15740
      21     H     0.42306  0.42306  0.00000  0.15388
      22     H     0.42306  0.42306  0.00000  0.15388
      23     H     0.41930  0.41930  0.00000  0.16141
      24     H     0.42003  0.42003  0.00000  0.15994

   Total alpha = 33.00000, Total beta = 33.00000, Total charge = -0.00000
