  ==> Input File <==

--------------------------------------------------------------------------
set {
	reference rhf
	basis cc-pvtz
}

set_num_threads( 4 )
memory 2 gb

molecule MOL {
0 1

H	 1.081482	 -0.635124	 0.906385
C	 1.013997	 -0.282003	 -0.131685
C	 0.062554	 0.862911	 -0.350953
O	 1.667292	 -0.792712	 -0.974025
C	 -1.339253	 0.577611	 0.196911
H	 0.036787	 1.091940	 -1.408486
H	 0.481788	 1.721602	 0.168632
C	 -1.813142	 -0.849710	 -0.061612
H	 -2.032833	 1.276441	 -0.256032
H	 -1.357249	 0.782269	 1.263793
H	 -1.839268	 -1.063526	 -1.124230
H	 -2.810118	 -1.001930	 0.334000
H	 -1.159274	 -1.579980	 0.402282

	symmetry c1
}
set optking {
	frozen_dihedral = ("
		6 3 5 9
	")
}

ee = optimize('scf')
oeprop('DIPOLE', 'QUADRUPOLE', 'MULLIKEN_CHARGES')
f=open( 'psi4out.xyz', 'w' )
f.write( "13  " )
f.write( str(ee) + "\n" )
f.write( MOL.save_string_xyz() )
f.close()
--------------------------------------------------------------------------

    Molecular point group: c1
  Charge       = 0
  Multiplicity = 1
  Basis Set: CC-PVTZ
  Basis Set:
  @DF-RHF Final Energy:  -231.06759503985080
    Total Energy =                       -231.0675950398509144
    Molecular point group: c1
  Basis Set: CC-PVTZ
  Basis Set:
  Basis Set: CC-PVTZ
  Basis Set:
  @DF-RHF Final Energy:  -231.06790682549155
    Total Energy =                       -231.0679068254915762
  Basis Set: CC-PVTZ
  Basis Set:
  Basis Set: CC-PVTZ
  Basis Set:
  @DF-RHF Final Energy:  -231.06369219800024
    Total Energy =                       -231.0636921980000693
  Basis Set: CC-PVTZ
  Basis Set:
  Basis Set: CC-PVTZ
  Basis Set:
  @DF-RHF Final Energy:  -231.06818618163285
    Total Energy =                       -231.0681861816327398
  Basis Set: CC-PVTZ
  Basis Set:
  Basis Set: CC-PVTZ
  Basis Set:
  @DF-RHF Final Energy:  -231.06832178051494
    Total Energy =                       -231.0683217805149070
  Basis Set: CC-PVTZ
  Basis Set:
  Basis Set: CC-PVTZ
  Basis Set:
  @DF-RHF Final Energy:  -231.06832882700206
    Total Energy =                       -231.0683288270020626
  Basis Set: CC-PVTZ
  Basis Set:
  Charge       = 0
  Multiplicity = 1
  Basis Set: CC-PVTZ
  Basis Set:

    Orbital Energies (a.u.)
    -----------------------

    Doubly Occupied:

       1A    -20.551902     2A    -11.321988     3A    -11.237162
       4A    -11.234711     5A    -11.220123     6A     -1.406885
       7A     -1.086738     8A     -0.973904     9A     -0.852782
      10A     -0.785231    11A     -0.669836    12A     -0.648205
      13A     -0.631130    14A     -0.601285    15A     -0.558701
      16A     -0.532801    17A     -0.511761    18A     -0.491079
      19A     -0.482927    20A     -0.412618

  @DF-RHF Final Energy:  -231.06832940907705

   => Energetics <=

    Nuclear Repulsion Energy =            174.4768364793212925
    One-Electron Energy =                -658.6668005463491227
    Two-Electron Energy =                 253.1216346579507217
    DFT Exchange-Correlation Energy =       0.0000000000000000
    Empirical Dispersion Energy =           0.0000000000000000
    PCM Polarization Energy =               0.0000000000000000
    EFP Energy =                            0.0000000000000000
    Total Energy =                       -231.0683294090771369
    Molecular point group: c1
  Basis Set: CC-PVTZ
  Basis Set:

  -Total Gradient:
     Atom            X                  Y                   Z
    ------   -----------------  -----------------  -----------------
       1        0.000030064218     0.000004353118     0.000014956736
       2       -0.000051979818    -0.000034848463     0.000008171237
       3        0.000612409722    -0.006970921932    -0.002217860736
       4        0.000002063062    -0.000003817345    -0.000004282374
       5        0.000934450251     0.005242754383     0.004847554476
       6       -0.000566661510     0.005059000394     0.001098802527
       7       -0.000034290358    -0.000021640024     0.000007326820
       8       -0.000013191524     0.000004955697     0.000000641798
       9       -0.000917862242    -0.003285238541    -0.003761447058
      10       -0.000003893467    -0.000000366276     0.000000899855
      11       -0.000002193346    -0.000001179469     0.000006258919
      12        0.000005093207     0.000002752039     0.000002257054
      13        0.000005991807     0.000004196420    -0.000003279254

  **** Optimization is complete! (in 7 steps) ****
    Final optimized geometry and variables:
    Molecular point group: c1

    Geometry (in Angstrom), charge = 0, multiplicity = 1:

    H            1.242235313645    -0.446237599827     1.194169068401
    C            1.131014716144    -0.143376161531     0.144532101795
    C            0.132466800369     0.952365148598    -0.098421569735
    O            1.786199482038    -0.660659323490    -0.692545245621
    C           -1.261077379610     0.674448774863     0.487843140266
    H            0.079363597235     1.175925518722    -1.155610230806
    H            0.536496135681     1.842664327592     0.380794831300
    C           -1.784917834885    -0.731270561533     0.191011723443
    H           -1.951053480922     1.379934970171     0.040524379573
    H           -1.260804211036     0.848341550813     1.557884508541
    H           -1.792424596976    -0.926173280852    -0.875670975231
    H           -2.797831796993    -0.845561318066     0.557745976169
    H           -1.180177725396    -1.499677272748     0.659319288741

  Mulliken Charges: (a.u.)
   Center  Symbol    Alpha    Beta     Spin     Total
       1     H     0.46282  0.46282  0.00000  0.07435
       2     C     2.90406  2.90406  0.00000  0.19188
       3     C     3.09074  3.09074  0.00000 -0.18148
       4     O     4.16585  4.16585  0.00000 -0.33170
       5     C     3.10151  3.10151  0.00000 -0.20303
       6     H     0.44080  0.44080  0.00000  0.11840
       7     H     0.44536  0.44536  0.00000  0.10928
       8     C     3.14696  3.14696  0.00000 -0.29393
       9     H     0.44500  0.44500  0.00000  0.11001
      10     H     0.44793  0.44793  0.00000  0.10415
      11     H     0.44760  0.44760  0.00000  0.10480
      12     H     0.44713  0.44713  0.00000  0.10575
      13     H     0.45425  0.45425  0.00000  0.09151

   Total alpha = 20.00000, Total beta = 20.00000, Total charge = -0.00000
