  ==> Input File <==

--------------------------------------------------------------------------
set {
	reference rhf
	basis cc-pvtz
}

set_num_threads( 4 )
memory 2 gb

molecule MOL {
0 1

H	 1.251327	 -0.704668	 0.949381
C	 0.788096	 -0.429819	 0.000000
N	 -0.537714	 -0.645117	 0.000000
O	 1.425478	 0.007442	 -0.905133
C	 -1.522613	 0.412524	 0.000000
H	 -0.845894	 -1.585866	 0.000000
H	 -2.150256	 0.356137	 -0.880771
H	 -1.005621	 1.357208	 0.000000
H	 -2.150256	 0.356137	 0.880771

	symmetry c1
}
set optking {
	frozen_dihedral = ("
		1 2 3 6
	")
}

ee = optimize('scf')
oeprop('DIPOLE', 'QUADRUPOLE', 'MULLIKEN_CHARGES')
f=open( 'psi4out.xyz', 'w' )
f.write( "9  " )
f.write( str(ee) + "\n" )
f.write( MOL.save_string_xyz() )
f.close()
--------------------------------------------------------------------------

    Molecular point group: c1
  Charge       = 0
  Multiplicity = 1
  Basis Set: CC-PVTZ
  Basis Set:
  @DF-RHF Final Energy:  -208.00531963342141
    Total Energy =                       -208.0053196334215500
    Molecular point group: c1
  Basis Set: CC-PVTZ
  Basis Set:
  Basis Set: CC-PVTZ
  Basis Set:
  @DF-RHF Final Energy:  -208.01231549595877
    Total Energy =                       -208.0123154959588305
  Basis Set: CC-PVTZ
  Basis Set:
  Basis Set: CC-PVTZ
  Basis Set:
  @DF-RHF Final Energy:  -208.02010054746597
    Total Energy =                       -208.0201005474660292
  Basis Set: CC-PVTZ
  Basis Set:
  Basis Set: CC-PVTZ
  Basis Set:
  @DF-RHF Final Energy:  -208.02621397738602
    Total Energy =                       -208.0262139773859928
  Basis Set: CC-PVTZ
  Basis Set:
  @DF-RHF Final Energy:  -208.02850821900552
    Total Energy =                       -208.0285082190056016
  @DF-RHF Final Energy:  -208.02921462866877
    Total Energy =                       -208.0292146286687398
  @DF-RHF Final Energy:  -208.02989382571593
    Total Energy =                       -208.0298938257158738
  @DF-RHF Final Energy:  -208.03025420836047
    Total Energy =                       -208.0302542083605601
  @DF-RHF Final Energy:  -208.03029226822895
    Total Energy =                       -208.0302922682290045
  @DF-RHF Final Energy:  -208.03028652692217
    Total Energy =                       -208.0302865269221115
  @DF-RHF Final Energy:  -208.02063816329377
    Total Energy =                       -208.0206381632937962
  Basis Set: CC-PVTZ
  Basis Set:
  @DF-RHF Final Energy:  -208.02935579130536
    Total Energy =                       -208.0293557913053064
  Basis Set: CC-PVTZ
  Basis Set:
  Basis Set: CC-PVTZ
  Basis Set:
  @DF-RHF Final Energy:  -208.03029069108766
    Total Energy =                       -208.0302906910876857
  Basis Set: CC-PVTZ
  Basis Set:
  Basis Set: CC-PVTZ
  Basis Set:
  @DF-RHF Final Energy:  -208.03029577108799
    Total Energy =                       -208.0302957710879355
  Basis Set: CC-PVTZ
  Basis Set:
  Charge       = 0
  Multiplicity = 1
  Basis Set: CC-PVTZ
  Basis Set:

    Orbital Energies (a.u.)
    -----------------------

    Doubly Occupied:

       1A    -20.543320     2A    -15.577260     3A    -11.344219
       4A    -11.251766     5A     -1.414756     6A     -1.231325
       7A     -0.953593     8A     -0.808039     9A     -0.732307
      10A     -0.656001    11A     -0.646953    12A     -0.573230
      13A     -0.549253    14A     -0.535750    15A     -0.442868
      16A     -0.414076

  @DF-RHF Final Energy:  -208.03029599091894

   => Energetics <=

    Nuclear Repulsion Energy =            122.9559160687380626
    One-Electron Energy =                -526.6229941613837582
    Two-Electron Energy =                 195.6367821017268795
    DFT Exchange-Correlation Energy =       0.0000000000000000
    Empirical Dispersion Energy =           0.0000000000000000
    PCM Polarization Energy =               0.0000000000000000
    EFP Energy =                            0.0000000000000000
    Total Energy =                       -208.0302959909188019
    Molecular point group: c1
  Basis Set: CC-PVTZ
  Basis Set:

  -Total Gradient:
     Atom            X                  Y                   Z
    ------   -----------------  -----------------  -----------------
       1        0.002554899863     0.010188825727     0.007152530252
       2       -0.004700163023    -0.012319754219    -0.012519886913
       3        0.007674920657    -0.001762689488     0.017663322718
       4        0.000031396460    -0.000020812720     0.000007866460
       5       -0.000060955449    -0.000154787454    -0.000120710647
       6       -0.005464379464     0.004041970385    -0.012172302623
       7       -0.000005724214     0.000006670975     0.000003033562
       8       -0.000009622745     0.000002008255    -0.000008136811
       9       -0.000020372087     0.000018568541    -0.000005716000

  **** Optimization is complete! (in 15 steps) ****
    Final optimized geometry and variables:
    Molecular point group: c1

    Geometry (in Angstrom), charge = 0, multiplicity = 1:

    H            1.540685826403    -0.981573938225     0.644376536878
    C            0.805335296567    -0.403576880226     0.083202706226
    N           -0.466451252706    -0.474420494855     0.629678089153
    O            1.135567765232     0.334985743837    -0.779452596444
    C           -1.414428011688     0.514546731086     0.122185076314
    H           -0.854183052052    -1.387642123735     0.503797475620
    H           -1.577020483585     0.439353328686    -0.946384013981
    H           -1.044006060508     1.505516341457     0.335857699170
    H           -2.354361026067     0.378345070706     0.638345575271

  Mulliken Charges: (a.u.)
   Center  Symbol    Alpha    Beta     Spin     Total
       1     H     0.45183  0.45183  0.00000  0.09633
       2     C     2.88493  2.88493  0.00000  0.23014
       3     N     3.60994  3.60994  0.00000 -0.21988
       4     O     4.18576  4.18576  0.00000 -0.37152
       5     C     3.08363  3.08363  0.00000 -0.16726
       6     H     0.43164  0.43164  0.00000  0.13672
       7     H     0.45523  0.45523  0.00000  0.08955
       8     H     0.44539  0.44539  0.00000  0.10922
       9     H     0.45165  0.45165  0.00000  0.09669

   Total alpha = 16.00000, Total beta = 16.00000, Total charge =  0.00000
