                              Psi4 1.0.54 Driver

  ==> Input File <==

--------------------------------------------------------------------------
set {
	reference rhf
	basis cc-pvtz
}

set_num_threads( 4 )
memory 2 gb

molecule MOL {
0 1

H	 2.614283	 2.028610	 0.296620
O	 3.358864	 1.662087	 -0.142800
C	 3.565468	 0.338079	 0.273842
C	 2.334364	 -0.299741	 0.900145
H	 3.844898	 -0.211127	 -0.615130
H	 4.405801	 0.283982	 0.963308
C	 1.896417	 0.340875	 2.215312
H	 1.520115	 -0.256135	 0.183030
H	 2.551762	 -1.351948	 1.067466
C	 0.678252	 -0.346289	 2.830710
H	 1.673179	 1.389092	 2.046758
H	 2.721443	 0.306701	 2.924854
C	 0.240402	 0.207985	 4.187664
H	 -0.154318	 -0.288105	 2.133810
H	 0.900749	 -1.403336	 2.947398
C	 -0.309451	 1.632932	 4.157136
H	 -0.524345	 -0.448599	 4.593355
H	 1.076940	 0.160169	 4.881258
C	 -0.824124	 2.103795	 5.515005
H	 -1.116536	 1.689539	 3.429896
H	 0.456957	 2.321972	 3.815309
C	 -1.370384	 3.527457	 5.488922
H	 -1.601216	 1.426545	 5.858573
H	 -0.021255	 2.039834	 6.244643
H	 -2.196721	 3.616844	 4.791488
H	 -1.729246	 3.828763	 6.466439
H	 -0.605805	 4.234974	 5.185294

	symmetry c1
}
set optking {
	frozen_dihedral = ("
		4 3 2 1
	")
}

ee,wfn = optimize('scf', return_wfn=True)
oeprop( wfn, 'DIPOLE', 'QUADRUPOLE', 'MULLIKEN_CHARGES')
f=open( 'psi4out.xyz', 'w' )
f.write( "27  " )
f.write( str(ee) + "\n" )
f.write( MOL.save_string_xyz() )
f.close()
--------------------------------------------------------------------------

    Molecular point group: c1
  Charge       = 0
  Multiplicity = 1
  Basis Set: CC-PVTZ
  Basis Set:
  @DF-RHF Final Energy:  -388.42540829653836
    Total Energy =                       -388.4254082965380803
    Molecular point group: c1
  Basis Set: CC-PVTZ
  Basis Set:
  Basis Set: CC-PVTZ
  Basis Set:
  @DF-RHF Final Energy:  -388.42558615661090
    Total Energy =                       -388.4255861566103931
  Basis Set: CC-PVTZ
  Basis Set:
  Basis Set: CC-PVTZ
  Basis Set:
  @DF-RHF Final Energy:  -388.42565774343933
    Total Energy =                       -388.4256577434393876
  Basis Set: CC-PVTZ
  Basis Set:
  Charge       = 0
  Multiplicity = 1
  Basis Set: CC-PVTZ
  Basis Set:

    Orbital Energies (a.u.)
    -----------------------

    Doubly Occupied:

       1A    -20.542172     2A    -11.264049     3A    -11.221459
       4A    -11.220193     5A    -11.217975     6A    -11.215449
       7A    -11.215175     8A    -11.213824     9A    -11.208260
      10A     -1.360737    11A     -1.099183    12A     -1.065149
      13A     -1.014435    14A     -0.950841    15A     -0.890990
      16A     -0.825643    17A     -0.806123    18A     -0.781337
      19A     -0.673054    20A     -0.658079    21A     -0.647973
      22A     -0.623053    23A     -0.608880    24A     -0.585697
      25A     -0.578193    26A     -0.563835    27A     -0.540814
      28A     -0.530456    29A     -0.508765    30A     -0.496698
      31A     -0.488582    32A     -0.479440    33A     -0.468762
      34A     -0.462806    35A     -0.450449    36A     -0.439891
      37A     -0.431813

  @DF-RHF Final Energy:  -388.42565738600189

   => Energetics <=

    Nuclear Repulsion Energy =            460.2320971263536080
    One-Electron Energy =               -1438.6150346833117055
    Two-Electron Energy =                 589.9572801709559826
    DFT Exchange-Correlation Energy =       0.0000000000000000
    Empirical Dispersion Energy =           0.0000000000000000
    PCM Polarization Energy =               0.0000000000000000
    EFP Energy =                            0.0000000000000000
    Total Energy =                       -388.4256573860020580
    Molecular point group: c1
  Basis Set: CC-PVTZ
  Basis Set:

  -Total Gradient:
     Atom            X                  Y                   Z
    ------   -----------------  -----------------  -----------------
       1       -0.000754810528    -0.000514829752    -0.001051275454
       2        0.001038560044     0.000645330027     0.001505850926
       3       -0.000431446840    -0.000475363460    -0.001144477043
       4        0.000179237460     0.000339344973     0.000692309886
       5       -0.000047169010     0.000050223926    -0.000011025433
       6        0.000038252760    -0.000050321831     0.000011686570
       7        0.000004652405     0.000025678031    -0.000025490572
       8       -0.000051095474    -0.000001423358     0.000009794597
       9        0.000009968030     0.000032148115    -0.000021399378
      10        0.000052766186    -0.000092141559     0.000023420981
      11       -0.000016467921     0.000048304570     0.000067476248
      12       -0.000045006940     0.000021791269    -0.000034509761
      13       -0.000032407331    -0.000025272463     0.000011996287
      14        0.000020173427    -0.000002594980     0.000019100734
      15        0.000013685393    -0.000016154457    -0.000012973562
      16       -0.000003113266    -0.000014634159    -0.000025113315
      17       -0.000017892668     0.000018436287    -0.000004981342
      18       -0.000020633697    -0.000018651774     0.000008866838
      19        0.000023867618     0.000016151010     0.000005619226
      20       -0.000000504005    -0.000010791201     0.000015109626
      21        0.000031089752     0.000020060427    -0.000042067547
      22        0.000007573635     0.000004888832     0.000005439611
      23        0.000002967677     0.000001450410    -0.000011426915
      24       -0.000002069114     0.000000345376     0.000007587603
      25        0.000001143184    -0.000003294284     0.000001703691
      26       -0.000000977235     0.000000537848    -0.000001794888
      27       -0.000000343540     0.000000782181     0.000000572388

  **** Optimization is complete! (in 4 steps) ****
    Final optimized geometry and variables:
    Molecular point group: c1

    Geometry (in Angstrom), charge = 0, multiplicity = 1:

    H            1.523591041209     1.010451609665    -2.555598865219
    O            2.283709197196     0.633596550167    -2.955671559412
    C            2.492992770402    -0.675580104741    -2.491473612883
    C            1.259160450215    -1.322445786917    -1.881053377580
    H            2.826437915767    -1.259755810601    -3.339947705403
    H            3.299858265244    -0.672554907080    -1.762304469331
    C            0.796826848015    -0.690840613130    -0.568075829144
    H            0.451785342587    -1.298014431536    -2.609006696381
    H            1.486175521798    -2.370386680836    -1.707828477427
    C           -0.431484805794    -1.385568098344     0.017952234174
    H            0.578775685700     0.362534066093    -0.715966526976
    H            1.611165262580    -0.731766033029     0.151035898180
    C           -0.880920352210    -0.859516624337     1.382309460721
    H           -1.256832756050    -1.308707268848    -0.685877866745
    H           -0.214563064992    -2.445858102740     0.113046990685
    C           -1.406064586171     0.575019886107     1.381229345919
    H           -1.662558801469    -1.513380106499     1.758825590778
    H           -0.056005687999    -0.939680152637     2.086409183261
    C           -1.931481281141     1.019656362527     2.743765289712
    H           -2.202278901742     0.664166808770     0.645164699088
    H           -0.623184390414     1.259348747016     1.068496412481
    C           -2.451109125352     2.453395039506     2.747749998952
    H           -2.725530671926     0.348147828273     3.058479877484
    H           -1.140282097768     0.921754536400     3.482142742348
    H           -3.266176531224     2.576278515418     2.042197406539
    H           -2.817727687492     2.735713448265     3.727952116441
    H           -1.669590326391     3.154091564983     2.473074519101

  Mulliken Charges: (a.u.)
   Center  Symbol    Alpha    Beta     Spin     Total
       1     H     0.39086  0.39086  0.00000  0.21828
       2     O     4.20880  4.20880  0.00000 -0.41760
       3     C     2.95613  2.95613  0.00000  0.08774
       4     C     3.10941  3.10941  0.00000 -0.21882
       5     H     0.45867  0.45867  0.00000  0.08266
       6     H     0.47607  0.47607  0.00000  0.04786
       7     C     3.09320  3.09320  0.00000 -0.18640
       8     H     0.44885  0.44885  0.00000  0.10230
       9     H     0.45213  0.45213  0.00000  0.09575
      10     C     3.09926  3.09926  0.00000 -0.19851
      11     H     0.45993  0.45993  0.00000  0.08015
      12     H     0.45087  0.45087  0.00000  0.09826
      13     C     3.09771  3.09771  0.00000 -0.19542
      14     H     0.45220  0.45220  0.00000  0.09559
      15     H     0.44700  0.44700  0.00000  0.10599
      16     C     3.08925  3.08925  0.00000 -0.17851
      17     H     0.44770  0.44770  0.00000  0.10460
      18     H     0.45286  0.45286  0.00000  0.09429
      19     C     3.08408  3.08408  0.00000 -0.16816
      20     H     0.45475  0.45475  0.00000  0.09049
      21     H     0.45429  0.45429  0.00000  0.09142
      22     C     3.14972  3.14972  0.00000 -0.29945
      23     H     0.45363  0.45363  0.00000  0.09273
      24     H     0.45418  0.45418  0.00000  0.09165
      25     H     0.45515  0.45515  0.00000  0.08969
      26     H     0.44800  0.44800  0.00000  0.10399
      27     H     0.45528  0.45528  0.00000  0.08943

   Total alpha = 37.00000, Total beta = 37.00000, Total charge = -0.00000

*** Psi4 exiting successfully. Buy a developer a beer!
