  ==> Input File <==

--------------------------------------------------------------------------
set {
	reference rhf
	basis 6-31G*
}

set_num_threads( 1 )
memory 2 gb

molecule MOL {
0 1

H	 -4.236494	 0.538104	 0.039757
O	 -3.517110	 -0.026191	 -0.205115
C	 -2.306886	 0.532354	 0.237577
C	 -1.177863	 -0.397191	 -0.171080
H	 -2.156308	 1.517575	 -0.201710
H	 -2.315015	 0.655684	 1.319734
C	 0.198102	 0.111031	 0.262842
H	 -1.208843	 -0.518759	 -1.250427
H	 -1.368741	 -1.376554	 0.258909
C	 1.331804	 -0.827780	 -0.158768
H	 0.361943	 1.100838	 -0.156218
H	 0.217265	 0.229072	 1.345532
C	 2.723619	 -0.410569	 0.329459
H	 1.342964	 -0.912588	 -1.244120
H	 1.116806	 -1.824343	 0.220779
C	 3.687055	 0.012096	 -0.781162
H	 3.161802	 -1.244911	 0.871636
H	 2.624314	 0.399388	 1.049371
H	 3.796233	 -0.774428	 -1.523118
H	 3.349080	 0.906312	 -1.294317
H	 4.672446	 0.222596	 -0.376875

	symmetry c1
}
set optking {
	frozen_dihedral = ("
		2 3 4 8,
		8 4 7 10,
		4 7 10 14,
		1 2 3 5
	")
}

ee = energy('scf')
oeprop('DIPOLE', 'QUADRUPOLE', 'MULLIKEN_CHARGES')
f=open( 'psi4out.xyz', 'w' )
f.write( "21  " )
f.write( str(ee) + "\n" )
f.write( MOL.save_string_xyz() )
f.close()
--------------------------------------------------------------------------

    Molecular point group: c1

    Geometry (in Angstrom), charge = 0, multiplicity = 1:

       Center              X                  Y                   Z               Mass
    ------------   -----------------  -----------------  -----------------  -----------------
           H         -4.301572174592     0.668070026404     0.114218109870     1.007825032070
           O         -3.582188174592     0.103775026404    -0.130653890130    15.994914619560
           C         -2.371964174592     0.662320026404     0.312038109870    12.000000000000
           C         -1.242941174592    -0.267224973596    -0.096618890130    12.000000000000
           H         -2.221386174592     1.647541026404    -0.127248890130     1.007825032070
           H         -2.380093174592     0.785650026404     1.394195109870     1.007825032070
           C          0.133023825408     0.240997026404     0.337303109870    12.000000000000
           H         -1.273921174592    -0.388792973596    -1.175965890130     1.007825032070
           H         -1.433819174592    -1.246587973596     0.333370109870     1.007825032070
           C          1.266725825408    -0.697813973596    -0.084306890130    12.000000000000
           H          0.296864825408     1.230804026404    -0.081756890130     1.007825032070
           H          0.152186825408     0.359038026404     1.419993109870     1.007825032070
           C          2.658540825408    -0.280602973596     0.403920109870    12.000000000000
           H          1.277885825408    -0.782621973596    -1.169658890130     1.007825032070
           H          1.051727825408    -1.694376973596     0.295240109870     1.007825032070
           C          3.621976825408     0.142062026404    -0.706700890130    12.000000000000
           H          3.096723825408    -1.114944973596     0.946097109870     1.007825032070
           H          2.559235825408     0.529354026404     1.123832109870     1.007825032070
           H          3.731154825408    -0.644461973596    -1.448656890130     1.007825032070
           H          3.284001825408     1.036278026404    -1.219855890130     1.007825032070
           H          4.607367825408     0.352562026404    -0.302413890130     1.007825032070

  Charge       = 0
  Multiplicity = 1
  Basis Set: 6-31G*
  Basis Set:

    Orbital Energies (a.u.)
    -----------------------

    Doubly Occupied:

       1A    -20.551803     2A    -11.267040     3A    -11.216497
       4A    -11.213555     5A    -11.212080     6A    -11.210358
       7A    -11.208410     8A     -1.358628     9A     -1.085424
      10A     -1.033749    11A     -0.956038    12A     -0.870500
      13A     -0.803974    14A     -0.787015    15A     -0.692385
      16A     -0.661200    17A     -0.621211    18A     -0.606752
      19A     -0.586409    20A     -0.564077    21A     -0.539775
      22A     -0.523657    23A     -0.507719    24A     -0.486288
      25A     -0.478621    26A     -0.462405    27A     -0.452719
      28A     -0.442085    29A     -0.433927

  @DF-RHF Final Energy:  -310.20839769296583

   => Energetics <=

    Nuclear Repulsion Energy =            309.8863647177902294
    One-Electron Energy =               -1034.5211405761078822
    Two-Electron Energy =                 414.4263781653522187
    DFT Exchange-Correlation Energy =       0.0000000000000000
    Empirical Dispersion Energy =           0.0000000000000000
    PCM Polarization Energy =               0.0000000000000000
    EFP Energy =                            0.0000000000000000
    Total Energy =                       -310.2083976929654341

  Mulliken Charges: (a.u.)
   Center  Symbol    Alpha    Beta     Spin     Total
       1     H     0.28119  0.28119  0.00000  0.43762
       2     O     4.37173  4.37173  0.00000 -0.74346
       3     C     2.98981  2.98981  0.00000  0.02038
       4     C     3.15994  3.15994  0.00000 -0.31989
       5     H     0.43296  0.43296  0.00000  0.13408
       6     H     0.43289  0.43289  0.00000  0.13422
       7     C     3.16164  3.16164  0.00000 -0.32328
       8     H     0.41470  0.41470  0.00000  0.17060
       9     H     0.41468  0.41468  0.00000  0.17063
      10     C     3.15401  3.15401  0.00000 -0.30802
      11     H     0.42318  0.42318  0.00000  0.15363
      12     H     0.42321  0.42321  0.00000  0.15358
      13     C     3.15496  3.15496  0.00000 -0.30993
      14     H     0.42004  0.42004  0.00000  0.15993
      15     H     0.42024  0.42024  0.00000  0.15951
      16     C     3.23981  3.23981  0.00000 -0.47963
      17     H     0.42041  0.42041  0.00000  0.15918
      18     H     0.42102  0.42102  0.00000  0.15795
      19     H     0.42127  0.42127  0.00000  0.15746
      20     H     0.42176  0.42176  0.00000  0.15647
      21     H     0.42052  0.42052  0.00000  0.15896

   Total alpha = 29.00000, Total beta = 29.00000, Total charge = -0.00000
