  ==> Input File <==

--------------------------------------------------------------------------
set {
	reference rhf
	basis 6-31G*
}

set_num_threads( 4 )
memory 2 gb

molecule MOL {
0 1

H	 3.729471	 -0.928294	 -0.070608
O	 2.826016	 -1.159218	 0.122261
C	 2.077727	 -0.067559	 -0.035091
C	 0.624473	 -0.343591	 0.253101
O	 2.542965	 0.974826	 -0.363729
C	 -0.265902	 0.883932	 0.072916
H	 0.324016	 -1.163849	 -0.390541
H	 0.565024	 -0.726111	 1.268924
C	 -1.728698	 0.646073	 0.462102
H	 -0.209144	 1.219470	 -0.958188
H	 0.135059	 1.692851	 0.673903
C	 -2.482460	 -0.343073	 -0.431425
H	 -2.245265	 1.602650	 0.432430
H	 -1.779332	 0.308348	 1.496285
C	 -2.973800	 -1.570528	 0.335659
H	 -3.331948	 0.161629	 -0.887154
H	 -1.845976	 -0.670600	 -1.249347
H	 -3.502830	 -2.256881	 -0.318067
H	 -3.650999	 -1.287140	 1.136235
H	 -2.144152	 -2.111817	 0.781673

	symmetry c1
}
set optking {
	frozen_dihedral = ("
		16 12 9 6
	")
}

ee = optimize('scf')
oeprop('DIPOLE', 'QUADRUPOLE', 'MULLIKEN_CHARGES')
f=open( 'psi4out.xyz', 'w' )
f.write( "20  " )
f.write( str(ee) + "\n" )
f.write( MOL.save_string_xyz() )
f.close()
--------------------------------------------------------------------------

    Molecular point group: c1
  Charge       = 0
  Multiplicity = 1
  Basis Set: 6-31G*
  Basis Set:
  @DF-RHF Final Energy:  -383.94303544393324
    Total Energy =                       -383.9430354439334678
    Molecular point group: c1
  Basis Set: 6-31G*
  Basis Set:
  Basis Set: 6-31G*
  Basis Set:
  @DF-RHF Final Energy:  -383.94336685320070
    Total Energy =                       -383.9433668532006436
  Basis Set: 6-31G*
  Basis Set:
  Basis Set: 6-31G*
  Basis Set:
  @DF-RHF Final Energy:  -383.94333516127756
    Total Energy =                       -383.9433351612774459
  Basis Set: 6-31G*
  Basis Set:
  Basis Set: 6-31G*
  Basis Set:
  @DF-RHF Final Energy:  -383.94344813320299
    Total Energy =                       -383.9434481332027644
  Basis Set: 6-31G*
  Basis Set:
  Basis Set: 6-31G*
  Basis Set:
  @DF-RHF Final Energy:  -383.94322004384338
    Total Energy =                       -383.9432200438434393
  Basis Set: 6-31G*
  Basis Set:
  Basis Set: 6-31G*
  Basis Set:
  @DF-RHF Final Energy:  -383.94346563042404
    Total Energy =                       -383.9434656304238729
  Basis Set: 6-31G*
  Basis Set:
  Basis Set: 6-31G*
  Basis Set:
  @DF-RHF Final Energy:  -383.94346712385436
    Total Energy =                       -383.9434671238544752
  Basis Set: 6-31G*
  Basis Set:
  Charge       = 0
  Multiplicity = 1
  Basis Set: 6-31G*
  Basis Set:

    Orbital Energies (a.u.)
    -----------------------

    Doubly Occupied:

       1A    -20.612644     2A    -20.551725     3A    -11.381297
       4A    -11.240405     5A    -11.223145     6A    -11.220518
       7A    -11.219903     8A    -11.213618     9A     -1.474699
      10A     -1.365763    11A     -1.095355    12A     -1.038477
      13A     -0.962256    14A     -0.870391    15A     -0.814013
      16A     -0.778479    17A     -0.699664    18A     -0.690736
      19A     -0.664490    20A     -0.625543    21A     -0.608704
      22A     -0.596112    23A     -0.579844    24A     -0.553916
      25A     -0.535537    26A     -0.511614    27A     -0.502798
      28A     -0.479179    29A     -0.470223    30A     -0.462872
      31A     -0.456335    32A     -0.442940

  @DF-RHF Final Energy:  -383.94346719797198

   => Energetics <=

    Nuclear Repulsion Energy =            379.9174444449943735
    One-Electron Energy =               -1275.8354271207986130
    Two-Electron Energy =                 511.9745154778323695
    DFT Exchange-Correlation Energy =       0.0000000000000000
    Empirical Dispersion Energy =           0.0000000000000000
    PCM Polarization Energy =               0.0000000000000000
    EFP Energy =                            0.0000000000000000
    Total Energy =                       -383.9434671979719269
    Molecular point group: c1
  Basis Set: 6-31G*
  Basis Set:

  -Total Gradient:
     Atom            X                  Y                   Z
    ------   -----------------  -----------------  -----------------
       1        0.000001637375    -0.000000631442     0.000001647755
       2        0.000002159178    -0.000002003556    -0.000007060778
       3        0.000001860390     0.000004958918     0.000005624529
       4       -0.000004726329    -0.000002886402    -0.000023921185
       5        0.000001347891    -0.000002205525     0.000006874099
       6       -0.000077315875     0.000202174220    -0.000181344987
       7       -0.000004588756    -0.000001063293     0.000008555882
       8        0.000001914091     0.000006369799     0.000004757653
       9        0.000169743673    -0.000262059523     0.000176571330
      10        0.000007217934     0.000005162455    -0.000002902305
      11       -0.000004737954    -0.000006586454     0.000002193170
      12       -0.000310755347    -0.000041396442     0.000285223715
      13       -0.000004459175    -0.000007561864    -0.000002967485
      14       -0.000006736836    -0.000001469072     0.000001168994
      15        0.000001412318    -0.000003148179     0.000011089849
      16        0.000223979976     0.000107549521    -0.000283298128
      17        0.000002351777     0.000008671537    -0.000005439142
      18        0.000009695956     0.000001858468    -0.000003135556
      19       -0.000008642301    -0.000003828017    -0.000004459101
      20       -0.000001357989    -0.000001905151     0.000010821688

  **** Optimization is complete! (in 8 steps) ****
    Final optimized geometry and variables:
    Molecular point group: c1

    Geometry (in Angstrom), charge = 0, multiplicity = 1:

    H            3.584755393482    -0.810444361045    -0.151974746616
    O            2.689161132913    -1.018175757511     0.096067475084
    C            1.942297589697     0.067366711804    -0.104088987612
    C            0.501389690166    -0.172401643223     0.266247588696
    O            2.399515170717     1.079856477525    -0.524576801787
    C           -0.386743224031     1.051133580716     0.053635911321
    H            0.161569071661    -1.026800777519    -0.311232999483
    H            0.484707774657    -0.491883119017     1.304950060186
    C           -1.850284465373     0.807286419077     0.438236187531
    H           -0.326018952859     1.364546482836    -0.983784301498
    H            0.008358140929     1.873490247074     0.640699158977
    C           -2.600189598175    -0.195058135127    -0.471139270298
    H           -2.362484130566     1.764351763741     0.419723053751
    H           -1.894117513736     0.470034043275     1.471890678521
    C           -3.094342495674    -1.443577508973     0.261104601617
    H           -3.449549555070     0.299485317220    -0.932725888566
    H           -1.959310859879    -0.498197175892    -1.295321066107
    H           -3.611486900900    -2.117319253556    -0.415199163376
    H           -3.783975203353    -1.180421415895     1.057962875969
    H           -2.270275228552    -1.992061274836     0.709181634190

  Mulliken Charges: (a.u.)
   Center  Symbol    Alpha    Beta     Spin     Total
       1     H     0.26784  0.26784  0.00000  0.46432
       2     O     4.35151  4.35151  0.00000 -0.70302
       3     C     2.62243  2.62243  0.00000  0.75514
       4     C     3.21231  3.21231  0.00000 -0.42462
       5     O     4.27919  4.27919  0.00000 -0.55838
       6     C     3.15511  3.15511  0.00000 -0.31023
       7     H     0.39709  0.39709  0.00000  0.20581
       8     H     0.39893  0.39893  0.00000  0.20214
       9     C     3.16038  3.16038  0.00000 -0.32077
      10     H     0.41086  0.41086  0.00000  0.17827
      11     H     0.41020  0.41020  0.00000  0.17961
      12     C     3.15812  3.15812  0.00000 -0.31625
      13     H     0.41479  0.41479  0.00000  0.17043
      14     H     0.42078  0.42078  0.00000  0.15844
      15     C     3.24039  3.24039  0.00000 -0.48078
      16     H     0.41707  0.41707  0.00000  0.16585
      17     H     0.42119  0.42119  0.00000  0.15763
      18     H     0.41917  0.41917  0.00000  0.16165
      19     H     0.42006  0.42006  0.00000  0.15988
      20     H     0.42257  0.42257  0.00000  0.15487

   Total alpha = 32.00000, Total beta = 32.00000, Total charge = -0.00000
