  ==> Input File <==

--------------------------------------------------------------------------
set {
	reference rhf
	basis 6-31G*
}

set_num_threads( 1 )
memory 2 gb

molecule MOL {
0 1

O	 3.225979	 0.970355	 -0.599647
C	 2.701189	 0.057885	 -0.047330
C	 1.245376	 -0.013843	 0.345420
O	 3.347903	 -1.046386	 0.304773
C	 0.537706	 1.337574	 0.274773
H	 0.778108	 -0.751874	 -0.298135
H	 1.201827	 -0.426151	 1.350309
C	 -0.911986	 1.301742	 0.770358
H	 0.568347	 1.705479	 -0.746415
H	 1.098063	 2.052631	 0.867324
C	 -1.868156	 0.471750	 -0.091013
H	 -1.279579	 2.324480	 0.810450
H	 -0.935965	 0.932569	 1.794636
C	 -3.320844	 0.557019	 0.381665
H	 -1.805617	 0.811511	 -1.123714
H	 -1.560465	 -0.571463	 -0.093473
C	 -4.284593	 -0.272680	 -0.468581
H	 -3.641072	 1.597516	 0.374295
H	 -3.382346	 0.227546	 1.417698
C	 -5.733746	 -0.179044	 0.007747
H	 -4.223669	 0.054575	 -1.504358
H	 -3.968657	 -1.313772	 -0.458901
H	 -6.392166	 -0.777452	 -0.614344
H	 -6.091136	 0.846383	 -0.023371
H	 -5.833940	 -0.531946	 1.030339
C	 4.728119	 -1.109107	 -0.004993
H	 4.882018	 -1.033965	 -1.071845
H	 5.068212	 -2.067527	 0.355250
H	 5.265056	 -0.311663	 0.488280

	symmetry c1
}
set optking {
	frozen_dihedral = ("
		21 17 14 11,
		17 14 11 15,
		15 11 8 5,
		6 3 5 9,
		11 8 5 9,
		2 4 26 27,
		1 2 4 26
	")
}

ee = energy('scf')
oeprop('DIPOLE', 'QUADRUPOLE', 'MULLIKEN_CHARGES')
f=open( 'psi4out.xyz', 'w' )
f.write( "29  " )
f.write( str(ee) + "\n" )
f.write( MOL.save_string_xyz() )
f.close()
--------------------------------------------------------------------------

    Molecular point group: c1

    Geometry (in Angstrom), charge = 0, multiplicity = 1:

       Center              X                  Y                   Z               Mass
    ------------   -----------------  -----------------  -----------------  -----------------
           O          3.214254519429     0.797156664423    -0.674737285375    15.994914619560
           C          2.689464519429    -0.115313335577    -0.122420285375    12.000000000000
           C          1.233651519429    -0.187041335577     0.270329714625    12.000000000000
           O          3.336178519429    -1.219584335577     0.229682714625    15.994914619560
           C          0.525981519429     1.164375664423     0.199682714625    12.000000000000
           H          0.766383519429    -0.925072335577    -0.373225285375     1.007825032070
           H          1.190102519429    -0.599349335577     1.275218714625     1.007825032070
           C         -0.923710480571     1.128543664423     0.695267714625    12.000000000000
           H          0.556622519429     1.532280664423    -0.821505285375     1.007825032070
           H          1.086338519429     1.879432664423     0.792233714625     1.007825032070
           C         -1.879880480571     0.298551664423    -0.166103285375    12.000000000000
           H         -1.291303480571     2.151281664423     0.735359714625     1.007825032070
           H         -0.947689480571     0.759370664423     1.719545714625     1.007825032070
           C         -3.332568480571     0.383820664423     0.306574714625    12.000000000000
           H         -1.817341480571     0.638312664423    -1.198804285375     1.007825032070
           H         -1.572189480571    -0.744661335577    -0.168563285375     1.007825032070
           C         -4.296317480571    -0.445878335577    -0.543671285375    12.000000000000
           H         -3.652796480571     1.424317664423     0.299204714625     1.007825032070
           H         -3.394070480571     0.054347664423     1.342607714625     1.007825032070
           C         -5.745470480571    -0.352242335577    -0.067343285375    12.000000000000
           H         -4.235393480571    -0.118623335577    -1.579448285375     1.007825032070
           H         -3.980381480571    -1.486970335577    -0.533991285375     1.007825032070
           H         -6.403890480571    -0.950650335577    -0.689434285375     1.007825032070
           H         -6.102860480571     0.673184664423    -0.098461285375     1.007825032070
           H         -5.845664480571    -0.705144335577     0.955248714625     1.007825032070
           C          4.716394519429    -1.282305335577    -0.080083285375    12.000000000000
           H          4.870293519429    -1.207163335577    -1.146935285375     1.007825032070
           H          5.056487519429    -2.240725335577     0.280159714625     1.007825032070
           H          5.253331519429    -0.484861335577     0.413189714625     1.007825032070

  Charge       = 0
  Multiplicity = 1
  Basis Set: 6-31G*
  Basis Set:

    Orbital Energies (a.u.)
    -----------------------

    Doubly Occupied:

       1A    -20.603516     2A    -20.544904     3A    -11.371927
       4A    -11.280586     5A    -11.234565     6A    -11.219693
       7A    -11.217881     8A    -11.216116     9A    -11.215887
      10A    -11.214539    11A    -11.209073    12A     -1.469029
      13A     -1.362373    14A     -1.098234    15A     -1.066897
      16A     -1.019526    17A     -0.977211    18A     -0.928648
      19A     -0.861781    20A     -0.799311    21A     -0.790581
      22A     -0.764018    23A     -0.700515    24A     -0.682250
      25A     -0.672054    26A     -0.651073    27A     -0.628922
      28A     -0.604459    29A     -0.594311    30A     -0.580759
      31A     -0.568932    32A     -0.546977    33A     -0.533883
      34A     -0.530202    35A     -0.516560    36A     -0.511515
      37A     -0.496245    38A     -0.477605    39A     -0.470097
      40A     -0.462288    41A     -0.458626    42A     -0.456394
      43A     -0.442491    44A     -0.434030

  @DF-RHF Final Energy:  -501.04388900327092

   => Energetics <=

    Nuclear Repulsion Energy =            610.0438429790959844
    One-Electron Energy =               -1891.2025735792540218
    Two-Electron Energy =                 780.1148415968873451
    DFT Exchange-Correlation Energy =       0.0000000000000000
    Empirical Dispersion Energy =           0.0000000000000000
    PCM Polarization Energy =               0.0000000000000000
    EFP Energy =                            0.0000000000000000
    Total Energy =                       -501.0438890032705785

  Mulliken Charges: (a.u.)
   Center  Symbol    Alpha    Beta     Spin     Total
       1     O     4.28603  4.28603  0.00000 -0.57206
       2     C     2.60480  2.60480  0.00000  0.79041
       3     C     3.20975  3.20975  0.00000 -0.41950
       4     O     4.30726  4.30726  0.00000 -0.61452
       5     C     3.15432  3.15432  0.00000 -0.30864
       6     H     0.39810  0.39810  0.00000  0.20381
       7     H     0.40183  0.40183  0.00000  0.19634
       8     C     3.15639  3.15639  0.00000 -0.31279
       9     H     0.41026  0.41026  0.00000  0.17949
      10     H     0.41175  0.41175  0.00000  0.17651
      11     C     3.15513  3.15513  0.00000 -0.31027
      12     H     0.41824  0.41824  0.00000  0.16353
      13     H     0.42381  0.42381  0.00000  0.15239
      14     C     3.15031  3.15031  0.00000 -0.30063
      15     H     0.42222  0.42222  0.00000  0.15556
      16     H     0.42377  0.42377  0.00000  0.15246
      17     C     3.15148  3.15148  0.00000 -0.30297
      18     H     0.42330  0.42330  0.00000  0.15340
      19     H     0.42396  0.42396  0.00000  0.15207
      20     C     3.23936  3.23936  0.00000 -0.47872
      21     H     0.42270  0.42270  0.00000  0.15460
      22     H     0.42344  0.42344  0.00000  0.15312
      23     H     0.41920  0.41920  0.00000  0.16160
      24     H     0.42154  0.42154  0.00000  0.15693
      25     H     0.42184  0.42184  0.00000  0.15632
      26     C     3.09254  3.09254  0.00000 -0.18508
      27     H     0.40914  0.40914  0.00000  0.18172
      28     H     0.40852  0.40852  0.00000  0.18296
      29     H     0.40902  0.40902  0.00000  0.18196

   Total alpha = 44.00000, Total beta = 44.00000, Total charge = -0.00000
