                              Psi4 1.0.54 Driver

  ==> Input File <==

--------------------------------------------------------------------------
set {
	reference rhf
	basis cc-pvtz
}

set_num_threads( 4 )
memory 2 gb

molecule MOL {
0 1

O	 1.130310	 -0.353870	 0.056580
C	 0.029490	 0.077183	 0.000078
C	 -1.232113	 -0.748027	 0.000015
O	 -0.240632	 1.369872	 -0.072174
C	 -2.501422	 0.088592	 -0.000052
H	 -1.188777	 -1.400384	 -0.865133
H	 -1.188857	 -1.400312	 0.865225
H	 -2.548170	 0.725504	 -0.873205
H	 -3.371613	 -0.556398	 -0.000040
H	 -2.548215	 0.725571	 0.873047
C	 0.855324	 2.262314	 -0.080605
H	 1.436069	 2.161402	 0.824263
H	 0.432991	 3.252020	 -0.143387
H	 1.493222	 2.074456	 -0.931511

	symmetry c1
}
set optking {
	frozen_dihedral = ("
		4 2 3 6
	")
}

ee,wfn = optimize('scf', return_wfn=True)
oeprop( wfn, 'DIPOLE', 'QUADRUPOLE', 'MULLIKEN_CHARGES')
f=open( 'psi4out.xyz', 'w' )
f.write( "14  " )
f.write( str(ee) + "\n" )
f.write( MOL.save_string_xyz() )
f.close()
--------------------------------------------------------------------------

    Molecular point group: c1
  Charge       = 0
  Multiplicity = 1
  Basis Set: CC-PVTZ
  Basis Set:
  @DF-RHF Final Energy:  -305.98371986239977
    Total Energy =                       -305.9837198623998802
    Molecular point group: c1
  Basis Set: CC-PVTZ
  Basis Set:
  Basis Set: CC-PVTZ
  Basis Set:
  @DF-RHF Final Energy:  -305.98190782624090
    Total Energy =                       -305.9819078262408993
  Basis Set: CC-PVTZ
  Basis Set:
  Basis Set: CC-PVTZ
  Basis Set:
  @DF-RHF Final Energy:  -305.98502871710491
    Total Energy =                       -305.9850287171046830
  Basis Set: CC-PVTZ
  Basis Set:
  Basis Set: CC-PVTZ
  Basis Set:
  @DF-RHF Final Energy:  -305.98508439164857
    Total Energy =                       -305.9850843916485701
  Basis Set: CC-PVTZ
  Basis Set:
  Basis Set: CC-PVTZ
  Basis Set:
  @DF-RHF Final Energy:  -305.98504187068147
    Total Energy =                       -305.9850418706813571
  Basis Set: CC-PVTZ
  Basis Set:
  Charge       = 0
  Multiplicity = 1
  Basis Set: CC-PVTZ
  Basis Set:

    Orbital Energies (a.u.)
    -----------------------

    Doubly Occupied:

       1A    -20.600300     2A    -20.529966     3A    -11.365623
       4A    -11.280119     5A    -11.237552     6A    -11.219259
       7A     -1.474364     8A     -1.364893     9A     -1.067023
      10A     -0.976290    11A     -0.888325    12A     -0.777480
      13A     -0.697097    14A     -0.686561    15A     -0.675010
      16A     -0.622379    17A     -0.587227    18A     -0.559028
      19A     -0.549516    20A     -0.524138    21A     -0.517806
      22A     -0.500354    23A     -0.457327    24A     -0.437068

  @DF-RHF Final Energy:  -305.98509358063814

   => Energetics <=

    Nuclear Repulsion Energy =            248.8827206136914185
    One-Electron Energy =                -910.5462155206874968
    Two-Electron Energy =                 355.6784013263580846
    DFT Exchange-Correlation Energy =       0.0000000000000000
    Empirical Dispersion Energy =           0.0000000000000000
    PCM Polarization Energy =               0.0000000000000000
    EFP Energy =                            0.0000000000000000
    Total Energy =                       -305.9850935806380221
    Molecular point group: c1
  Basis Set: CC-PVTZ
  Basis Set:

  -Total Gradient:
     Atom            X                  Y                   Z
    ------   -----------------  -----------------  -----------------
       1       -0.000049261837     0.000224315267    -0.000067233809
       2        0.000038514657    -0.000239997581    -0.000049500483
       3       -0.000124512974     0.000210270094    -0.000084319331
       4       -0.000000756945    -0.000042092935     0.000090822591
       5        0.000120941566    -0.000047398002     0.000046380928
       6        0.000038695959    -0.000109430095     0.000055366231
       7       -0.000012489478    -0.000015122906     0.000027722390
       8        0.000013281397     0.000031491385    -0.000037093406
       9       -0.000017416640    -0.000016546774    -0.000004298810
      10        0.000006652246     0.000018235611     0.000008776915
      11       -0.000126213989    -0.000055533066     0.000012439036
      12        0.000027208956     0.000009021964     0.000049077444
      13        0.000044134469     0.000048991349    -0.000001975192
      14        0.000041222612    -0.000016204308    -0.000046164504

  **** Optimization is complete! (in 6 steps) ****
    Final optimized geometry and variables:
    Molecular point group: c1

    Geometry (in Angstrom), charge = 0, multiplicity = 1:

    O            1.293158626944    -0.973163958251     0.303722123953
    C            0.281118391571    -0.398282340291     0.083504734876
    C           -1.059163594060    -1.092532769118    -0.000367107771
    O            0.220780818458     0.904497178246    -0.116344216967
    C           -2.281601167039    -0.208704118563    -0.204959611606
    H           -0.966230791139    -1.815101245479    -0.803284712141
    H           -1.147685584315    -1.673900739579     0.909439448324
    H           -2.217772120592     0.348889931500    -1.129749471468
    H           -3.173217572255    -0.822799674752    -0.241740701978
    H           -2.395978710815     0.502231886661     0.602822945325
    C            1.436577002778     1.624401835776    -0.060065382988
    H            1.893819383481     1.522280464819     0.912734207815
    H            1.180908274080     2.654863808036    -0.246281058407
    H            2.124448375879     1.267737117783    -0.812062293707

  Mulliken Charges: (a.u.)
   Center  Symbol    Alpha    Beta     Spin     Total
       1     O     4.20491  4.20491  0.00000 -0.40983
       2     C     2.80437  2.80437  0.00000  0.39127
       3     C     3.09208  3.09208  0.00000 -0.18417
       4     O     4.14137  4.14137  0.00000 -0.28273
       5     C     3.13959  3.13959  0.00000 -0.27917
       6     H     0.43999  0.43999  0.00000  0.12002
       7     H     0.43834  0.43834  0.00000  0.12331
       8     H     0.44975  0.44975  0.00000  0.10049
       9     H     0.44949  0.44949  0.00000  0.10102
      10     H     0.45035  0.45035  0.00000  0.09930
      11     C     3.03642  3.03642  0.00000 -0.07283
      12     H     0.45324  0.45324  0.00000  0.09351
      13     H     0.44683  0.44683  0.00000  0.10634
      14     H     0.45327  0.45327  0.00000  0.09346

   Total alpha = 24.00000, Total beta = 24.00000, Total charge = -0.00000

*** Psi4 exiting successfully. Buy a developer a beer!
