  ==> Input File <==

--------------------------------------------------------------------------
set {
	reference rhf
	basis cc-pvtz
}

set_num_threads( 4 )
memory 2 gb

molecule MOL {
0 1

O	 -1.278239	 1.034789	 -0.784693
C	 -1.204115	 0.062668	 -0.112312
C	 -2.386398	 -0.667698	 0.460323
O	 -0.068058	 -0.518372	 0.226882
H	 -2.382952	 -1.693172	 0.114333
H	 -3.296656	 -0.175702	 0.158400
H	 -2.312537	 -0.685191	 1.540100
C	 1.169086	 0.037484	 -0.230612
C	 1.199719	 -0.173664	 -1.731142
C	 2.329855	 -0.628091	 0.486488
H	 1.161822	 1.092967	 -0.004800
H	 0.354428	 0.310681	 -2.202992
H	 2.109208	 0.243915	 -2.146074
H	 1.166651	 -1.229706	 -1.971181
H	 3.267991	 -0.216960	 0.132407
H	 2.269069	 -0.461096	 1.552821
H	 2.331636	 -1.695519	 0.297078

	symmetry c1
}
set optking {
	frozen_dihedral = ("
		11 8 4 2
	")
}

ee = optimize('scf')
oeprop('DIPOLE', 'QUADRUPOLE', 'MULLIKEN_CHARGES')
f=open( 'psi4out.xyz', 'w' )
f.write( "17  " )
f.write( str(ee) + "\n" )
f.write( MOL.save_string_xyz() )
f.close()
--------------------------------------------------------------------------

    Molecular point group: c1
  Charge       = 0
  Multiplicity = 1
  Basis Set: CC-PVTZ
  Basis Set:
  @DF-RHF Final Energy:  -345.03936296196906
    Total Energy =                       -345.0393629619694593
    Molecular point group: c1
  Basis Set: CC-PVTZ
  Basis Set:
  Basis Set: CC-PVTZ
  Basis Set:
  @DF-RHF Final Energy:  -345.04222021748438
    Total Energy =                       -345.0422202174842141
  Basis Set: CC-PVTZ
  Basis Set:
  Basis Set: CC-PVTZ
  Basis Set:
  @DF-RHF Final Energy:  -345.04256076533136
    Total Energy =                       -345.0425607653313591
  Basis Set: CC-PVTZ
  Basis Set:
  Basis Set: CC-PVTZ
  Basis Set:
  @DF-RHF Final Energy:  -345.04126555108905
    Total Energy =                       -345.0412655510895661
  Basis Set: CC-PVTZ
  Basis Set:
  Basis Set: CC-PVTZ
  Basis Set:
  @DF-RHF Final Energy:  -345.04269334609518
    Total Energy =                       -345.0426933460948931
  Basis Set: CC-PVTZ
  Basis Set:
  Basis Set: CC-PVTZ
  Basis Set:
  @DF-RHF Final Energy:  -345.04270129333253
    Total Energy =                       -345.0427012933325841
  Basis Set: CC-PVTZ
  Basis Set:
  Charge       = 0
  Multiplicity = 1
  Basis Set: CC-PVTZ
  Basis Set:

    Orbital Energies (a.u.)
    -----------------------

    Doubly Occupied:

       1A    -20.591427     2A    -20.531438     3A    -11.366577
       4A    -11.289591     5A    -11.230462     6A    -11.217383
       7A    -11.212762     8A     -1.468397     9A     -1.364550
      10A     -1.079729    11A     -1.005572    12A     -0.948132
      13A     -0.851348    14A     -0.763802    15A     -0.694584
      16A     -0.675846    17A     -0.661643    18A     -0.615525
      19A     -0.586670    20A     -0.578981    21A     -0.560335
      22A     -0.550122    23A     -0.539489    24A     -0.521054
      25A     -0.503743    26A     -0.483481    27A     -0.451572
      28A     -0.437899

  @DF-RHF Final Energy:  -345.04270195116987

   => Energetics <=

    Nuclear Repulsion Energy =            324.1674200020129319
    One-Electron Energy =               -1112.8560097058316387
    Two-Electron Energy =                 443.6458877526487186
    DFT Exchange-Correlation Energy =       0.0000000000000000
    Empirical Dispersion Energy =           0.0000000000000000
    PCM Polarization Energy =               0.0000000000000000
    EFP Energy =                            0.0000000000000000
    Total Energy =                       -345.0427019511699882
    Molecular point group: c1
  Basis Set: CC-PVTZ
  Basis Set:

  -Total Gradient:
     Atom            X                  Y                   Z
    ------   -----------------  -----------------  -----------------
       1        0.000016317599     0.000004499726     0.000030296037
       2       -0.000211594131    -0.001543446474    -0.002140517076
       3       -0.000018876805    -0.000044218506    -0.000076075510
       4        0.000590344427     0.002103080062     0.003696741740
       5        0.000011791990     0.000008766571     0.000036216885
       6       -0.000006710521     0.000004512347     0.000012675861
       7       -0.000006292912     0.000029905785     0.000019850365
       8       -0.001719219496    -0.000039693464    -0.004141751788
       9        0.000019681533     0.000008795232    -0.000012790139
      10        0.000005284141     0.000011410470     0.000000766994
      11        0.001335646691    -0.000545662626     0.002575337871
      12       -0.000005550088    -0.000001798858     0.000002183466
      13       -0.000004975907    -0.000002257720    -0.000001901338
      14       -0.000004506296    -0.000000586512     0.000003526650
      15        0.000004722001    -0.000000870822     0.000000689772
      16       -0.000001046635     0.000001667826    -0.000002094566
      17       -0.000005015595     0.000005896964    -0.000003155221

  **** Optimization is complete! (in 7 steps) ****
    Final optimized geometry and variables:
    Molecular point group: c1

    Geometry (in Angstrom), charge = 0, multiplicity = 1:

    O           -1.279355188049     1.200150039904    -0.448537352415
    C           -1.175628211056     0.195049140893     0.169062488399
    C           -2.332919269069    -0.574878361968     0.741241932868
    O           -0.023708613656    -0.382774018749     0.455310703540
    H           -2.338221775124    -1.577968612607     0.334679619762
    H           -3.255700933515    -0.071776478275     0.502190477449
    H           -2.219382514944    -0.656265740196     1.814545242994
    C            1.193718848364     0.164523326479    -0.062183979412
    C            1.310248075974    -0.070636776989    -1.557420688228
    C            2.305342685025    -0.509423500712     0.719800377221
    H            1.198983427992     1.222870544152     0.157834653612
    H            0.518113621034     0.425460735202    -2.096862969110
    H            2.258194056387     0.316582744821    -1.912121667856
    H            1.275965147819    -1.132608073567    -1.774331260667
    H            3.266534699571    -0.115361755521     0.412706094950
    H            2.186161799466    -0.333884359202     1.781179765508
    H            2.301968783412    -1.579110861351     0.547658786531

  Mulliken Charges: (a.u.)
   Center  Symbol    Alpha    Beta     Spin     Total
       1     O     4.19929  4.19929  0.00000 -0.39858
       2     C     2.80658  2.80658  0.00000  0.38683
       3     C     3.13839  3.13839  0.00000 -0.27679
       4     O     4.16241  4.16241  0.00000 -0.32482
       5     H     0.44655  0.44655  0.00000  0.10690
       6     H     0.43842  0.43842  0.00000  0.12316
       7     H     0.44554  0.44554  0.00000  0.10892
       8     C     2.92877  2.92877  0.00000  0.14247
       9     C     3.15897  3.15897  0.00000 -0.31794
      10     C     3.13885  3.13885  0.00000 -0.27770
      11     H     0.44532  0.44532  0.00000  0.10936
      12     H     0.43387  0.43387  0.00000  0.13227
      13     H     0.44938  0.44938  0.00000  0.10123
      14     H     0.45393  0.45393  0.00000  0.09213
      15     H     0.45449  0.45449  0.00000  0.09101
      16     H     0.44664  0.44664  0.00000  0.10672
      17     H     0.45259  0.45259  0.00000  0.09482

   Total alpha = 28.00000, Total beta = 28.00000, Total charge =  0.00000
