  ==> Input File <==

--------------------------------------------------------------------------
set {
	reference rhf
	basis 6-31G*
}

set_num_threads( 4 )
memory 2 gb

molecule MOL {
0 1

H	 2.866480	 -0.465706	 0.876907
C	 2.405773	 -0.024801	 0.000000
N	 0.988830	 -0.304158	 0.000000
H	 2.866480	 -0.465706	 -0.876907
H	 2.629928	 1.045948	 0.000000
C	 0.612754	 -1.257244	 1.027698
C	 0.510221	 -0.737179	 -1.299767
H	 1.103932	 -2.224293	 0.879175
H	 0.921750	 -0.875527	 1.995716
C	 -0.894069	 -1.455650	 1.017284
H	 0.744137	 0.025353	 -2.036024
H	 0.993927	 -1.666331	 -1.617892
C	 -0.993883	 -0.949377	 -1.248460
H	 -1.183478	 -2.228952	 1.716758
H	 -1.386273	 -0.527532	 1.302417
O	 -1.336378	 -1.865017	 -0.246335
H	 -1.355287	 -1.357507	 -2.183250
H	 -1.490784	 0.002561	 -1.069926

	symmetry c1
}
set optking {
	frozen_dihedral = ("
		6 3 2 5
	")
}

ee = optimize('scf')
oeprop('DIPOLE', 'QUADRUPOLE', 'MULLIKEN_CHARGES')
f=open( 'psi4out.xyz', 'w' )
f.write( "18  " )
f.write( str(ee) + "\n" )
f.write( MOL.save_string_xyz() )
f.close()
--------------------------------------------------------------------------

    Molecular point group: c1
  Charge       = 0
  Multiplicity = 1
  Basis Set: 6-31G*
  Basis Set:
  @DF-RHF Final Energy:  -325.02218351726788
    Total Energy =                       -325.0221835172681040
    Molecular point group: c1
  Basis Set: 6-31G*
  Basis Set:
  Basis Set: 6-31G*
  Basis Set:
  @DF-RHF Final Energy:  -325.02312352299606
    Total Energy =                       -325.0231235229960021
  Basis Set: 6-31G*
  Basis Set:
  Basis Set: 6-31G*
  Basis Set:
  @DF-RHF Final Energy:  -325.02329779417443
    Total Energy =                       -325.0232977941742547
  Basis Set: 6-31G*
  Basis Set:
  Basis Set: 6-31G*
  Basis Set:
  @DF-RHF Final Energy:  -325.02330968783281
    Total Energy =                       -325.0233096878324091
  Basis Set: 6-31G*
  Basis Set:
  Charge       = 0
  Multiplicity = 1
  Basis Set: 6-31G*
  Basis Set:

    Orbital Energies (a.u.)
    -----------------------

    Doubly Occupied:

       1A    -20.553317     2A    -15.545086     3A    -11.265309
       4A    -11.265264     5A    -11.244029     6A    -11.243773
       7A    -11.240843     8A     -1.382553     9A     -1.227174
      10A     -1.038174    11A     -0.980308    12A     -0.882551
      13A     -0.869583    14A     -0.772941    15A     -0.682702
      16A     -0.643974    17A     -0.642956    18A     -0.631177
      19A     -0.626062    20A     -0.569791    21A     -0.557667
      22A     -0.547152    23A     -0.526680    24A     -0.500066
      25A     -0.484712    26A     -0.451746    27A     -0.407237
      28A     -0.344469

  @DF-RHF Final Energy:  -325.02331065008423

   => Energetics <=

    Nuclear Repulsion Energy =            340.9178251925817449
    One-Electron Energy =               -1117.6276881095013778
    Two-Electron Energy =                 451.6865522668351787
    DFT Exchange-Correlation Energy =       0.0000000000000000
    Empirical Dispersion Energy =           0.0000000000000000
    PCM Polarization Energy =               0.0000000000000000
    EFP Energy =                            0.0000000000000000
    Total Energy =                       -325.0233106500844542
    Molecular point group: c1
  Basis Set: 6-31G*
  Basis Set:

  -Total Gradient:
     Atom            X                  Y                   Z
    ------   -----------------  -----------------  -----------------
       1        0.000005492678    -0.000004936525     0.000011661605
       2       -0.000092269378     0.000759802388    -0.003984536066
       3        0.000673471528    -0.003055789560    -0.001489394095
       4       -0.000028778021    -0.000009387336     0.000030180124
       5       -0.000064524164     0.000111802215     0.003693760877
       6       -0.000511616213     0.002163394108     0.001766022594
       7        0.000011483661     0.000019054900    -0.000025768324
       8        0.000003021734     0.000015679589    -0.000009416517
       9       -0.000004115516    -0.000003179012    -0.000001518214
      10       -0.000023963471     0.000015187222    -0.000014568568
      11       -0.000001261311    -0.000002645774    -0.000003932648
      12        0.000004415291     0.000002557552     0.000010432446
      13       -0.000008867690    -0.000000547255     0.000007619522
      14       -0.000005423316    -0.000003446096    -0.000008202076
      15        0.000011632476     0.000004547349     0.000014486856
      16        0.000026580929    -0.000017041524     0.000007762368
      17       -0.000003993289    -0.000003634473     0.000005031970
      18        0.000008714076     0.000008582233    -0.000009621855

  **** Optimization is complete! (in 5 steps) ****
    Final optimized geometry and variables:
    Molecular point group: c1

    Geometry (in Angstrom), charge = 0, multiplicity = 1:

    H            2.703085319122     0.602629041173     1.017415656689
    C            2.230907392038     0.944787152317     0.102988284647
    N            0.822017484986     0.594462587552     0.102438819277
    H            2.772161406946     0.493780006437    -0.726700575390
    H            2.362367865599     2.022090136477     0.065915313571
    C            0.426213030108    -0.336586336670     1.140263526207
    C            0.319454776538     0.203853232842    -1.198116334552
    H            0.890493153292    -1.319763446632     1.010920333448
    H            0.737787992259     0.052259981021     2.103840183837
    C           -1.085367660729    -0.496137627372     1.129120563741
    H            0.558825505149     0.979623102591    -1.918880217423
    H            0.780509645405    -0.726004987992    -1.546875177758
    C           -1.187997145656     0.021773317391    -1.134299820423
    H           -1.395634731022    -1.260990434483     1.829143332663
    H           -1.552421288290     0.445306070362     1.412932392366
    O           -1.538720549125    -0.893422328622    -0.134533396356
    H           -1.567270520411    -0.372224272675    -2.068208905176
    H           -1.663697144234     0.982070222029    -0.943432406152

  Mulliken Charges: (a.u.)
   Center  Symbol    Alpha    Beta     Spin     Total
       1     H     0.41988  0.41988  0.00000  0.16024
       2     C     3.13838  3.13838  0.00000 -0.27675
       3     N     3.79518  3.79518  0.00000 -0.59036
       4     H     0.42535  0.42535  0.00000  0.14930
       5     H     0.41545  0.41545  0.00000  0.16910
       6     C     3.06473  3.06473  0.00000 -0.12947
       7     C     3.06529  3.06529  0.00000 -0.13058
       8     H     0.42914  0.42914  0.00000  0.14172
       9     H     0.41695  0.41695  0.00000  0.16611
      10     C     2.99796  2.99796  0.00000  0.00409
      11     H     0.41673  0.41673  0.00000  0.16654
      12     H     0.42886  0.42886  0.00000  0.14229
      13     C     2.99770  2.99770  0.00000  0.00461
      14     H     0.41364  0.41364  0.00000  0.17272
      15     H     0.42448  0.42448  0.00000  0.15103
      16     O     4.31222  4.31222  0.00000 -0.62444
      17     H     0.41363  0.41363  0.00000  0.17275
      18     H     0.42445  0.42445  0.00000  0.15109

   Total alpha = 28.00000, Total beta = 28.00000, Total charge = -0.00000
