                              Psi4 1.0.54 Driver

  ==> Input File <==

--------------------------------------------------------------------------
set {
	reference rhf
	basis cc-pvtz
}

set_num_threads( 4 )
memory 2 gb

molecule MOL {
0 1

O	 -0.694481	 1.313155	 -0.204815
C	 -0.862519	 0.151932	 -0.046791
C	 -2.171428	 -0.477048	 0.339095
O	 0.085519	 -0.757083	 -0.192238
H	 -2.467997	 -1.191667	 -0.417688
H	 -2.923379	 0.287970	 0.444097
H	 -2.053854	 -1.015120	 1.270901
C	 -0.177444	 -1.897079	 -1.002016
C	 0.092477	 -1.618303	 -2.466026
H	 -1.196853	 -2.214812	 -0.848178
H	 0.488926	 -2.659055	 -0.626390
H	 -0.053861	 -2.525457	 -3.041445
H	 -0.581088	 -0.862533	 -2.846165
H	 1.112996	 -1.284605	 -2.610176

	symmetry c1
}
set optking {
	frozen_dihedral = ("
		8 4 2 1
	")
}

ee,wfn = optimize('scf', return_wfn=True)
oeprop( wfn, 'DIPOLE', 'QUADRUPOLE', 'MULLIKEN_CHARGES')
f=open( 'psi4out.xyz', 'w' )
f.write( "14  " )
f.write( str(ee) + "\n" )
f.write( MOL.save_string_xyz() )
f.close()
--------------------------------------------------------------------------

    Molecular point group: c1
  Charge       = 0
  Multiplicity = 1
  Basis Set: CC-PVTZ
  Basis Set:
  @DF-RHF Final Energy:  -305.96520285066765
    Total Energy =                       -305.9652028506676515
    Molecular point group: c1
  Basis Set: CC-PVTZ
  Basis Set:
  Basis Set: CC-PVTZ
  Basis Set:
  @DF-RHF Final Energy:  -305.90993460457798
    Total Energy =                       -305.9099346045777565
  Basis Set: CC-PVTZ
  Basis Set:
  Basis Set: CC-PVTZ
  Basis Set:
  @DF-RHF Final Energy:  -305.96792515227469
    Total Energy =                       -305.9679251522746313
  Basis Set: CC-PVTZ
  Basis Set:
  Basis Set: CC-PVTZ
  Basis Set:
  @DF-RHF Final Energy:  -305.74450357867170
    Total Energy =                       -305.7445035786718108
  Basis Set: CC-PVTZ
  Basis Set:
  @DF-RHF Final Energy:  -305.90779858643128
    Total Energy =                       -305.9077985864316247
  @DF-RHF Final Energy:  -305.96338019627296
    Total Energy =                       -305.9633801962730786
  @DF-RHF Final Energy:  -305.97065249682458
    Total Energy =                       -305.9706524968247550
  @DF-RHF Final Energy:  -305.94891963203190
    Total Energy =                       -305.9489196320322435
  @DF-RHF Final Energy:  -305.97208474609715
    Total Energy =                       -305.9720847460972095
  @DF-RHF Final Energy:  -305.77552326254397
    Total Energy =                       -305.7755232625436292
  @DF-RHF Final Energy:  -305.92400316554313
    Total Energy =                       -305.9240031655428425
  @DF-RHF Final Energy:  -305.96874378407870
    Total Energy =                       -305.9687437840785833
  @DF-RHF Final Energy:  -305.97196170881966
    Total Energy =                       -305.9719617088196628
  @DF-RHF Final Energy:  -305.97258468003741
    Total Energy =                       -305.9725846800376985
  @DF-RHF Final Energy:  -305.90030849724997
    Total Energy =                       -305.9003084972501370
  @DF-RHF Final Energy:  -305.96479708898420
    Total Energy =                       -305.9647970889841417
  @DF-RHF Final Energy:  -305.97296692420082
    Total Energy =                       -305.9729669242008185
  @DF-RHF Final Energy:  -305.97327692094245
    Total Energy =                       -305.9732769209425669
  @DF-RHF Final Energy:  -305.97138613094887
    Total Energy =                       -305.9713861309487584
  Basis Set: CC-PVTZ
  Basis Set:
  @DF-RHF Final Energy:  -305.97335485241587
    Total Energy =                       -305.9733548524157527
  Basis Set: CC-PVTZ
  Basis Set:
  Basis Set: CC-PVTZ
  Basis Set:
  @DF-RHF Final Energy:  -305.97339676732167
    Total Energy =                       -305.9733967673216171
  Basis Set: CC-PVTZ
  Basis Set:
  Basis Set: CC-PVTZ
  Basis Set:
  @DF-RHF Final Energy:  -305.97339913787823
    Total Energy =                       -305.9733991378782321
  Basis Set: CC-PVTZ
  Basis Set:
  Charge       = 0
  Multiplicity = 1
  Basis Set: CC-PVTZ
  Basis Set:

    Orbital Energies (a.u.)
    -----------------------

    Doubly Occupied:

       1A    -20.583578     2A    -20.536750     3A    -11.369515
       4A    -11.296794     5A    -11.238924     6A    -11.227255
       7A     -1.462347     8A     -1.369421     9A     -1.047396
      10A     -1.015377    11A     -0.895618    12A     -0.768351
      13A     -0.695300    14A     -0.687591    15A     -0.673139
      16A     -0.616388    17A     -0.596595    18A     -0.586122
      19A     -0.552405    20A     -0.546196    21A     -0.525156
      22A     -0.491331    23A     -0.454743    24A     -0.438366

  @DF-RHF Final Energy:  -305.97339921566731

   => Energetics <=

    Nuclear Repulsion Energy =            249.2784067952450187
    One-Electron Energy =                -911.1542973569689821
    Two-Electron Energy =                 355.9024913460563653
    DFT Exchange-Correlation Energy =       0.0000000000000000
    Empirical Dispersion Energy =           0.0000000000000000
    PCM Polarization Energy =               0.0000000000000000
    EFP Energy =                            0.0000000000000000
    Total Energy =                       -305.9733992156675981
    Molecular point group: c1
  Basis Set: CC-PVTZ
  Basis Set:

  -Total Gradient:
     Atom            X                  Y                   Z
    ------   -----------------  -----------------  -----------------
       1       -0.000730375824     0.001746080180    -0.003298449037
       2        0.000999118887    -0.003183641001     0.003209986457
       3        0.000003473311     0.000054175806    -0.000004606770
       4       -0.000156389934     0.002510067206     0.003019843641
       5        0.000010300237    -0.000012837069    -0.000001809655
       6       -0.000002037698    -0.000007358326    -0.000002475651
       7        0.000002078297     0.000012983965    -0.000003163928
       8       -0.000114622706    -0.001092337165    -0.002916706653
       9       -0.000016022795    -0.000007198782     0.000002267095
      10       -0.000005741962     0.000005512488     0.000006226535
      11        0.000007689285    -0.000012093675    -0.000006273086
      12        0.000006599550    -0.000004307087     0.000010104360
      13       -0.000004338489    -0.000000541178    -0.000002088367
      14        0.000000269843    -0.000008505363    -0.000012854943

  **** Optimization is complete! (in 23 steps) ****
    Final optimized geometry and variables:
    Molecular point group: c1

    Geometry (in Angstrom), charge = 0, multiplicity = 1:

    O            1.494856647349    -1.079831252895    -0.294419384079
    C            0.803087488513    -0.318999113602     0.278409909470
    C            1.320486731934     0.957415382865     0.895588308028
    O           -0.501258113854    -0.575328224065     0.437620259882
    H            1.050021637168     1.807226011112     0.280382665234
    H            2.395345261710     0.901158802199     0.950197463193
    H            0.901345314124     1.107875035350     1.881471697135
    C           -1.480676634258     0.391504019295     0.110578664964
    C           -1.609359916897     0.583887783845    -1.387518495921
    H           -1.270288741758     1.330729675816     0.607972067460
    H           -2.399438348648     0.003832548021     0.522876410231
    H           -2.414468759415     1.278150502720    -1.599600779323
    H           -0.698432621245     0.983307868959    -1.818371402079
    H           -1.825712104217    -0.359034671638    -1.871921783263

  Mulliken Charges: (a.u.)
   Center  Symbol    Alpha    Beta     Spin     Total
       1     O     4.17427  4.17427  0.00000 -0.34855
       2     C     2.80877  2.80877  0.00000  0.38247
       3     C     3.16034  3.16034  0.00000 -0.32068
       4     O     4.15286  4.15286  0.00000 -0.30572
       5     H     0.44966  0.44966  0.00000  0.10067
       6     H     0.42910  0.42910  0.00000  0.14179
       7     H     0.44261  0.44261  0.00000  0.11479
       8     C     2.99881  2.99881  0.00000  0.00238
       9     C     3.13910  3.13910  0.00000 -0.27820
      10     H     0.45993  0.45993  0.00000  0.08014
      11     H     0.43833  0.43833  0.00000  0.12335
      12     H     0.45018  0.45018  0.00000  0.09965
      13     H     0.45366  0.45366  0.00000  0.09269
      14     H     0.44240  0.44240  0.00000  0.11521

   Total alpha = 24.00000, Total beta = 24.00000, Total charge = -0.00000

*** Psi4 exiting successfully. Buy a developer a beer!
