  ==> Input File <==

--------------------------------------------------------------------------
set {
	reference rhf
	basis cc-pvtz
}

set_num_threads( 4 )
memory 2 gb

molecule MOL {
0 1

H	 1.933355	 -3.771547	 0.341952
C	 2.178583	 -2.719836	 0.253203
C	 0.917308	 -1.868921	 0.154304
H	 2.769318	 -2.444938	 1.120672
H	 2.805619	 -2.600327	 -0.624043
C	 1.215950	 -0.382441	 0.027187
H	 0.293395	 -2.024080	 1.027473
H	 0.332716	 -2.190533	 -0.704413
N	 0.000002	 0.398953	 -0.040851
H	 1.778471	 -0.054399	 0.896168
H	 1.862729	 -0.215664	 -0.839384
C	 -1.215959	 -0.382435	 0.027143
H	 -0.000012	 1.086078	 0.683841
C	 -2.451944	 0.502410	 -0.038737
H	 -1.221867	 -1.069392	 -0.813828
H	 -1.259993	 -0.999709	 0.929424
C	 -3.752217	 -0.292550	 0.005776
H	 -2.407325	 1.093801	 -0.946480
H	 -2.431979	 1.206234	 0.790023
H	 -3.817783	 -0.982946	 -0.828547
H	 -4.612613	 0.364348	 -0.042306
H	 -3.830160	 -0.871666	 0.919868

	symmetry c1
}
set optking {
	frozen_dihedral = ("
		10 6 9 12
	")
}

ee = optimize('scf')
oeprop('DIPOLE', 'QUADRUPOLE', 'MULLIKEN_CHARGES')
f=open( 'psi4out.xyz', 'w' )
f.write( "22  " )
f.write( str(ee) + "\n" )
f.write( MOL.save_string_xyz() )
f.close()
--------------------------------------------------------------------------

    Molecular point group: c1
  Charge       = 0
  Multiplicity = 1
  Basis Set: CC-PVTZ
  Basis Set:
  @DF-RHF Final Energy:  -290.46853647895279
    Total Energy =                       -290.4685364789523874
    Molecular point group: c1
  Basis Set: CC-PVTZ
  Basis Set:
  Basis Set: CC-PVTZ
  Basis Set:
  @DF-RHF Final Energy:  -290.46741206719503
    Total Energy =                       -290.4674120671953119
  Basis Set: CC-PVTZ
  Basis Set:
  Basis Set: CC-PVTZ
  Basis Set:
  @DF-RHF Final Energy:  -290.47615157616087
    Total Energy =                       -290.4761515761608166
  Basis Set: CC-PVTZ
  Basis Set:
  Basis Set: CC-PVTZ
  Basis Set:
  @DF-RHF Final Energy:  -290.47812775893004
    Total Energy =                       -290.4781277589302704
  Basis Set: CC-PVTZ
  Basis Set:
  @DF-RHF Final Energy:  -290.47847368591414
    Total Energy =                       -290.4784736859138548
  Basis Set: CC-PVTZ
  Basis Set:
  @DF-RHF Final Energy:  -290.47865074584030
    Total Energy =                       -290.4786507458402411
  Basis Set: CC-PVTZ
  Basis Set:
  Basis Set: CC-PVTZ
  Basis Set:
  @DF-RHF Final Energy:  -290.47866649537417
    Total Energy =                       -290.4786664953744548
  Basis Set: CC-PVTZ
  Basis Set:
  Basis Set: CC-PVTZ
  Basis Set:
  @DF-RHF Final Energy:  -290.47866773906583
    Total Energy =                       -290.4786677390656564
  Basis Set: CC-PVTZ
  Basis Set:
  Charge       = 0
  Multiplicity = 1
  Basis Set: CC-PVTZ
  Basis Set:

    Orbital Energies (a.u.)
    -----------------------

    Doubly Occupied:

       1A    -15.522437     2A    -11.237128     3A    -11.235076
       4A    -11.213686     5A    -11.210278     6A    -11.208556
       7A    -11.206511     8A     -1.197157     9A     -1.058087
      10A     -1.028600    11A     -0.929944    12A     -0.875192
      13A     -0.814227    14A     -0.779647    15A     -0.667825
      16A     -0.627380    17A     -0.621071    18A     -0.613463
      19A     -0.569320    20A     -0.558790    21A     -0.540206
      22A     -0.532686    23A     -0.503927    24A     -0.488359
      25A     -0.480814    26A     -0.473679    27A     -0.464805
      28A     -0.460046    29A     -0.346997

  @DF-RHF Final Energy:  -290.47866882365400

   => Energetics <=

    Nuclear Repulsion Energy =            318.2027134279279039
    One-Electron Energy =               -1022.4309859805130145
    Two-Electron Energy =                 413.7496037289309925
    DFT Exchange-Correlation Energy =       0.0000000000000000
    Empirical Dispersion Energy =           0.0000000000000000
    PCM Polarization Energy =               0.0000000000000000
    EFP Energy =                            0.0000000000000000
    Total Energy =                       -290.4786688236541750
    Molecular point group: c1
  Basis Set: CC-PVTZ
  Basis Set:

  -Total Gradient:
     Atom            X                  Y                   Z
    ------   -----------------  -----------------  -----------------
       1        0.000000457515     0.000000610254    -0.000000277810
       2       -0.000007388057     0.000000403953    -0.000009843833
       3        0.000006690834    -0.000009599618     0.000013283302
       4       -0.000003225674    -0.000000388839    -0.000000912747
       5        0.000006156457    -0.000000899281    -0.000000101225
       6        0.000025882873     0.000087444760    -0.000045298402
       7       -0.000009829762     0.000000789420     0.000002478843
       8        0.000004456634     0.000004322670     0.000003258586
       9       -0.000004667757    -0.000065043858    -0.000054166945
      10       -0.000042506420    -0.000050818720     0.000043824406
      11        0.000013999066     0.000003813422     0.000001449121
      12        0.000018376726     0.000025014059     0.000056994906
      13        0.000001410446     0.000011508966    -0.000009602304
      14       -0.000003899884    -0.000002822461     0.000000853657
      15       -0.000004770714    -0.000005349958    -0.000003762934
      16        0.000003000334    -0.000003135229    -0.000000125566
      17       -0.000001241785     0.000002577980     0.000001691662
      18       -0.000001046893    -0.000000214588    -0.000001931405
      19       -0.000001908535     0.000001033418     0.000001446304
      20        0.000001144027     0.000001426086    -0.000000142632
      21       -0.000000791269    -0.000000530417     0.000000779773
      22       -0.000000298164    -0.000000142020     0.000000105240

  **** Optimization is complete! (in 9 steps) ****
    Final optimized geometry and variables:
    Molecular point group: c1

    Geometry (in Angstrom), charge = 0, multiplicity = 1:

    H            2.813701603412    -3.043534290953     0.196874491787
    C            2.893651980958    -1.963944007750     0.149434434026
    C            1.514191647210    -1.314821579229     0.092809059599
    H            3.447935865329    -1.635127235278     1.022182597727
    H            3.481146850958    -1.714400872585    -0.727594066571
    C            1.619744637648     0.205829777775     0.008469725728
    H            0.946207148549    -1.604149649575     0.970015786782
    H            0.978270938624    -1.698748812127    -0.767897696847
    N            0.364997235358     0.955274211741    -0.063856537945
    H            2.188981896916     0.545844982560     0.870118322954
    H            2.221569708001     0.448951905935    -0.863495983003
    C           -0.911341597881     0.275029791429    -0.000214132506
    H            0.378840547004     1.702217195960     0.592599641677
    C           -2.049490101832     1.277045750167    -0.139118630926
    H           -0.975581501725    -0.436841933301    -0.814533316187
    H           -1.055127072730    -0.291767063523     0.921858351354
    C           -3.424558402288     0.619703089577    -0.097872030257
    H           -1.922605957178     1.820024141963    -1.068979517599
    H           -1.978539962149     2.011536349176     0.659915398751
    H           -3.540192649908    -0.097699469970    -0.903531837123
    H           -4.212183120304     1.357110114229    -0.198667561245
    H           -3.583538563675     0.093594273150     0.837537982508

  Mulliken Charges: (a.u.)
   Center  Symbol    Alpha    Beta     Spin     Total
       1     H     0.44722  0.44722  0.00000  0.10555
       2     C     3.15230  3.15230  0.00000 -0.30459
       3     C     3.09786  3.09786  0.00000 -0.19572
       4     H     0.45546  0.45546  0.00000  0.08908
       5     H     0.45416  0.45416  0.00000  0.09167
       6     C     3.01828  3.01828  0.00000 -0.03655
       7     H     0.45111  0.45111  0.00000  0.09777
       8     H     0.45001  0.45001  0.00000  0.09999
       9     N     3.64507  3.64507  0.00000 -0.29013
      10     H     0.46634  0.46634  0.00000  0.06732
      11     H     0.46034  0.46034  0.00000  0.07932
      12     C     3.02389  3.02389  0.00000 -0.04779
      13     H     0.44368  0.44368  0.00000  0.11265
      14     C     3.08115  3.08115  0.00000 -0.16230
      15     H     0.45811  0.45811  0.00000  0.08378
      16     H     0.47220  0.47220  0.00000  0.05560
      17     C     3.15366  3.15366  0.00000 -0.30731
      18     H     0.44953  0.44953  0.00000  0.10094
      19     H     0.46058  0.46058  0.00000  0.07883
      20     H     0.45499  0.45499  0.00000  0.09002
      21     H     0.44779  0.44779  0.00000  0.10443
      22     H     0.45628  0.45628  0.00000  0.08744

   Total alpha = 29.00000, Total beta = 29.00000, Total charge = -0.00000
