  ==> Input File <==

--------------------------------------------------------------------------
set {
	reference rhf
	basis 6-31G*
}

set_num_threads( 4 )
memory 2 gb

molecule MOL {
0 1

O	 2.365542	 0.349728	 0.962147
C	 1.705091	 0.115954	 0.001797
C	 0.381791	 -0.609817	 0.001258
O	 2.055550	 0.477372	 -1.226084
C	 -0.823008	 0.326187	 0.001381
H	 0.371250	 -1.265087	 -0.865474
H	 0.370908	 -1.265746	 0.867490
C	 -2.149452	 -0.435131	 -0.000098
H	 -0.770201	 0.977095	 -0.865636
H	 -0.771220	 0.975655	 0.869608
C	 -3.368779	 0.488503	 -0.000883
H	 -2.193746	 -1.087250	 -0.871175
H	 -2.195311	 -1.087803	 0.870418
C	 -4.693822	 -0.272754	 -0.001129
H	 -3.325798	 1.139422	 -0.871284
H	 -3.326423	 1.139959	 0.869145
H	 -4.781274	 -0.907928	 -0.878124
H	 -5.538651	 0.408946	 -0.001420
H	 -4.781694	 -0.907783	 0.875984
C	 3.281689	 1.171533	 -1.366366
H	 3.261191	 2.095915	 -0.807235
H	 3.386997	 1.374437	 -2.420697
H	 4.104452	 0.563952	 -1.017924

	symmetry c1
}
set optking {
	frozen_dihedral = ("
		1 2 3 6
	")
}

ee = optimize('scf')
oeprop('DIPOLE', 'QUADRUPOLE', 'MULLIKEN_CHARGES')
f=open( 'psi4out.xyz', 'w' )
f.write( "23  " )
f.write( str(ee) + "\n" )
f.write( MOL.save_string_xyz() )
f.close()
--------------------------------------------------------------------------

    Molecular point group: c1
  Charge       = 0
  Multiplicity = 1
  Basis Set: 6-31G*
  Basis Set:
  @DF-RHF Final Energy:  -422.97438091844458
    Total Energy =                       -422.9743809184441261
    Molecular point group: c1
  Basis Set: 6-31G*
  Basis Set:
  Basis Set: 6-31G*
  Basis Set:
  @DF-RHF Final Energy:  -422.97453386764238
    Total Energy =                       -422.9745338676425490
  Basis Set: 6-31G*
  Basis Set:
  Basis Set: 6-31G*
  Basis Set:
  @DF-RHF Final Energy:  -422.97399971296858
    Total Energy =                       -422.9739997129690892
  Basis Set: 6-31G*
  Basis Set:
  Basis Set: 6-31G*
  Basis Set:
  @DF-RHF Final Energy:  -422.97502717107085
    Total Energy =                       -422.9750271710714742
  Basis Set: 6-31G*
  Basis Set:
  Basis Set: 6-31G*
  Basis Set:
  @DF-RHF Final Energy:  -422.97502949226157
    Total Energy =                       -422.9750294922612284
  Basis Set: 6-31G*
  Basis Set:
  Charge       = 0
  Multiplicity = 1
  Basis Set: 6-31G*
  Basis Set:

    Orbital Energies (a.u.)
    -----------------------

    Doubly Occupied:

       1A    -20.604108     2A    -20.542967     3A    -11.370455
       4A    -11.280485     5A    -11.233552     6A    -11.229634
       7A    -11.222056     8A    -11.220194     9A    -11.212209
      10A     -1.468358    11A     -1.360924    12A     -1.097368
      13A     -1.045682    14A     -0.984644    15A     -0.934569
      16A     -0.846860    17A     -0.798817    18A     -0.773017
      19A     -0.693719    20A     -0.679955    21A     -0.672641
      22A     -0.653501    23A     -0.607807    24A     -0.594638
      25A     -0.578970    26A     -0.571883    27A     -0.540761
      28A     -0.535940    29A     -0.523536    30A     -0.506109
      31A     -0.492733    32A     -0.476771    33A     -0.470830
      34A     -0.467054    35A     -0.453352    36A     -0.427395

  @DF-RHF Final Energy:  -422.97502970354947

   => Energetics <=

    Nuclear Repulsion Energy =            454.7501576901155431
    One-Electron Energy =               -1477.1033906964976268
    Two-Electron Energy =                 599.3782033028330716
    DFT Exchange-Correlation Energy =       0.0000000000000000
    Empirical Dispersion Energy =           0.0000000000000000
    PCM Polarization Energy =               0.0000000000000000
    EFP Energy =                            0.0000000000000000
    Total Energy =                       -422.9750297035490121
    Molecular point group: c1
  Basis Set: 6-31G*
  Basis Set:

  -Total Gradient:
     Atom            X                  Y                   Z
    ------   -----------------  -----------------  -----------------
       1       -0.000149967703     0.000242644579    -0.000003884014
       2        0.000155776019    -0.000258964153    -0.000059926483
       3        0.000099698470    -0.000125902954     0.000261122747
       4       -0.000006777631    -0.000046043835     0.000030351279
       5       -0.000014667597     0.000042082728    -0.000034200742
       6       -0.000117610115     0.000212353306    -0.000128483348
       7        0.000003072464    -0.000042771946    -0.000048789158
       8        0.000014798106    -0.000022377669    -0.000014641899
       9        0.000010363753    -0.000013442734     0.000010677935
      10        0.000002351250    -0.000002016615    -0.000032552710
      11        0.000006416281     0.000010308645     0.000028172172
      12       -0.000002397611     0.000003051414    -0.000006943645
      13        0.000010561588    -0.000013197156    -0.000009974340
      14       -0.000000044273     0.000001551527     0.000004211919
      15       -0.000001137203    -0.000006465275     0.000005456152
      16       -0.000007773859     0.000014231477     0.000001801056
      17        0.000002912394    -0.000001610360     0.000000122855
      18        0.000000552165     0.000000248812    -0.000002091839
      19       -0.000001799444     0.000001083785     0.000001439763
      20       -0.000022646720     0.000014884598     0.000001203890
      21        0.000010347666    -0.000001018070    -0.000002973641
      22        0.000009722598     0.000001076485    -0.000002496480
      23       -0.000001750607    -0.000009706593     0.000002398532

  **** Optimization is complete! (in 6 steps) ****
    Final optimized geometry and variables:
    Molecular point group: c1

    Geometry (in Angstrom), charge = 0, multiplicity = 1:

    O            2.465125960526     0.113981880625     1.153890908714
    C            1.808939317685    -0.115585280459     0.189062152587
    C            0.499133184344    -0.861984691741     0.193276142373
    O            2.139721133431     0.296246698312    -1.028545860954
    C           -0.693461931416     0.106303390257     0.159258162758
    H            0.463887341615    -1.517933958997    -0.669340135435
    H            0.470544459770    -1.463970529470     1.092472342356
    C           -2.035701558974    -0.625473348453     0.193581873120
    H           -0.632251840115     0.716941567086    -0.736912790858
    H           -0.625287578551     0.782162817485     1.007900979655
    C           -3.235160582444     0.323621760622     0.170041605202
    H           -2.097510761106    -1.304624639124    -0.654944843159
    H           -2.085295761354    -1.245685282400     1.086613927775
    C           -4.575288593241    -0.410063840157     0.204467948077
    H           -3.185801807898     0.943709100079    -0.722348886573
    H           -3.173316144895     1.002456209931     1.017692241043
    H           -4.681785176640    -1.072721822370    -0.649733324994
    H           -5.405848764608     0.288567602332     0.186375718873
    H           -4.669474945352    -1.012632163517     1.103387730513
    C            3.331983712935     1.050465454894    -1.149263593345
    H            3.269687796611     1.956174967385    -0.563299124610
    H            3.426242381055     1.288478346634    -2.197345281342
    H            4.182125054629     0.471417299444    -0.818614232053

  Mulliken Charges: (a.u.)
   Center  Symbol    Alpha    Beta     Spin     Total
       1     O     4.28510  4.28510  0.00000 -0.57020
       2     C     2.61736  2.61736  0.00000  0.76527
       3     C     3.19335  3.19335  0.00000 -0.38671
       4     O     4.30296  4.30296  0.00000 -0.60592
       5     C     3.16635  3.16635  0.00000 -0.33270
       6     H     0.40442  0.40442  0.00000  0.19117
       7     H     0.39980  0.39980  0.00000  0.20039
       8     C     3.15188  3.15188  0.00000 -0.30376
       9     H     0.41051  0.41051  0.00000  0.17898
      10     H     0.41104  0.41104  0.00000  0.17793
      11     C     3.15249  3.15249  0.00000 -0.30498
      12     H     0.42185  0.42185  0.00000  0.15631
      13     H     0.42082  0.42082  0.00000  0.15836
      14     C     3.23986  3.23986  0.00000 -0.47973
      15     H     0.42183  0.42183  0.00000  0.15635
      16     H     0.42108  0.42108  0.00000  0.15784
      17     H     0.42128  0.42128  0.00000  0.15744
      18     H     0.41809  0.41809  0.00000  0.16382
      19     H     0.42085  0.42085  0.00000  0.15830
      20     C     3.09250  3.09250  0.00000 -0.18499
      21     H     0.40917  0.40917  0.00000  0.18165
      22     H     0.40886  0.40886  0.00000  0.18227
      23     H     0.40854  0.40854  0.00000  0.18292

   Total alpha = 36.00000, Total beta = 36.00000, Total charge =  0.00000
