  ==> Input File <==

--------------------------------------------------------------------------
set {
	reference rhf
	basis cc-pvtz
}

set_num_threads( 4 )
memory 2 gb

molecule MOL {
0 1

O	 0.749630	 1.305591	 -0.000460
C	 0.576499	 0.134701	 -0.003900
C	 -0.765656	 -0.550508	 -0.002152
O	 1.564816	 -0.744612	 -0.000631
C	 -1.945526	 0.411052	 0.000603
H	 -0.794329	 -1.203792	 -0.868145
H	 -0.791555	 -1.205429	 0.862701
C	 -3.258261	 -0.291961	 0.328358
H	 -2.015905	 0.893026	 -0.966941
H	 -1.760577	 1.201428	 0.717875
H	 -3.481708	 -1.068499	 -0.395776
H	 -4.083623	 0.409626	 0.324548
H	 -3.223751	 -0.755776	 1.308671
C	 2.884339	 -0.237801	 0.002883
H	 3.064150	 0.362814	 -0.876312
H	 3.533055	 -1.098529	 0.004958
H	 3.059365	 0.363432	 0.882614

	symmetry c1
}
set optking {
	frozen_dihedral = ("
		9 5 3 6
	")
}

ee = optimize('scf')
oeprop('DIPOLE', 'QUADRUPOLE', 'MULLIKEN_CHARGES')
f=open( 'psi4out.xyz', 'w' )
f.write( "17  " )
f.write( str(ee) + "\n" )
f.write( MOL.save_string_xyz() )
f.close()
--------------------------------------------------------------------------

    Molecular point group: c1
  Charge       = 0
  Multiplicity = 1
  Basis Set: CC-PVTZ
  Basis Set:
  @DF-RHF Final Energy:  -345.03479565564874
    Total Energy =                       -345.0347956556487361
    Molecular point group: c1
  Basis Set: CC-PVTZ
  Basis Set:
  Basis Set: CC-PVTZ
  Basis Set:
  @DF-RHF Final Energy:  -345.03467763750473
    Total Energy =                       -345.0346776375047284
  Basis Set: CC-PVTZ
  Basis Set:
  Basis Set: CC-PVTZ
  Basis Set:
  @DF-RHF Final Energy:  -345.03457274181272
    Total Energy =                       -345.0345727418128376
  Basis Set: CC-PVTZ
  Basis Set:
  Basis Set: CC-PVTZ
  Basis Set:
  @DF-RHF Final Energy:  -345.03488473218158
    Total Energy =                       -345.0348847321817516
  Basis Set: CC-PVTZ
  Basis Set:
  Basis Set: CC-PVTZ
  Basis Set:
  @DF-RHF Final Energy:  -345.03488874663560
    Total Energy =                       -345.0348887466357723
  Basis Set: CC-PVTZ
  Basis Set:
  Charge       = 0
  Multiplicity = 1
  Basis Set: CC-PVTZ
  Basis Set:

    Orbital Energies (a.u.)
    -----------------------

    Doubly Occupied:

       1A    -20.596607     2A    -20.534491     3A    -11.364855
       4A    -11.278728     5A    -11.234491     6A    -11.220015
       7A    -11.212538     8A     -1.472547     9A     -1.366134
      10A     -1.081488    11A     -1.002506    12A     -0.940162
      13A     -0.827713    14A     -0.769149    15A     -0.702153
      16A     -0.686784    17A     -0.676249    18A     -0.637998
      19A     -0.597006    20A     -0.575174    21A     -0.570216
      22A     -0.528883    23A     -0.523838    24A     -0.498771
      25A     -0.487658    26A     -0.480174    27A     -0.460198
      28A     -0.441243

  @DF-RHF Final Energy:  -345.03488937748733

   => Energetics <=

    Nuclear Repulsion Energy =            313.0316292774377303
    One-Electron Energy =               -1090.5975044686665569
    Two-Electron Energy =                 432.5309858137418360
    DFT Exchange-Correlation Energy =       0.0000000000000000
    Empirical Dispersion Energy =           0.0000000000000000
    PCM Polarization Energy =               0.0000000000000000
    EFP Energy =                            0.0000000000000000
    Total Energy =                       -345.0348893774869339
    Molecular point group: c1
  Basis Set: CC-PVTZ
  Basis Set:

  -Total Gradient:
     Atom            X                  Y                   Z
    ------   -----------------  -----------------  -----------------
       1       -0.000004712178     0.000019993452     0.000030655102
       2        0.000014256180    -0.000007409718    -0.000047424034
       3       -0.001884318651    -0.002289393718     0.001276739912
       4       -0.000017577980    -0.000004470576     0.000010023677
       5        0.001998043755     0.002427509002     0.000607771754
       6        0.001241836887     0.001509734493    -0.001163491454
       7       -0.000008810502     0.000010003220     0.000003538709
       8        0.000000803405    -0.000005212742     0.000019678095
       9       -0.001336805027    -0.001653923187    -0.000742909290
      10        0.000000743369    -0.000007567711    -0.000003369762
      11        0.000006583194     0.000003105396     0.000002095244
      12        0.000000029515    -0.000000144931    -0.000002439533
      13       -0.000013328353    -0.000005018031     0.000006932643
      14        0.000008442648     0.000005449353    -0.000000505639
      15       -0.000001176436    -0.000001153102     0.000001770294
      16       -0.000003068023    -0.000001050803     0.000000974845
      17       -0.000000941806    -0.000000450404    -0.000000040564

  **** Optimization is complete! (in 6 steps) ****
    Final optimized geometry and variables:
    Molecular point group: c1

    Geometry (in Angstrom), charge = 0, multiplicity = 1:

    O            0.750356584320     1.301773969104    -0.055531097020
    C            0.574045773091     0.131409092622    -0.043203343601
    C           -0.769653733216    -0.553536286032    -0.025174054549
    O            1.561055154898    -0.749640320059    -0.045819678169
    C           -1.948389294705     0.411376163851    -0.028176672238
    H           -0.794082551497    -1.203850124508    -0.893344288571
    H           -0.788703314429    -1.202160831537     0.844043519358
    C           -3.268192974539    -0.298807086210     0.258064457748
    H           -2.009357290642     0.895645737694    -0.995876633111
    H           -1.780141293873     1.191856248938     0.701989595814
    H           -3.464362961737    -1.078318072264    -0.471029594038
    H           -4.096957477644     0.398191519754     0.225751457452
    H           -3.262428034555    -0.760243119091     1.240047917177
    C            2.881175697026    -0.245386489521    -0.063914958681
    H            3.050765276680     0.347474038629    -0.950466560294
    H            3.528909516890    -1.106957057778    -0.062840879277
    H            3.068932911788     0.363230320431     0.808183766589

  Mulliken Charges: (a.u.)
   Center  Symbol    Alpha    Beta     Spin     Total
       1     O     4.19644  4.19644  0.00000 -0.39289
       2     C     2.80620  2.80620  0.00000  0.38761
       3     C     3.09647  3.09647  0.00000 -0.19293
       4     O     4.14715  4.14715  0.00000 -0.29431
       5     C     3.07939  3.07939  0.00000 -0.15877
       6     H     0.43989  0.43989  0.00000  0.12022
       7     H     0.44140  0.44140  0.00000  0.11720
       8     C     3.15105  3.15105  0.00000 -0.30211
       9     H     0.44961  0.44961  0.00000  0.10079
      10     H     0.44340  0.44340  0.00000  0.11319
      11     H     0.45609  0.45609  0.00000  0.08783
      12     H     0.44592  0.44592  0.00000  0.10816
      13     H     0.45563  0.45563  0.00000  0.08873
      14     C     3.03732  3.03732  0.00000 -0.07464
      15     H     0.45439  0.45439  0.00000  0.09123
      16     H     0.44533  0.44533  0.00000  0.10933
      17     H     0.45432  0.45432  0.00000  0.09136

   Total alpha = 28.00000, Total beta = 28.00000, Total charge = -0.00000
