  ==> Input File <==

--------------------------------------------------------------------------
set {
	reference rhf
	basis 6-31G*
}

set_num_threads( 1 )
memory 2 gb

molecule MOL {
0 1

H	 -4.236494	 0.538104	 0.039757
O	 -3.517110	 -0.026191	 -0.205115
C	 -2.306886	 0.532354	 0.237577
C	 -1.177863	 -0.397191	 -0.171080
H	 -2.156308	 1.517575	 -0.201710
H	 -2.315015	 0.655684	 1.319734
C	 0.198102	 0.111031	 0.262842
H	 -1.208843	 -0.518759	 -1.250427
H	 -1.368741	 -1.376554	 0.258909
C	 1.331804	 -0.827780	 -0.158768
H	 0.361943	 1.100838	 -0.156218
H	 0.217265	 0.229072	 1.345532
C	 2.723619	 -0.410569	 0.329459
H	 1.342964	 -0.912588	 -1.244120
H	 1.116806	 -1.824343	 0.220779
C	 3.514351	 0.446911	 -0.660393
H	 3.295548	 -1.309597	 0.545636
H	 2.628776	 0.122054	 1.273643
H	 3.614321	 -0.055635	 -1.618773
H	 3.039146	 1.406018	 -0.837794
H	 4.514204	 0.644249	 -0.286086

	symmetry c1
}
set optking {
	frozen_dihedral = ("
		2 3 4 8,
		8 4 7 10,
		4 7 10 14,
		1 2 3 5
	")
}

ee = energy('scf')
oeprop('DIPOLE', 'QUADRUPOLE', 'MULLIKEN_CHARGES')
f=open( 'psi4out.xyz', 'w' )
f.write( "21  " )
f.write( str(ee) + "\n" )
f.write( MOL.save_string_xyz() )
f.close()
--------------------------------------------------------------------------

    Molecular point group: c1

    Geometry (in Angstrom), charge = 0, multiplicity = 1:

       Center              X                  Y                   Z               Mass
    ------------   -----------------  -----------------  -----------------  -----------------
           H         -4.276222318681     0.604154409000     0.096570544658     1.007825032070
           O         -3.556838318681     0.039859409000    -0.148301455342    15.994914619560
           C         -2.346614318681     0.598404409000     0.294390544658    12.000000000000
           C         -1.217591318681    -0.331140591000    -0.114266455342    12.000000000000
           H         -2.196036318681     1.583625409000    -0.144896455342     1.007825032070
           H         -2.354743318681     0.721734409000     1.376547544658     1.007825032070
           C          0.158373681319     0.177081409000     0.319655544658    12.000000000000
           H         -1.248571318681    -0.452708591000    -1.193613455342     1.007825032070
           H         -1.408469318681    -1.310503591000     0.315722544658     1.007825032070
           C          1.292075681319    -0.761729591000    -0.101954455342    12.000000000000
           H          0.322214681319     1.166888409000    -0.099404455342     1.007825032070
           H          0.177536681319     0.295122409000     1.402345544658     1.007825032070
           C          2.683890681319    -0.344518591000     0.386272544658    12.000000000000
           H          1.303235681319    -0.846537591000    -1.187306455342     1.007825032070
           H          1.077077681319    -1.758292591000     0.277592544658     1.007825032070
           C          3.474622681319     0.512961409000    -0.603579455342    12.000000000000
           H          3.255819681319    -1.243546591000     0.602449544658     1.007825032070
           H          2.589047681319     0.188104409000     1.330456544658     1.007825032070
           H          3.574592681319     0.010415409000    -1.561959455342     1.007825032070
           H          2.999417681319     1.472068409000    -0.780980455342     1.007825032070
           H          4.474475681319     0.710299409000    -0.229272455342     1.007825032070

  Charge       = 0
  Multiplicity = 1
  Basis Set: 6-31G*
  Basis Set:

    Orbital Energies (a.u.)
    -----------------------

    Doubly Occupied:

       1A    -20.551828     2A    -11.267064     3A    -11.216190
       4A    -11.214212     5A    -11.212710     6A    -11.210524
       7A    -11.208314     8A     -1.358655     9A     -1.085685
      10A     -1.033590    11A     -0.955520    12A     -0.872338
      13A     -0.805190    14A     -0.784285    15A     -0.692483
      16A     -0.661076    17A     -0.617514    18A     -0.611417
      19A     -0.586597    20A     -0.565957    21A     -0.537518
      22A     -0.522217    23A     -0.509180    24A     -0.486607
      25A     -0.479095    26A     -0.462844    27A     -0.453498
      28A     -0.442243    29A     -0.433972

  @DF-RHF Final Energy:  -310.21045384429505

   => Energetics <=

    Nuclear Repulsion Energy =            310.8556727969275357
    One-Electron Energy =               -1036.4558243332587608
    Two-Electron Energy =                 415.3896976920364068
    DFT Exchange-Correlation Energy =       0.0000000000000000
    Empirical Dispersion Energy =           0.0000000000000000
    PCM Polarization Energy =               0.0000000000000000
    EFP Energy =                            0.0000000000000000
    Total Energy =                       -310.2104538442947614

  Mulliken Charges: (a.u.)
   Center  Symbol    Alpha    Beta     Spin     Total
       1     H     0.28118  0.28118  0.00000  0.43764
       2     O     4.37176  4.37176  0.00000 -0.74353
       3     C     2.98978  2.98978  0.00000  0.02044
       4     C     3.15958  3.15958  0.00000 -0.31917
       5     H     0.43294  0.43294  0.00000  0.13413
       6     H     0.43288  0.43288  0.00000  0.13424
       7     C     3.16084  3.16084  0.00000 -0.32168
       8     H     0.41473  0.41473  0.00000  0.17054
       9     H     0.41469  0.41469  0.00000  0.17061
      10     C     3.15322  3.15322  0.00000 -0.30644
      11     H     0.42299  0.42299  0.00000  0.15401
      12     H     0.42345  0.42345  0.00000  0.15310
      13     C     3.15435  3.15435  0.00000 -0.30869
      14     H     0.42151  0.42151  0.00000  0.15697
      15     H     0.42059  0.42059  0.00000  0.15883
      16     C     3.23957  3.23957  0.00000 -0.47914
      17     H     0.42044  0.42044  0.00000  0.15912
      18     H     0.42239  0.42239  0.00000  0.15522
      19     H     0.42142  0.42142  0.00000  0.15717
      20     H     0.42174  0.42174  0.00000  0.15653
      21     H     0.41995  0.41995  0.00000  0.16011

   Total alpha = 29.00000, Total beta = 29.00000, Total charge = -0.00000
