  ==> Input File <==

--------------------------------------------------------------------------
set {
	reference rhf
	basis 6-31G*
}

set_num_threads( 4 )
memory 2 gb

molecule MOL {
0 1

H	 -2.798360	 -0.862255	 -0.071053
N	 -1.863561	 -0.715187	 0.256814
C	 -1.344686	 0.554728	 -0.219830
H	 -1.300452	 -1.461917	 -0.101532
C	 0.081427	 0.741154	 0.254071
H	 -1.362155	 0.656231	 -1.305829
H	 -1.952773	 1.354456	 0.191809
O	 0.874168	 -0.245412	 -0.342030
H	 0.444037	 1.730782	 -0.023037
H	 0.121165	 0.653424	 1.337565
C	 0.883970	 -0.211061	 -1.733538
H	 1.523089	 -1.013095	 -2.076998
H	 -0.114210	 -0.357744	 -2.142320
H	 1.273543	 0.734426	 -2.105152

	symmetry c1
}
set optking {
	frozen_dihedral = ("
		11 8 5 3
	")
}

ee = optimize('scf')
oeprop('DIPOLE', 'QUADRUPOLE', 'MULLIKEN_CHARGES')
f=open( 'psi4out.xyz', 'w' )
f.write( "14  " )
f.write( str(ee) + "\n" )
f.write( MOL.save_string_xyz() )
f.close()
--------------------------------------------------------------------------

    Molecular point group: c1
  Charge       = 0
  Multiplicity = 1
  Basis Set: 6-31G*
  Basis Set:
  @DF-RHF Final Energy:  -248.11445141867895
    Total Energy =                       -248.1144514186787546
    Molecular point group: c1
  Basis Set: 6-31G*
  Basis Set:
  Basis Set: 6-31G*
  Basis Set:
  @DF-RHF Final Energy:  -248.11728967143847
    Total Energy =                       -248.1172896714384706
  Basis Set: 6-31G*
  Basis Set:
  Basis Set: 6-31G*
  Basis Set:
  @DF-RHF Final Energy:  -248.11996481724285
    Total Energy =                       -248.1199648172428738
  Basis Set: 6-31G*
  Basis Set:
  Basis Set: 6-31G*
  Basis Set:
  @DF-RHF Final Energy:  -248.12050130798815
    Total Energy =                       -248.1205013079880928
  Basis Set: 6-31G*
  Basis Set:
  Basis Set: 6-31G*
  Basis Set:
  @DF-RHF Final Energy:  -248.12057414583640
    Total Energy =                       -248.1205741458365992
  Basis Set: 6-31G*
  Basis Set:
  Basis Set: 6-31G*
  Basis Set:
  @DF-RHF Final Energy:  -248.12057887784272
    Total Energy =                       -248.1205788778427177
  Basis Set: 6-31G*
  Basis Set:
  Charge       = 0
  Multiplicity = 1
  Basis Set: 6-31G*
  Basis Set:

    Orbital Energies (a.u.)
    -----------------------

    Doubly Occupied:

       1A    -20.557762     2A    -15.533857     3A    -11.268504
       4A    -11.267451     5A    -11.245007     6A     -1.379523
       7A     -1.177687     8A     -0.998558     9A     -0.923233
      10A     -0.808131    11A     -0.688909    12A     -0.675729
      13A     -0.645763    14A     -0.618477    15A     -0.601037
      16A     -0.547055    17A     -0.530712    18A     -0.519444
      19A     -0.461921    20A     -0.417174    21A     -0.382731

  @DF-RHF Final Energy:  -248.12057941970150

   => Energetics <=

    Nuclear Repulsion Energy =            197.4860038449249657
    One-Electron Energy =                -728.7158367129968610
    Two-Electron Energy =                 283.1092534483704526
    DFT Exchange-Correlation Energy =       0.0000000000000000
    Empirical Dispersion Energy =           0.0000000000000000
    PCM Polarization Energy =               0.0000000000000000
    EFP Energy =                            0.0000000000000000
    Total Energy =                       -248.1205794197014143
    Molecular point group: c1
  Basis Set: 6-31G*
  Basis Set:

  -Total Gradient:
     Atom            X                  Y                   Z
    ------   -----------------  -----------------  -----------------
       1       -0.000004935824    -0.000001538039    -0.000006928071
       2        0.000005461019    -0.000012874775     0.000034770311
       3        0.000397258473     0.001632567979    -0.002001528513
       4       -0.000000459399    -0.000029099240    -0.000012185372
       5       -0.001606787201    -0.003132798724     0.002878680993
       6        0.000013399331     0.000001181864    -0.000015185178
       7       -0.000003960713     0.000009914017    -0.000014596035
       8        0.003400403340     0.003436669698    -0.000812226662
       9        0.000006354069    -0.000011312518     0.000011770417
      10        0.000012346257    -0.000012751379    -0.000006172899
      11       -0.002214270155    -0.001866874648    -0.000085015178
      12        0.000005505269    -0.000004178044     0.000012916303
      13       -0.000012708612    -0.000003734617     0.000004277031
      14        0.000002394146    -0.000005171571     0.000011422852

  **** Optimization is complete! (in 7 steps) ****
    Final optimized geometry and variables:
    Molecular point group: c1

    Geometry (in Angstrom), charge = 0, multiplicity = 1:

    H           -2.575725399459    -0.832614711329     0.298590992173
    N           -1.643140277901    -0.693264135201     0.634555952957
    C           -1.114802843663     0.592154174308     0.214284636216
    H           -1.076251824357    -1.438520595669     0.279809670474
    C            0.349084479287     0.708653674216     0.610864929127
    H           -1.228624232657     0.787417618665    -0.853062289568
    H           -1.659030771915     1.376725998857     0.731367266600
    O            1.183822835400    -0.253470359872     0.024340833868
    H            0.709769315718     1.706671074497     0.361279431396
    H            0.443488786169     0.566086458069     1.678105811969
    C            1.237827415139    -0.265585260039    -1.368102023129
    H            2.054425892903    -0.916608547860    -1.649174969110
    H            0.323902821308    -0.647775945418    -1.814279173501
    H            1.428962909151     0.727613912637    -1.770844214623

  Mulliken Charges: (a.u.)
   Center  Symbol    Alpha    Beta     Spin     Total
       1     H     0.33188  0.33188  0.00000  0.33623
       2     N     3.92440  3.92440  0.00000 -0.84880
       3     C     3.08017  3.08017  0.00000 -0.16034
       4     H     0.32528  0.32528  0.00000  0.34944
       5     C     2.99339  2.99339  0.00000  0.01323
       6     H     0.43177  0.43177  0.00000  0.13646
       7     H     0.41679  0.41679  0.00000  0.16642
       8     O     4.30745  4.30745  0.00000 -0.61489
       9     H     0.42993  0.42993  0.00000  0.14014
      10     H     0.40548  0.40548  0.00000  0.18905
      11     C     3.08261  3.08261  0.00000 -0.16522
      12     H     0.41069  0.41069  0.00000  0.17862
      13     H     0.43047  0.43047  0.00000  0.13906
      14     H     0.42970  0.42970  0.00000  0.14060

   Total alpha = 21.00000, Total beta = 21.00000, Total charge = -0.00000
