                              Psi4 1.0.54 Driver

  ==> Input File <==

--------------------------------------------------------------------------
set {
	reference rhf
	basis cc-pvtz
}

set_num_threads( 4 )
memory 2 gb

molecule MOL {
0 1

H	 -3.258660	 -0.290394	 1.471450
C	 -3.307964	 -0.275695	 0.374072
C	 -2.653809	 0.914422	 -0.273689
O	 -3.855140	 -1.148880	 -0.205112
C	 -1.216901	 1.136108	 0.207794
H	 -2.700131	 0.790676	 -1.347875
H	 -3.256452	 1.781007	 -0.010713
C	 -0.247837	 0.040196	 -0.230469
H	 -0.872882	 2.093195	 -0.169002
H	 -1.209325	 1.218376	 1.291938
C	 1.181757	 0.280428	 0.247371
H	 -0.259600	 -0.030819	 -1.314870
H	 -0.591284	 -0.923375	 0.136958
C	 2.151032	 -0.811012	 -0.202643
H	 1.515939	 1.247397	 -0.115449
H	 1.191514	 0.341223	 1.333422
C	 3.580021	 -0.656538	 0.320835
H	 2.170545	 -0.847575	 -1.289412
H	 1.766632	 -1.772905	 0.124928
C	 3.726800	 0.295303	 1.505546
H	 4.204860	 -0.298720	 -0.491528
H	 3.969579	 -1.633935	 0.593318
H	 3.339039	 1.279887	 1.264232
H	 3.199404	 -0.062122	 2.381780
H	 4.769422	 0.410242	 1.778845

	symmetry c1
}
set optking {
	frozen_dihedral = ("
		20 17 14 18
	")
}

ee,wfn = optimize('scf', return_wfn=True)
oeprop( wfn, 'DIPOLE', 'QUADRUPOLE', 'MULLIKEN_CHARGES')
f=open( 'psi4out.xyz', 'w' )
f.write( "25  " )
f.write( str(ee) + "\n" )
f.write( MOL.save_string_xyz() )
f.close()
--------------------------------------------------------------------------

    Molecular point group: c1
  Charge       = 0
  Multiplicity = 1
  Basis Set: CC-PVTZ
  Basis Set:
  @DF-RHF Final Energy:  -387.25187066496329
    Total Energy =                       -387.2518706649639171
    Molecular point group: c1
  Basis Set: CC-PVTZ
  Basis Set:
  Basis Set: CC-PVTZ
  Basis Set:
  @DF-RHF Final Energy:  -387.17083499107525
    Total Energy =                       -387.1708349910753668
  Basis Set: CC-PVTZ
  Basis Set:
  Basis Set: CC-PVTZ
  Basis Set:
  @DF-RHF Final Energy:  -387.24422108496384
    Total Energy =                       -387.2442210849640105
  Basis Set: CC-PVTZ
  Basis Set:
  Basis Set: CC-PVTZ
  Basis Set:
  @DF-RHF Final Energy:  -387.25335727518046
    Total Energy =                       -387.2533572751802922
  Basis Set: CC-PVTZ
  Basis Set:
  @DF-RHF Final Energy:  -387.25353895017645
    Total Energy =                       -387.2535389501762211
  @DF-RHF Final Energy:  -387.24954006655491
    Total Energy =                       -387.2495400665552552
  @DF-RHF Final Energy:  -387.25362005008083
    Total Energy =                       -387.2536200500803716
  Basis Set: CC-PVTZ
  Basis Set:
  @DF-RHF Final Energy:  -387.25370174948625
    Total Energy =                       -387.2537017494864813
  Basis Set: CC-PVTZ
  Basis Set:
  Basis Set: CC-PVTZ
  Basis Set:
  @DF-RHF Final Energy:  -387.25369952913923
    Total Energy =                       -387.2536995291392259
  Basis Set: CC-PVTZ
  Basis Set:
  Basis Set: CC-PVTZ
  Basis Set:
  @DF-RHF Final Energy:  -387.25370631142209
    Total Energy =                       -387.2537063114223201
  Basis Set: CC-PVTZ
  Basis Set:
  Charge       = 0
  Multiplicity = 1
  Basis Set: CC-PVTZ
  Basis Set:

    Orbital Energies (a.u.)
    -----------------------

    Doubly Occupied:

       1A    -20.551295     2A    -11.320957     3A    -11.233722
       4A    -11.232687     5A    -11.221428     6A    -11.217483
       7A    -11.216531     8A    -11.215371     9A    -11.209005
      10A     -1.406236    11A     -1.104678    12A     -1.068413
      13A     -1.013536    14A     -0.943102    15A     -0.878804
      16A     -0.823306    17A     -0.788387    18A     -0.774692
      19A     -0.667628    20A     -0.665877    21A     -0.639401
      22A     -0.622613    23A     -0.608585    24A     -0.588530
      25A     -0.571466    26A     -0.559497    27A     -0.531004
      28A     -0.526206    29A     -0.516611    30A     -0.497243
      31A     -0.491685    32A     -0.481295    33A     -0.460892
      34A     -0.452472    35A     -0.443154    36A     -0.411774

  @DF-RHF Final Energy:  -387.25370604644780

   => Energetics <=

    Nuclear Repulsion Energy =            440.8492300311324357
    One-Electron Energy =               -1398.2947456578988294
    Two-Electron Energy =                 570.1918095803189317
    DFT Exchange-Correlation Energy =       0.0000000000000000
    Empirical Dispersion Energy =           0.0000000000000000
    PCM Polarization Energy =               0.0000000000000000
    EFP Energy =                            0.0000000000000000
    Total Energy =                       -387.2537060464474052
    Molecular point group: c1
  Basis Set: CC-PVTZ
  Basis Set:

  -Total Gradient:
     Atom            X                  Y                   Z
    ------   -----------------  -----------------  -----------------
       1       -0.000032808087    -0.000043550294     0.000117932297
       2        0.000053611514     0.000123402474    -0.000044173455
       3        0.000054792306     0.000027843574     0.000068989836
       4       -0.000080451432    -0.000182499973    -0.000120177067
       5        0.000044632488     0.000070659760    -0.000061207192
       6       -0.000000074593     0.000016811273    -0.000006787063
       7       -0.000017990937     0.000004448724     0.000006321258
       8       -0.000032310374    -0.000015131101     0.000025153298
       9        0.000020988550    -0.000010720595     0.000013020129
      10        0.000001208454     0.000016476293     0.000002860653
      11       -0.000015772219     0.000013007543    -0.000001927980
      12        0.000001387918     0.000012135917     0.000007366823
      13       -0.000012559855    -0.000009659673    -0.000006406731
      14        0.000922565091    -0.005107811285    -0.001147117052
      15       -0.000002934308    -0.000000945750     0.000002574146
      16       -0.000004929884    -0.000000495494    -0.000034069771
      17       -0.002210725477    -0.003613331341     0.002905112718
      18       -0.000216653307     0.005402168897     0.000213611518
      19        0.000012996604    -0.000003767848     0.000001015164
      20        0.001470533914     0.003342827572    -0.001896827659
      21        0.000002687642    -0.000007626906    -0.000004561509
      22        0.000008087103    -0.000017772327    -0.000018904149
      23       -0.000002500265    -0.000059573070     0.000035075408
      24        0.000090506630     0.000022485286    -0.000040621132
      25       -0.000054287482     0.000020618347    -0.000016252492

  **** Optimization is complete! (in 11 steps) ****
    Final optimized geometry and variables:
    Molecular point group: c1

    Geometry (in Angstrom), charge = 0, multiplicity = 1:

    H           -3.471631876372    -0.077420212638    -0.047528431373
    C           -3.098045806352     0.036940096888    -1.074519888864
    C           -2.184190521070     1.213038518022    -1.289313835968
    O           -3.428878840292    -0.728274464806    -1.912688106527
    C           -1.034451898933     1.263284319348    -0.278961975518
    H           -1.819630754462     1.184248376623    -2.307976732422
    H           -2.796468266793     2.105408057506    -1.178906321323
    C           -0.034249959804     0.119350610780    -0.432084783343
    H           -0.518832199595     2.210673838099    -0.392803159962
    H           -1.441319532284     1.260604895417     0.729289049747
    C            1.113151190799     0.191152914325     0.572180276616
    H            0.365627630888     0.131060065098    -1.442501994425
    H           -0.545889533638    -0.833654559677    -0.323386504968
    C            2.109102028496    -0.957910453742     0.399361214686
    H            1.625746278354     1.142271711961     0.454507485347
    H            0.703321455012     0.186833819173     1.576961930454
    C            3.337860531949    -0.950053862209     1.339757691585
    H            2.465296129411    -0.903198937149    -0.624171568843
    H            1.573583975932    -1.895887395854     0.501816718986
    C            3.224310189095    -0.130024996478     2.624188345046
    H            4.190862789603    -0.568220196782     0.787320868049
    H            3.589710497833    -1.973367832134     1.594680774738
    H            3.061531624420     0.920435986467     2.419964641903
    H            2.414054004803    -0.474482678118     3.257763216237
    H            4.140906585466    -0.213174557857     3.196788958537

  Mulliken Charges: (a.u.)
   Center  Symbol    Alpha    Beta     Spin     Total
       1     H     0.46414  0.46414  0.00000  0.07173
       2     C     2.90470  2.90470  0.00000  0.19059
       3     C     3.08909  3.08909  0.00000 -0.17819
       4     O     4.16641  4.16641  0.00000 -0.33282
       5     C     3.11596  3.11596  0.00000 -0.23191
       6     H     0.44289  0.44289  0.00000  0.11422
       7     H     0.44052  0.44052  0.00000  0.11895
       8     C     3.09173  3.09173  0.00000 -0.18346
       9     H     0.44327  0.44327  0.00000  0.11347
      10     H     0.44995  0.44995  0.00000  0.10010
      11     C     3.09201  3.09201  0.00000 -0.18402
      12     H     0.44981  0.44981  0.00000  0.10038
      13     H     0.44858  0.44858  0.00000  0.10284
      14     C     3.09759  3.09759  0.00000 -0.19518
      15     H     0.45255  0.45255  0.00000  0.09490
      16     H     0.45093  0.45093  0.00000  0.09814
      17     C     3.08808  3.08808  0.00000 -0.17617
      18     H     0.45100  0.45100  0.00000  0.09799
      19     H     0.45023  0.45023  0.00000  0.09954
      20     C     3.15762  3.15762  0.00000 -0.31524
      21     H     0.45319  0.45319  0.00000  0.09361
      22     H     0.44924  0.44924  0.00000  0.10152
      23     H     0.45262  0.45262  0.00000  0.09476
      24     H     0.45380  0.45380  0.00000  0.09240
      25     H     0.44407  0.44407  0.00000  0.11186

   Total alpha = 36.00000, Total beta = 36.00000, Total charge =  0.00000

*** Psi4 exiting successfully. Buy a developer a beer!
