  ==> Input File <==

--------------------------------------------------------------------------
set {
	reference rhf
	basis 6-31G*
}

set_num_threads( 4 )
memory 2 gb

molecule MOL {
0 1

O	 -2.042549	 -1.228399	 -0.269030
C	 -1.653912	 -0.146171	 0.050137
C	 -0.332303	 0.024011	 0.778412
C	 -2.438579	 1.106236	 -0.272369
C	 0.845713	 -0.001731	 -0.208243
H	 -0.323783	 0.953829	 1.340327
H	 -0.235459	 -0.796807	 1.480410
C	 1.947099	 0.992108	 0.163595
H	 0.489026	 0.217966	 -1.213027
H	 1.252387	 -1.008214	 -0.235590
C	 3.123861	 0.962291	 -0.810853
H	 1.531084	 1.996677	 0.198225
H	 2.302830	 0.772710	 1.167531
H	 2.805348	 1.211398	 -1.819093
H	 3.581162	 -0.022248	 -0.842507
H	 3.890134	 1.674187	 -0.520930
H	 -3.277823	 0.863061	 -0.908988
H	 -1.806773	 1.843019	 -0.759671
H	 -2.802853	 1.554979	 0.648059

	symmetry c1
}
set optking {
	frozen_dihedral = ("
		9 5 3 2
	")
}

ee = optimize('scf')
oeprop('DIPOLE', 'QUADRUPOLE', 'MULLIKEN_CHARGES')
f=open( 'psi4out.xyz', 'w' )
f.write( "19  " )
f.write( str(ee) + "\n" )
f.write( MOL.save_string_xyz() )
f.close()
--------------------------------------------------------------------------

    Molecular point group: c1
  Charge       = 0
  Multiplicity = 1
  Basis Set: 6-31G*
  Basis Set:
  @DF-RHF Final Energy:  -309.06082605765573
    Total Energy =                       -309.0608260576559019
    Molecular point group: c1
  Basis Set: 6-31G*
  Basis Set:
  Basis Set: 6-31G*
  Basis Set:
  @DF-RHF Final Energy:  -309.06103126151061
    Total Energy =                       -309.0610312615104931
  Basis Set: 6-31G*
  Basis Set:
  Basis Set: 6-31G*
  Basis Set:
  @DF-RHF Final Energy:  -309.05896856961169
    Total Energy =                       -309.0589685696116931
  Basis Set: 6-31G*
  Basis Set:
  Basis Set: 6-31G*
  Basis Set:
  @DF-RHF Final Energy:  -309.06133610911428
    Total Energy =                       -309.0613361091141087
  Basis Set: 6-31G*
  Basis Set:
  @DF-RHF Final Energy:  -309.06139989649091
    Total Energy =                       -309.0613998964907978
  @DF-RHF Final Energy:  -309.06143135190928
    Total Energy =                       -309.0614313519092775
  Basis Set: 6-31G*
  Basis Set:
  @DF-RHF Final Energy:  -309.06144320492456
    Total Energy =                       -309.0614432049244442
  Basis Set: 6-31G*
  Basis Set:
  Basis Set: 6-31G*
  Basis Set:
  @DF-RHF Final Energy:  -309.06144687563966
    Total Energy =                       -309.0614468756396604
  Basis Set: 6-31G*
  Basis Set:
  Basis Set: 6-31G*
  Basis Set:
  @DF-RHF Final Energy:  -309.06144833705861
    Total Energy =                       -309.0614483370587777
  Basis Set: 6-31G*
  Basis Set:
  Charge       = 0
  Multiplicity = 1
  Basis Set: 6-31G*
  Basis Set:

    Orbital Energies (a.u.)
    -----------------------

    Doubly Occupied:

       1A    -20.547195     2A    -11.324301     3A    -11.232842
       4A    -11.229576     5A    -11.228077     6A    -11.227520
       7A    -11.216796     8A     -1.392708     9A     -1.092291
      10A     -1.029972    11A     -0.982652    12A     -0.892859
      13A     -0.810174    14A     -0.734214    15A     -0.659595
      16A     -0.646928    17A     -0.621628    18A     -0.613530
      19A     -0.584349    20A     -0.575299    21A     -0.551610
      22A     -0.538807    23A     -0.511700    24A     -0.504297
      25A     -0.484165    26A     -0.475158    27A     -0.467790
      28A     -0.396649

  @DF-RHF Final Energy:  -309.06144827603134

   => Energetics <=

    Nuclear Repulsion Energy =            301.9123788892050015
    One-Electron Energy =               -1016.8022856042564399
    Two-Electron Energy =                 405.8284584390202099
    DFT Exchange-Correlation Energy =       0.0000000000000000
    Empirical Dispersion Energy =           0.0000000000000000
    PCM Polarization Energy =               0.0000000000000000
    EFP Energy =                            0.0000000000000000
    Total Energy =                       -309.0614482760312285
    Molecular point group: c1
  Basis Set: 6-31G*
  Basis Set:

  -Total Gradient:
     Atom            X                  Y                   Z
    ------   -----------------  -----------------  -----------------
       1        0.000043420613     0.000025810644    -0.000049453460
       2       -0.000294300577     0.002532970035     0.000055362264
       3        0.000358498208    -0.004411356538    -0.000111758462
       4       -0.000096935043     0.000049598881     0.000045747679
       5        0.000480467022     0.005488037256     0.000933911816
       6       -0.000009274017     0.000014470972    -0.000013918365
       7       -0.000036028526    -0.000050404478     0.000007033444
       8       -0.000014919864    -0.000038117728     0.000070196202
       9       -0.000510304937    -0.003547363857    -0.000857263051
      10        0.000030429768    -0.000033847742     0.000027619268
      11       -0.000008675353     0.000005942483    -0.000002290309
      12        0.000014356535    -0.000036717454    -0.000018838076
      13        0.000005306227     0.000006293350     0.000003330665
      14        0.000001322960     0.000000117196    -0.000001082589
      15       -0.000001129351     0.000000073359     0.000001295942
      16       -0.000000339487    -0.000000579792    -0.000000001560
      17        0.000014657815     0.000036275109    -0.000034546755
      18       -0.000017759280    -0.000042396969     0.000001925155
      19        0.000041207284     0.000001195277    -0.000057269807

  **** Optimization is complete! (in 10 steps) ****
    Final optimized geometry and variables:
    Molecular point group: c1

    Geometry (in Angstrom), charge = 0, multiplicity = 1:

    O           -2.092971413039    -1.491365999179     0.035168352090
    C           -1.588165792028    -0.421179816053     0.188582307752
    C           -0.237661076369    -0.267146424820     0.861421306273
    C           -2.264712508673     0.847088968338    -0.288666200906
    C            0.910087302128    -0.200886282224    -0.174547962759
    H           -0.244169657016     0.643594647125     1.455226553093
    H           -0.094733942574    -1.102753775823     1.534385176592
    C            2.038451094509     0.747728517622     0.229042380717
    H            0.524627556042     0.073770891982    -1.154228729129
    H            1.309340014121    -1.202353363120    -0.305534482099
    C            3.198626938994     0.747039761933    -0.764830533694
    H            1.642802022382     1.756613554958     0.324691378685
    H            2.404337531844     0.468643959647     1.214702834820
    H            2.867706662809     1.048820876952    -1.754539254767
    H            3.639945341278    -0.241498921379    -0.851497234948
    H            3.980551809515     1.432642811635    -0.454179059008
    H           -3.093184901490     0.600500059594    -0.938072162529
    H           -1.568965081422     1.498375340663    -0.807685997765
    H           -2.639175153646     1.396312705979     0.571319997770

  Mulliken Charges: (a.u.)
   Center  Symbol    Alpha    Beta     Spin     Total
       1     O     4.26054  4.26054  0.00000 -0.52109
       2     C     2.74007  2.74007  0.00000  0.51985
       3     C     3.20189  3.20189  0.00000 -0.40378
       4     C     3.28935  3.28935  0.00000 -0.57869
       5     C     3.16110  3.16110  0.00000 -0.32220
       6     H     0.41539  0.41539  0.00000  0.16921
       7     H     0.39859  0.39859  0.00000  0.20281
       8     C     3.15363  3.15363  0.00000 -0.30726
       9     H     0.41736  0.41736  0.00000  0.16527
      10     H     0.40943  0.40943  0.00000  0.18113
      11     C     3.24097  3.24097  0.00000 -0.48193
      12     H     0.42247  0.42247  0.00000  0.15506
      13     H     0.41918  0.41918  0.00000  0.16164
      14     H     0.42045  0.42045  0.00000  0.15909
      15     H     0.41901  0.41901  0.00000  0.16197
      16     H     0.41710  0.41710  0.00000  0.16581
      17     H     0.39683  0.39683  0.00000  0.20634
      18     H     0.41072  0.41072  0.00000  0.17855
      19     H     0.40589  0.40589  0.00000  0.18821

   Total alpha = 28.00000, Total beta = 28.00000, Total charge = -0.00000
