  ==> Input File <==

--------------------------------------------------------------------------
set {
	reference rhf
	basis 6-31G*
}

set_num_threads( 4 )
memory 2 gb

molecule MOL {
0 1

H	 1.796423	 -1.297385	 0.476638
C	 1.951159	 -0.223429	 0.317018
C	 0.692068	 0.589600	 0.160137
O	 3.052352	 0.221535	 0.278148
C	 -0.558097	 -0.297372	 0.091132
H	 0.791645	 1.202255	 -0.728243
H	 0.616171	 1.253469	 1.020572
C	 -1.850991	 0.512573	 -0.019058
H	 -0.476753	 -0.965681	 -0.762987
H	 -0.604799	 -0.930658	 0.975228
C	 -3.096943	 -0.368295	 -0.099594
H	 -1.800724	 1.150330	 -0.898172
H	 -1.931651	 1.177355	 0.838044
H	 -3.060452	 -1.020287	 -0.967456
H	 -3.996858	 0.233488	 -0.175704
H	 -3.191959	 -0.995686	 0.782074

	symmetry c1
}
set optking {
	frozen_dihedral = ("
		4 2 3 6
	")
}

ee = optimize('scf')
oeprop('DIPOLE', 'QUADRUPOLE', 'MULLIKEN_CHARGES')
f=open( 'psi4out.xyz', 'w' )
f.write( "16  " )
f.write( str(ee) + "\n" )
f.write( MOL.save_string_xyz() )
f.close()
--------------------------------------------------------------------------

    Molecular point group: c1
  Charge       = 0
  Multiplicity = 1
  Basis Set: 6-31G*
  Basis Set:
  @DF-RHF Final Energy:  -270.01847379033381
    Total Energy =                       -270.0184737903338146
    Molecular point group: c1
  Basis Set: 6-31G*
  Basis Set:
  Basis Set: 6-31G*
  Basis Set:
  @DF-RHF Final Energy:  -270.01853771236819
    Total Energy =                       -270.0185377123682429
  Basis Set: 6-31G*
  Basis Set:
  Basis Set: 6-31G*
  Basis Set:
  @DF-RHF Final Energy:  -270.01814679276765
    Total Energy =                       -270.0181467927674817
  Basis Set: 6-31G*
  Basis Set:
  Basis Set: 6-31G*
  Basis Set:
  @DF-RHF Final Energy:  -270.01882562862113
    Total Energy =                       -270.0188256286212436
  Basis Set: 6-31G*
  Basis Set:
  Basis Set: 6-31G*
  Basis Set:
  @DF-RHF Final Energy:  -270.01881406729717
    Total Energy =                       -270.0188140672970007
  Basis Set: 6-31G*
  Basis Set:
  Basis Set: 6-31G*
  Basis Set:
  @DF-RHF Final Energy:  -270.01882665494952
    Total Energy =                       -270.0188266549494074
  Basis Set: 6-31G*
  Basis Set:
  Basis Set: 6-31G*
  Basis Set:
  @DF-RHF Final Energy:  -270.01882946540024
    Total Energy =                       -270.0188294654000742
  Basis Set: 6-31G*
  Basis Set:
  Charge       = 0
  Multiplicity = 1
  Basis Set: 6-31G*
  Basis Set:

    Orbital Energies (a.u.)
    -----------------------

    Doubly Occupied:

       1A    -20.561499     2A    -11.327849     3A    -11.235731
       4A    -11.234288     5A    -11.229249     6A    -11.218612
       7A     -1.402528     8A     -1.096522     9A     -1.018252
      10A     -0.904379    11A     -0.812001    12A     -0.796971
      13A     -0.664205    14A     -0.658491    15A     -0.631059
      16A     -0.601810    17A     -0.590211    18A     -0.541608
      19A     -0.537315    20A     -0.494848    21A     -0.490571
      22A     -0.486193    23A     -0.477445    24A     -0.409414

  @DF-RHF Final Energy:  -270.01882955217673

   => Energetics <=

    Nuclear Repulsion Energy =            228.0186265950187874
    One-Electron Energy =                -817.2328114321358044
    Two-Electron Energy =                 319.1953552849403195
    DFT Exchange-Correlation Energy =       0.0000000000000000
    Empirical Dispersion Energy =           0.0000000000000000
    PCM Polarization Energy =               0.0000000000000000
    EFP Energy =                            0.0000000000000000
    Total Energy =                       -270.0188295521767259
    Molecular point group: c1
  Basis Set: 6-31G*
  Basis Set:

  -Total Gradient:
     Atom            X                  Y                   Z
    ------   -----------------  -----------------  -----------------
       1        0.000045097955    -0.000012355481     0.000017547270
       2        0.000081715487    -0.000109338776    -0.000594072204
       3        0.000114648406     0.000343342500     0.000429283260
       4       -0.000015649220    -0.000000650519     0.000369789154
       5       -0.000101377697     0.000005952680    -0.000009874612
       6       -0.000127070538    -0.000209254675    -0.000153240045
       7        0.000004377520     0.000013471583    -0.000072781779
       8       -0.000007217959    -0.000024145369     0.000033741808
       9       -0.000000987176    -0.000011093101    -0.000001299453
      10       -0.000011476385    -0.000000727348     0.000000250908
      11        0.000010268939    -0.000001711772    -0.000024246696
      12       -0.000002694971     0.000002761866     0.000001818553
      13        0.000003822678     0.000004186576     0.000006169142
      14       -0.000001894779    -0.000012574102     0.000001333669
      15        0.000008318626     0.000003157601    -0.000008287665
      16        0.000000119111     0.000008978339     0.000003868687

  **** Optimization is complete! (in 8 steps) ****
    Final optimized geometry and variables:
    Molecular point group: c1

    Geometry (in Angstrom), charge = 0, multiplicity = 1:

    H            1.834779409438    -1.379139146151     0.331806271067
    C            1.942308173624    -0.297659503885     0.186550538080
    C            0.657843599177     0.492834461619     0.057853153746
    O            3.023298740881     0.193462610030     0.147504032921
    C           -0.595343894170    -0.378380009327    -0.019669899753
    H            0.750602504995     1.124477511759    -0.821049712556
    H            0.607240109712     1.164598195625     0.911702186857
    C           -1.881980058310     0.438385680572    -0.144472328087
    H           -0.515137174440    -1.054359539668    -0.869291058127
    H           -0.654434562934    -1.008421715218     0.866192380907
    C           -3.134005506994    -0.433699004857    -0.223470011570
    H           -1.822972442481     1.068135669620    -1.029227961282
    H           -1.963014698313     1.112558128629     0.705240560498
    H           -3.096695214853    -1.096858095835    -1.082931090859
    H           -4.028778800927     0.173771031873    -0.313262894120
    H           -3.239957250432    -1.049566335692     0.664984916240

  Mulliken Charges: (a.u.)
   Center  Symbol    Alpha    Beta     Spin     Total
       1     H     0.42853  0.42853  0.00000  0.14294
       2     C     2.83525  2.83525  0.00000  0.32950
       3     C     3.20650  3.20650  0.00000 -0.41301
       4     O     4.24060  4.24060  0.00000 -0.48119
       5     C     3.16418  3.16418  0.00000 -0.32835
       6     H     0.39876  0.39876  0.00000  0.20248
       7     H     0.39971  0.39971  0.00000  0.20058
       8     C     3.15200  3.15200  0.00000 -0.30400
       9     H     0.41847  0.41847  0.00000  0.16307
      10     H     0.41926  0.41926  0.00000  0.16147
      11     C     3.24013  3.24013  0.00000 -0.48026
      12     H     0.41966  0.41966  0.00000  0.16067
      13     H     0.42007  0.42007  0.00000  0.15985
      14     H     0.42016  0.42016  0.00000  0.15967
      15     H     0.41638  0.41638  0.00000  0.16723
      16     H     0.42033  0.42033  0.00000  0.15934

   Total alpha = 24.00000, Total beta = 24.00000, Total charge =  0.00000
