                              Psi4 1.0.54 Driver

  ==> Input File <==

--------------------------------------------------------------------------
set {
	reference rhf
	basis cc-pvtz
}

set_num_threads( 4 )
memory 2 gb

molecule MOL {
0 1

H	 1.177717	 -1.067248	 0.715946
O	 1.324033	 -0.609620	 -0.092522
C	 0.705261	 0.638799	 -0.045630
C	 -0.793473	 0.591216	 0.050087
H	 0.988268	 1.155719	 -0.955027
H	 1.091517	 1.232273	 0.780986
C	 -1.534243	 -0.493009	 -0.013340
H	 -1.265708	 1.551104	 0.179924
H	 -1.101195	 -1.466332	 -0.144046
H	 -2.604242	 -0.437780	 0.050785

	symmetry c1
}
set optking {
	frozen_dihedral = ("
		3 4 7 9
	")
}

ee,wfn = optimize('scf', return_wfn=True)
oeprop( wfn, 'DIPOLE', 'QUADRUPOLE', 'MULLIKEN_CHARGES')
f=open( 'psi4out.xyz', 'w' )
f.write( "10  " )
f.write( str(ee) + "\n" )
f.write( MOL.save_string_xyz() )
f.close()
--------------------------------------------------------------------------

    Molecular point group: c1
  Charge       = 0
  Multiplicity = 1
  Basis Set: CC-PVTZ
  Basis Set:
  @DF-RHF Final Energy:  -191.99883379783284
    Total Energy =                       -191.9988337978329014
    Molecular point group: c1
  Basis Set: CC-PVTZ
  Basis Set:
  Basis Set: CC-PVTZ
  Basis Set:
  @DF-RHF Final Energy:  -191.99884538885868
    Total Energy =                       -191.9988453888586832
  Basis Set: CC-PVTZ
  Basis Set:
  Charge       = 0
  Multiplicity = 1
  Basis Set: CC-PVTZ
  Basis Set:

    Orbital Energies (a.u.)
    -----------------------

    Doubly Occupied:

       1A    -20.554514     2A    -11.278207     3A    -11.230373
       4A    -11.216652     5A     -1.374914     6A     -1.062281
       7A     -0.932299     8A     -0.771784     9A     -0.692444
      10A     -0.665445    11A     -0.620943    12A     -0.574283
      13A     -0.540690    14A     -0.496802    15A     -0.452490
      16A     -0.369100

  @DF-RHF Final Energy:  -191.99884784948432

   => Energetics <=

    Nuclear Repulsion Energy =            119.5400724348350678
    One-Electron Energy =                -497.4114002939254533
    Two-Electron Energy =                 185.8724800096060221
    DFT Exchange-Correlation Energy =       0.0000000000000000
    Empirical Dispersion Energy =           0.0000000000000000
    PCM Polarization Energy =               0.0000000000000000
    EFP Energy =                            0.0000000000000000
    Total Energy =                       -191.9988478494843775
    Molecular point group: c1
  Basis Set: CC-PVTZ
  Basis Set:

  -Total Gradient:
     Atom            X                  Y                   Z
    ------   -----------------  -----------------  -----------------
       1       -0.000004761842    -0.000008209228     0.000006104150
       2       -0.000029638025     0.000007400077    -0.000006301145
       3       -0.000019589216     0.000053671596    -0.000403147556
       4        0.000081866048    -0.000131149697     0.000929380287
       5        0.000001252162     0.000008608044    -0.000008842541
       6       -0.000010516146     0.000003511857     0.000000427925
       7       -0.000056932003     0.000123349850    -0.001034273868
       8        0.000003496982     0.000005558156    -0.000014559307
       9        0.000042960642    -0.000066419056     0.000531391956
      10       -0.000008138599     0.000003678399    -0.000000179901

  **** Optimization is complete! (in 3 steps) ****
    Final optimized geometry and variables:
    Molecular point group: c1

    Geometry (in Angstrom), charge = 0, multiplicity = 1:

    H            1.181448224956    -1.065962164171     0.736849977925
    O            1.324291108393    -0.611410650337    -0.073948852616
    C            0.705675784419     0.637237363672    -0.028994389001
    C           -0.793018339982     0.590066295631     0.068244043025
    H            0.986898138488     1.151881828948    -0.940210314725
    H            1.093654974445     1.232731729918     0.795368933460
    C           -1.534307912810    -0.493310061710    -0.001331339975
    H           -1.265235627738     1.550331496095     0.195215002715
    H           -1.101862929130    -1.465923650866    -0.138862228037
    H           -2.603649373839    -0.439064550771     0.073773713672

  Mulliken Charges: (a.u.)
   Center  Symbol    Alpha    Beta     Spin     Total
       1     H     0.39109  0.39109  0.00000  0.21782
       2     O     4.19928  4.19928  0.00000 -0.39856
       3     C     2.95043  2.95043  0.00000  0.09915
       4     C     3.08521  3.08521  0.00000 -0.17041
       5     H     0.45339  0.45339  0.00000  0.09322
       6     H     0.46837  0.46837  0.00000  0.06326
       7     C     3.17637  3.17637  0.00000 -0.35274
       8     H     0.42331  0.42331  0.00000  0.15337
       9     H     0.42449  0.42449  0.00000  0.15103
      10     H     0.42807  0.42807  0.00000  0.14386

   Total alpha = 16.00000, Total beta = 16.00000, Total charge = -0.00000

*** Psi4 exiting successfully. Buy a developer a beer!
