  ==> Input File <==

--------------------------------------------------------------------------
set {
	reference rhf
	basis 6-31G*
}

set_num_threads( 1 )
memory 2 gb

molecule MOL {
0 1

O	 3.225979	 0.970355	 -0.599647
C	 2.701189	 0.057885	 -0.047330
C	 1.245376	 -0.013843	 0.345420
O	 3.347903	 -1.046386	 0.304773
C	 0.455112	 1.231400	 -0.050772
H	 0.838542	 -0.913825	 -0.103701
H	 1.208210	 -0.175333	 1.419774
C	 -0.998893	 1.219485	 0.433193
H	 0.482531	 1.345121	 -1.130325
H	 0.957290	 2.103070	 0.354729
C	 -1.883438	 0.145884	 -0.207175
H	 -1.431207	 2.195402	 0.224832
H	 -1.019646	 1.105716	 1.516076
C	 -3.347647	 0.245583	 0.225435
H	 -1.822183	 0.231698	 -1.291012
H	 -1.510341	 -0.844814	 0.042401
C	 -4.285673	 0.674069	 -0.904450
H	 -3.432098	 0.952553	 1.049022
H	 -3.673913	 -0.716857	 0.616536
C	 -5.745411	 0.774922	 -0.463208
H	 -3.960482	 1.635174	 -1.297095
H	 -4.205902	 -0.033797	 -1.726851
H	 -6.385114	 1.080382	 -1.285449
H	 -5.864159	 1.501500	 0.335653
H	 -6.111178	 -0.180212	 -0.096864
C	 4.728119	 -1.109107	 -0.004993
H	 4.882018	 -1.033965	 -1.071845
H	 5.068212	 -2.067527	 0.355250
H	 5.265056	 -0.311663	 0.488280

	symmetry c1
}
set optking {
	frozen_dihedral = ("
		21 17 14 11,
		15 11 8 5,
		6 3 5 9,
		11 8 5 9,
		2 4 26 27,
		1 2 4 26,
		6 3 2 1
	")
}

ee = energy('scf')
oeprop('DIPOLE', 'QUADRUPOLE', 'MULLIKEN_CHARGES')
f=open( 'psi4out.xyz', 'w' )
f.write( "29  " )
f.write( str(ee) + "\n" )
f.write( MOL.save_string_xyz() )
f.close()
--------------------------------------------------------------------------

    Molecular point group: c1

    Geometry (in Angstrom), charge = 0, multiplicity = 1:

       Center              X                  Y                   Z               Mass
    ------------   -----------------  -----------------  -----------------  -----------------
           O          3.234218800493     0.695785870466    -0.508480895291    15.994914619560
           C          2.709428800493    -0.216684129534     0.043836104709    12.000000000000
           C          1.253615800493    -0.288412129534     0.436586104709    12.000000000000
           O          3.356142800493    -1.320955129534     0.395939104709    15.994914619560
           C          0.463351800493     0.956830870466     0.040394104709    12.000000000000
           H          0.846781800493    -1.188394129534    -0.012534895291     1.007825032070
           H          1.216449800493    -0.449902129534     1.510940104709     1.007825032070
           C         -0.990653199507     0.944915870466     0.524359104709    12.000000000000
           H          0.490770800493     1.070551870466    -1.039158895291     1.007825032070
           H          0.965529800493     1.828500870466     0.445895104709     1.007825032070
           C         -1.875198199507    -0.128685129534    -0.116008895291    12.000000000000
           H         -1.422967199507     1.920832870466     0.315998104709     1.007825032070
           H         -1.011406199507     0.831146870466     1.607242104709     1.007825032070
           C         -3.339407199507    -0.028986129534     0.316601104709    12.000000000000
           H         -1.813943199507    -0.042871129534    -1.199845895291     1.007825032070
           H         -1.502101199507    -1.119383129534     0.133567104709     1.007825032070
           C         -4.277433199507     0.399499870466    -0.813283895291    12.000000000000
           H         -3.423858199507     0.677983870466     1.140188104709     1.007825032070
           H         -3.665673199507    -0.991426129534     0.707702104709     1.007825032070
           C         -5.737171199507     0.500352870466    -0.372041895291    12.000000000000
           H         -3.952242199507     1.360604870466    -1.205928895291     1.007825032070
           H         -4.197662199507    -0.308366129534    -1.635684895291     1.007825032070
           H         -6.376874199507     0.805812870466    -1.194282895291     1.007825032070
           H         -5.855919199507     1.226930870466     0.426819104709     1.007825032070
           H         -6.102938199507    -0.454781129534    -0.005697895291     1.007825032070
           C          4.736358800493    -1.383676129534     0.086173104709    12.000000000000
           H          4.890257800493    -1.308534129534    -0.980678895291     1.007825032070
           H          5.076451800493    -2.342096129534     0.446416104709     1.007825032070
           H          5.273295800493    -0.586232129534     0.579446104709     1.007825032070

  Charge       = 0
  Multiplicity = 1
  Basis Set: 6-31G*
  Basis Set:

    Orbital Energies (a.u.)
    -----------------------

    Doubly Occupied:

       1A    -20.603256     2A    -20.545131     3A    -11.371868
       4A    -11.280622     5A    -11.234605     6A    -11.218688
       7A    -11.217924     8A    -11.215891     9A    -11.214393
      10A    -11.212834    11A    -11.208371    12A     -1.468973
      13A     -1.362419    14A     -1.098268    15A     -1.066453
      16A     -1.018672    17A     -0.977014    18A     -0.928389
      19A     -0.861376    20A     -0.804136    21A     -0.787228
      22A     -0.763939    23A     -0.700930    24A     -0.682175
      25A     -0.671786    26A     -0.641100    27A     -0.626531
      28A     -0.612745    29A     -0.597030    30A     -0.579473
      31A     -0.562296    32A     -0.556696    33A     -0.533894
      34A     -0.528614    35A     -0.521324    36A     -0.504327
      37A     -0.496158    38A     -0.478192    39A     -0.473446
      40A     -0.463204    41A     -0.455875    42A     -0.446908
      43A     -0.442236    44A     -0.436025

  @DF-RHF Final Energy:  -501.03866944240394

   => Energetics <=

    Nuclear Repulsion Energy =            611.2723589552126668
    One-Electron Energy =               -1893.6789052940844158
    Two-Electron Energy =                 781.3678768964682604
    DFT Exchange-Correlation Energy =       0.0000000000000000
    Empirical Dispersion Energy =           0.0000000000000000
    PCM Polarization Energy =               0.0000000000000000
    EFP Energy =                            0.0000000000000000
    Total Energy =                       -501.0386694424034886

  Mulliken Charges: (a.u.)
   Center  Symbol    Alpha    Beta     Spin     Total
       1     O     4.28596  4.28596  0.00000 -0.57193
       2     C     2.60482  2.60482  0.00000  0.79036
       3     C     3.20957  3.20957  0.00000 -0.41914
       4     O     4.30745  4.30745  0.00000 -0.61490
       5     C     3.15430  3.15430  0.00000 -0.30860
       6     H     0.39887  0.39887  0.00000  0.20226
       7     H     0.40130  0.40130  0.00000  0.19741
       8     C     3.15913  3.15913  0.00000 -0.31826
       9     H     0.41305  0.41305  0.00000  0.17389
      10     H     0.40896  0.40896  0.00000  0.18209
      11     C     3.15766  3.15766  0.00000 -0.31531
      12     H     0.41816  0.41816  0.00000  0.16368
      13     H     0.42317  0.42317  0.00000  0.15365
      14     C     3.15361  3.15361  0.00000 -0.30721
      15     H     0.41997  0.41997  0.00000  0.16007
      16     H     0.42110  0.42110  0.00000  0.15781
      17     C     3.15353  3.15353  0.00000 -0.30707
      18     H     0.42095  0.42095  0.00000  0.15810
      19     H     0.42154  0.42154  0.00000  0.15692
      20     C     3.23992  3.23992  0.00000 -0.47984
      21     H     0.42268  0.42268  0.00000  0.15465
      22     H     0.42235  0.42235  0.00000  0.15529
      23     H     0.41930  0.41930  0.00000  0.16140
      24     H     0.42167  0.42167  0.00000  0.15666
      25     H     0.42182  0.42182  0.00000  0.15637
      26     C     3.09240  3.09240  0.00000 -0.18481
      27     H     0.40910  0.40910  0.00000  0.18180
      28     H     0.40853  0.40853  0.00000  0.18294
      29     H     0.40914  0.40914  0.00000  0.18172

   Total alpha = 44.00000, Total beta = 44.00000, Total charge =  0.00000
