  ==> Input File <==

--------------------------------------------------------------------------
set {
	reference rhf
	basis 6-31G*
}

set_num_threads( 4 )
memory 2 gb

molecule MOL {
0 1

H	 -2.646374	 -0.642757	 1.268656
C	 -2.083525	 -0.384536	 0.393091
O	 -0.807605	 -0.127164	 0.768327
F	 -2.118945	 -1.383102	 -0.486752
F	 -2.621877	 0.670592	 -0.209486
C	 0.084052	 0.273579	 -0.209957
C	 -0.566041	 1.430884	 -0.957075
Cl	 0.446236	 -1.059616	 -1.318392
H	 1.016471	 0.618040	 0.202009
F	 0.235252	 1.876197	 -1.901408
F	 -0.784256	 2.415044	 -0.107811
F	 -1.709315	 1.089561	 -1.499658

	symmetry c1
}
set optking {
	frozen_dihedral = ("
		9 6 3 2
	")
}

ee = optimize('scf')
oeprop('DIPOLE', 'QUADRUPOLE', 'MULLIKEN_CHARGES')
f=open( 'psi4out.xyz', 'w' )
f.write( "12  " )
f.write( str(ee) + "\n" )
f.write( MOL.save_string_xyz() )
f.close()
--------------------------------------------------------------------------

    Molecular point group: c1
  Charge       = 0
  Multiplicity = 1
  Basis Set: 6-31G*
  Basis Set:
  @DF-RHF Final Energy: -1146.17188628672284
    Total Energy =                      -1146.1718862867228381
    Molecular point group: c1
  Basis Set: 6-31G*
  Basis Set:
  Basis Set: 6-31G*
  Basis Set:
  @DF-RHF Final Energy: -1146.24779484135229
    Total Energy =                      -1146.2477948413520608
  Basis Set: 6-31G*
  Basis Set:
  Basis Set: 6-31G*
  Basis Set:
  @DF-RHF Final Energy: -1146.27418891837488
    Total Energy =                      -1146.2741889183753301
  Basis Set: 6-31G*
  Basis Set:
  Basis Set: 6-31G*
  Basis Set:
  @DF-RHF Final Energy: -1146.29055430304425
    Total Energy =                      -1146.2905543030440185
  Basis Set: 6-31G*
  Basis Set:
  @DF-RHF Final Energy: -1146.29914357294933
    Total Energy =                      -1146.2991435729493332
  @DF-RHF Final Energy: -1146.30354183516965
    Total Energy =                      -1146.3035418351691987
  @DF-RHF Final Energy: -1146.30531118799536
    Total Energy =                      -1146.3053111879953576
  @DF-RHF Final Energy: -1146.30587316839228
    Total Energy =                      -1146.3058731683922815
  @DF-RHF Final Energy: -1146.30604879223620
    Total Energy =                      -1146.3060487922361972
  @DF-RHF Final Energy: -1146.30607670328436
    Total Energy =                      -1146.3060767032834519
  @DF-RHF Final Energy: -1146.30608728749735
    Total Energy =                      -1146.3060872874975757
  @DF-RHF Final Energy: -1146.30609735846747
    Total Energy =                      -1146.3060973584676958
  @DF-RHF Final Energy: -1146.30610596111865
    Total Energy =                      -1146.3061059611184191
  Basis Set: 6-31G*
  Basis Set:
  @DF-RHF Final Energy: -1146.30611152054712
    Total Energy =                      -1146.3061115205468923
  Basis Set: 6-31G*
  Basis Set:
  Basis Set: 6-31G*
  Basis Set:
  @DF-RHF Final Energy: -1146.30611599328381
    Total Energy =                      -1146.3061159932840383
  Basis Set: 6-31G*
  Basis Set:
  Basis Set: 6-31G*
  Basis Set:
  @DF-RHF Final Energy: -1146.30611738584912
    Total Energy =                      -1146.3061173858493476
  Basis Set: 6-31G*
  Basis Set:
  Charge       = 0
  Multiplicity = 1
  Basis Set: 6-31G*
  Basis Set:

    Orbital Energies (a.u.)
    -----------------------

    Doubly Occupied:

       1A   -104.842167     2A    -26.360104     3A    -26.359503
       4A    -26.359133     5A    -26.341723     6A    -26.337366
       7A    -20.646997     8A    -11.529387     9A    -11.485753
      10A    -11.402808    11A    -10.576987    12A     -8.046349
      13A     -8.042823    14A     -8.042676    15A     -1.762346
      16A     -1.711672    17A     -1.658409    18A     -1.657210
      19A     -1.633202    20A     -1.478033    21A     -1.177303
      22A     -1.049196    23A     -0.994910    24A     -0.916347
      25A     -0.859683    26A     -0.851470    27A     -0.845717
      28A     -0.828727    29A     -0.807400    30A     -0.750420
      31A     -0.731960    32A     -0.727717    33A     -0.702591
      34A     -0.696312    35A     -0.679762    36A     -0.673491
      37A     -0.663585    38A     -0.659002    39A     -0.651395
      40A     -0.635574    41A     -0.590377    42A     -0.561887
      43A     -0.520288    44A     -0.476393    45A     -0.466005

  @DF-RHF Final Energy: -1146.30611813780797

   => Energetics <=

    Nuclear Repulsion Energy =            760.2620734345929350
    One-Electron Energy =               -3103.5520683082236246
    Two-Electron Energy =                1196.9838767358226050
    DFT Exchange-Correlation Energy =       0.0000000000000000
    Empirical Dispersion Energy =           0.0000000000000000
    PCM Polarization Energy =               0.0000000000000000
    EFP Energy =                            0.0000000000000000
    Total Energy =                      -1146.3061181378081983
    Molecular point group: c1
  Basis Set: 6-31G*
  Basis Set:

  -Total Gradient:
     Atom            X                  Y                   Z
    ------   -----------------  -----------------  -----------------
       1        0.000000291017    -0.000004286243    -0.000002093716
       2        0.000163546660    -0.000355684930    -0.000031588559
       3       -0.000169821741     0.000492704364     0.000075768796
       4       -0.000054028660    -0.000043841991     0.000013959611
       5        0.000025471853     0.000080242257     0.000016287524
       6       -0.000124128380     0.000249289713     0.000008988937
       7       -0.000021953413     0.000002483023     0.000007061583
       8        0.000050986086    -0.000002022500    -0.000024801890
       9        0.000156574401    -0.000381268686    -0.000015168167
      10       -0.000019798568    -0.000008402750     0.000006806152
      11       -0.000057469817    -0.000072821982     0.000016727334
      12        0.000050330604     0.000043609715    -0.000071947608

  **** Optimization is complete! (in 17 steps) ****
    Final optimized geometry and variables:
    Molecular point group: c1

    Geometry (in Angstrom), charge = 0, multiplicity = 1:

    H           -1.617205379721    -1.345604509114     2.091454756902
    C           -1.291671460116    -0.835116805620     1.205571282642
    O            0.015965801171    -0.502467497228     1.394719450106
    F           -1.462531139629    -1.607325302572     0.144422139492
    F           -2.031762545581     0.252544112569     1.023954237272
    C            0.888648088141    -0.093599282669     0.405496655763
    C            0.400543310267     1.082414347664    -0.442791029019
    CL           1.438408339293    -1.423412748625    -0.638655641187
    H            1.759720172330     0.250500729436     0.932909615018
    F            1.406137372582     1.533752328560    -1.164712394774
    F            0.003332686568     2.053632897519     0.351883432370
    F           -0.582175783174     0.771402597855    -1.252607884300

  Mulliken Charges: (a.u.)
   Center  Symbol    Alpha    Beta     Spin     Total
       1     H     0.40525  0.40525  0.00000  0.18950
       2     C     2.56124  2.56124  0.00000  0.87752
       3     O     4.31271  4.31271  0.00000 -0.62542
       4     F     4.67862  4.67862  0.00000 -0.35723
       5     F     4.68283  4.68283  0.00000 -0.36567
       6     C     3.02278  3.02278  0.00000 -0.04555
       7     C     2.45095  2.45095  0.00000  1.09810
       8    CL     8.50555  8.50555  0.00000 -0.01110
       9     H     0.36492  0.36492  0.00000  0.27016
      10     F     4.67419  4.67419  0.00000 -0.34838
      11     F     4.67412  4.67412  0.00000 -0.34824
      12     F     4.66684  4.66684  0.00000 -0.33368

   Total alpha = 45.00000, Total beta = 45.00000, Total charge =  0.00000
