  ==> Input File <==

--------------------------------------------------------------------------
set {
	reference rhf
	basis 6-31G*
}

set_num_threads( 1 )
memory 2 gb

molecule MOL {
0 1

H	 -3.875960	 -2.618785	 0.867739
C	 -3.255206	 -1.751550	 0.752722
C	 -2.014762	 -1.884462	 0.343291
H	 -3.672085	 -0.788184	 0.978665
O	 -1.180634	 -0.819263	 0.215062
H	 -1.580589	 -2.839400	 0.105002
C	 0.051604	 -1.018856	 -0.387932
C	 1.043764	 0.054862	 -0.001873
H	 -0.017620	 -1.041351	 -1.469781
H	 0.437898	 -1.966374	 -0.042284
F	 2.212596	 -0.199467	 -0.571921
F	 0.652529	 1.252447	 -0.405055
F	 1.230877	 0.110694	 1.300533

	symmetry c1
}
set optking {
	frozen_dihedral = ("
		11 8 7 9,
		6 3 2 1,
		6 3 5 7
	")
}

ee = energy('scf')
oeprop('DIPOLE', 'QUADRUPOLE', 'MULLIKEN_CHARGES')
f=open( 'psi4out.xyz', 'w' )
f.write( "13  " )
f.write( str(ee) + "\n" )
f.write( MOL.save_string_xyz() )
f.close()
--------------------------------------------------------------------------

    Molecular point group: c1

    Geometry (in Angstrom), charge = 0, multiplicity = 1:

       Center              X                  Y                   Z               Mass
    ------------   -----------------  -----------------  -----------------  -----------------
           H         -3.876449238892    -2.178231131065     0.720914039780     1.007825032070
           C         -3.255695238892    -1.310996131065     0.605897039780    12.000000000000
           C         -2.015251238892    -1.443908131065     0.196466039780    12.000000000000
           H         -3.672574238892    -0.347630131065     0.831840039780     1.007825032070
           O         -1.181123238892    -0.378709131065     0.068237039780    15.994914619560
           H         -1.581078238892    -2.398846131065    -0.041822960220     1.007825032070
           C          0.051114761108    -0.578302131065    -0.534756960220    12.000000000000
           C          1.043274761108     0.495415868935    -0.148697960220    12.000000000000
           H         -0.018109238892    -0.600797131065    -1.616605960220     1.007825032070
           H          0.437408761108    -1.525820131065    -0.189108960220     1.007825032070
           F          2.212106761108     0.241086868935    -0.718745960220    18.998403224000
           F          0.652039761108     1.693000868935    -0.551879960220    18.998403224000
           F          1.230387761108     0.551247868935     1.153708039780    18.998403224000

  Charge       = 0
  Multiplicity = 1
  Basis Set: 6-31G*
  Basis Set:

    Orbital Energies (a.u.)
    -----------------------

    Doubly Occupied:

       1A    -26.345661     2A    -26.340419     3A    -26.337931
       4A    -20.605941     5A    -11.506672     6A    -11.319007
       7A    -11.303485     8A    -11.219662     9A     -1.740274
      10A     -1.639508    11A     -1.635044    12A     -1.437026
      13A     -1.087010    14A     -1.016667    15A     -0.923377
      16A     -0.836938    17A     -0.829883    18A     -0.807885
      19A     -0.800045    20A     -0.721324    21A     -0.713092
      22A     -0.698081    23A     -0.679906    24A     -0.658372
      25A     -0.652070    26A     -0.642108    27A     -0.641016
      28A     -0.578497    29A     -0.559100    30A     -0.526646
      31A     -0.513225    32A     -0.353927

  @DF-RHF Final Energy:  -527.53305444871739

   => Energetics <=

    Nuclear Repulsion Energy =            405.0684583357827933
    One-Electron Energy =               -1533.8634310642346463
    Two-Electron Energy =                 601.2619182797345729
    DFT Exchange-Correlation Energy =       0.0000000000000000
    Empirical Dispersion Energy =           0.0000000000000000
    PCM Polarization Energy =               0.0000000000000000
    EFP Energy =                            0.0000000000000000
    Total Energy =                       -527.5330544487171665

  Mulliken Charges: (a.u.)
   Center  Symbol    Alpha    Beta     Spin     Total
       1     H     0.40685  0.40685  0.00000  0.18631
       2     C     3.23429  3.23429  0.00000 -0.46858
       3     C     2.89523  2.89523  0.00000  0.20954
       4     H     0.40012  0.40012  0.00000  0.19976
       5     O     4.30585  4.30585  0.00000 -0.61171
       6     H     0.40868  0.40868  0.00000  0.18264
       7     C     3.04794  3.04794  0.00000 -0.09588
       8     C     2.45176  2.45176  0.00000  1.09648
       9     H     0.40426  0.40426  0.00000  0.19148
      10     H     0.40915  0.40915  0.00000  0.18171
      11     F     4.68333  4.68333  0.00000 -0.36666
      12     F     4.67792  4.67792  0.00000 -0.35583
      13     F     4.67463  4.67463  0.00000 -0.34926

   Total alpha = 32.00000, Total beta = 32.00000, Total charge =  0.00000
