  ==> Input File <==

--------------------------------------------------------------------------
set {
	reference rhf
	basis 6-31G*
}

set_num_threads( 1 )
memory 2 gb

molecule MOL {
0 1

O	 1.799108	 1.379915	 -0.286952
C	 1.566846	 0.358471	 -0.848935
C	 0.246615	 -0.372681	 -0.832366
O	 2.463226	 -0.284682	 -1.586494
C	 -0.823008	 0.326187	 0.001381
H	 -0.072660	 -0.489723	 -1.864392
H	 0.436787	 -1.377936	 -0.466284
C	 -2.149452	 -0.435131	 -0.000098
H	 -0.973909	 1.331072	 -0.380227
H	 -0.464501	 0.440967	 1.019520
C	 -3.368779	 0.488503	 -0.000883
H	 -2.193746	 -1.087250	 -0.871175
H	 -2.195311	 -1.087803	 0.870418
C	 -4.693822	 -0.272754	 -0.001129
H	 -3.325798	 1.139422	 -0.871284
H	 -3.326423	 1.139959	 0.869145
H	 -4.781274	 -0.907928	 -0.878124
H	 -5.538651	 0.408946	 -0.001420
H	 -4.781694	 -0.907783	 0.875984
C	 3.749666	 0.298238	 -1.687652
H	 3.687652	 1.281028	 -2.132405
H	 4.324125	 -0.362120	 -2.318366
H	 4.208535	 0.378012	 -0.712674

	symmetry c1
}
set optking {
	frozen_dihedral = ("
		15 11 8 12,
		1 2 3 6,
		9 5 3 6,
		1 2 4 20
	")
}

ee = energy('scf')
oeprop('DIPOLE', 'QUADRUPOLE', 'MULLIKEN_CHARGES')
f=open( 'psi4out.xyz', 'w' )
f.write( "23  " )
f.write( str(ee) + "\n" )
f.write( MOL.save_string_xyz() )
f.close()
--------------------------------------------------------------------------

    Molecular point group: c1

    Geometry (in Angstrom), charge = 0, multiplicity = 1:

       Center              X                  Y                   Z               Mass
    ------------   -----------------  -----------------  -----------------  -----------------
           O          1.895970556864     1.209997003648     0.307338047862    15.994914619560
           C          1.663708556864     0.188553003648    -0.254644952138    12.000000000000
           C          0.343477556864    -0.542598996352    -0.238075952138    12.000000000000
           O          2.560088556864    -0.454599996352    -0.992203952138    15.994914619560
           C         -0.726145443136     0.156269003648     0.595671047862    12.000000000000
           H          0.024202556864    -0.659640996352    -1.270101952138     1.007825032070
           H          0.533649556864    -1.547853996352     0.128006047862     1.007825032070
           C         -2.052589443136    -0.605048996352     0.594192047862    12.000000000000
           H         -0.877046443136     1.161154003648     0.214063047862     1.007825032070
           H         -0.367638443136     0.271049003648     1.613810047862     1.007825032070
           C         -3.271916443136     0.318585003648     0.593407047862    12.000000000000
           H         -2.096883443136    -1.257167996352    -0.276884952138     1.007825032070
           H         -2.098448443136    -1.257720996352     1.464708047862     1.007825032070
           C         -4.596959443136    -0.442671996352     0.593161047862    12.000000000000
           H         -3.228935443136     0.969504003648    -0.276993952138     1.007825032070
           H         -3.229560443136     0.970041003648     1.463435047862     1.007825032070
           H         -4.684411443136    -1.077845996352    -0.283833952138     1.007825032070
           H         -5.441788443136     0.239028003648     0.592870047862     1.007825032070
           H         -4.684831443136    -1.077700996352     1.470274047862     1.007825032070
           C          3.846528556864     0.128320003648    -1.093361952138    12.000000000000
           H          3.784514556864     1.111110003648    -1.538114952138     1.007825032070
           H          4.420987556864    -0.532037996352    -1.724075952138     1.007825032070
           H          4.305397556864     0.208094003648    -0.118383952138     1.007825032070

  Charge       = 0
  Multiplicity = 1
  Basis Set: 6-31G*
  Basis Set:

    Orbital Energies (a.u.)
    -----------------------

    Doubly Occupied:

       1A    -20.603445     2A    -20.545342     3A    -11.371876
       4A    -11.280713     5A    -11.235750     6A    -11.218165
       7A    -11.217177     8A    -11.216543     9A    -11.209455
      10A     -1.469178    11A     -1.362623    12A     -1.093374
      13A     -1.043406    14A     -0.986890    15A     -0.931972
      16A     -0.843885    17A     -0.795220    18A     -0.767418
      19A     -0.698434    20A     -0.682980    21A     -0.671882
      22A     -0.646425    23A     -0.612822    24A     -0.599070
      25A     -0.572478    26A     -0.559338    27A     -0.556475
      28A     -0.526099    29A     -0.521092    30A     -0.504212
      31A     -0.487980    32A     -0.470514    33A     -0.464288
      34A     -0.459478    35A     -0.454049    36A     -0.434923

  @DF-RHF Final Energy:  -422.97254675205738

   => Energetics <=

    Nuclear Repulsion Energy =            452.8983752374970209
    One-Electron Energy =               -1473.5122392328003116
    Two-Electron Energy =                 597.6413172432457941
    DFT Exchange-Correlation Energy =       0.0000000000000000
    Empirical Dispersion Energy =           0.0000000000000000
    PCM Polarization Energy =               0.0000000000000000
    EFP Energy =                            0.0000000000000000
    Total Energy =                       -422.9725467520574966

  Mulliken Charges: (a.u.)
   Center  Symbol    Alpha    Beta     Spin     Total
       1     O     4.28600  4.28600  0.00000 -0.57200
       2     C     2.60538  2.60538  0.00000  0.78925
       3     C     3.21015  3.21015  0.00000 -0.42030
       4     O     4.30739  4.30739  0.00000 -0.61479
       5     C     3.15394  3.15394  0.00000 -0.30787
       6     H     0.40050  0.40050  0.00000  0.19899
       7     H     0.40033  0.40033  0.00000  0.19933
       8     C     3.15492  3.15492  0.00000 -0.30983
       9     H     0.41018  0.41018  0.00000  0.17964
      10     H     0.40995  0.40995  0.00000  0.18009
      11     C     3.15330  3.15330  0.00000 -0.30660
      12     H     0.42366  0.42366  0.00000  0.15269
      13     H     0.42048  0.42048  0.00000  0.15905
      14     C     3.24005  3.24005  0.00000 -0.48011
      15     H     0.42207  0.42207  0.00000  0.15586
      16     H     0.42045  0.42045  0.00000  0.15910
      17     H     0.42196  0.42196  0.00000  0.15607
      18     H     0.41863  0.41863  0.00000  0.16274
      19     H     0.42154  0.42154  0.00000  0.15691
      20     C     3.09242  3.09242  0.00000 -0.18485
      21     H     0.40909  0.40909  0.00000  0.18182
      22     H     0.40848  0.40848  0.00000  0.18305
      23     H     0.40912  0.40912  0.00000  0.18176

   Total alpha = 36.00000, Total beta = 36.00000, Total charge = -0.00000
