  ==> Input File <==

--------------------------------------------------------------------------
set {
	reference rhf
	basis 6-31G*
}

set_num_threads( 4 )
memory 2 gb

molecule MOL {
0 1

H	 -3.008554	 1.835872	 -0.518434
C	 -2.272916	 1.233236	 -0.022121
C	 -2.076860	 -0.007332	 -0.404944
H	 -1.711501	 1.668044	 0.783278
O	 -1.180634	 -0.819263	 0.215062
H	 -2.623452	 -0.459193	 -1.213804
C	 0.051604	 -1.018856	 -0.387932
C	 1.043764	 0.054862	 -0.001873
H	 -0.017620	 -1.041351	 -1.469781
H	 0.437898	 -1.966374	 -0.042284
F	 2.212596	 -0.199467	 -0.571921
F	 0.652529	 1.252447	 -0.405055
F	 1.230877	 0.110694	 1.300533

	symmetry c1
}
set optking {
	frozen_dihedral = ("
		6 3 5 7
	")
}

ee = optimize('scf')
oeprop('DIPOLE', 'QUADRUPOLE', 'MULLIKEN_CHARGES')
f=open( 'psi4out.xyz', 'w' )
f.write( "13  " )
f.write( str(ee) + "\n" )
f.write( MOL.save_string_xyz() )
f.close()
--------------------------------------------------------------------------

    Molecular point group: c1
  Charge       = 0
  Multiplicity = 1
  Basis Set: 6-31G*
  Basis Set:
  @DF-RHF Final Energy:  -527.53064608531770
    Total Energy =                       -527.5306460853172439
    Molecular point group: c1
  Basis Set: 6-31G*
  Basis Set:
  Basis Set: 6-31G*
  Basis Set:
  @DF-RHF Final Energy:  -527.53149111938342
    Total Energy =                       -527.5314911193834178
  Basis Set: 6-31G*
  Basis Set:
  Basis Set: 6-31G*
  Basis Set:
  @DF-RHF Final Energy:  -527.53181688287509
    Total Energy =                       -527.5318168828747503
  Basis Set: 6-31G*
  Basis Set:
  Basis Set: 6-31G*
  Basis Set:
  @DF-RHF Final Energy:  -527.53200034130236
    Total Energy =                       -527.5320003413028189
  Basis Set: 6-31G*
  Basis Set:
  Basis Set: 6-31G*
  Basis Set:
  @DF-RHF Final Energy:  -527.53208913653225
    Total Energy =                       -527.5320891365317948
  Basis Set: 6-31G*
  Basis Set:
  Basis Set: 6-31G*
  Basis Set:
  @DF-RHF Final Energy:  -527.53211132649096
    Total Energy =                       -527.5321113264906217
  Basis Set: 6-31G*
  Basis Set:
  Basis Set: 6-31G*
  Basis Set:
  @DF-RHF Final Energy:  -527.53211728828774
    Total Energy =                       -527.5321172882877363
  Basis Set: 6-31G*
  Basis Set:
  Charge       = 0
  Multiplicity = 1
  Basis Set: 6-31G*
  Basis Set:

    Orbital Energies (a.u.)
    -----------------------

    Doubly Occupied:

       1A    -26.339945     2A    -26.338428     3A    -26.336212
       4A    -20.597618     5A    -11.498673     6A    -11.313709
       7A    -11.295027     8A    -11.227878     9A     -1.737105
      10A     -1.634975    11A     -1.633490    12A     -1.425715
      13A     -1.078574    14A     -1.018414    15A     -0.922312
      16A     -0.832803    17A     -0.826636    18A     -0.809057
      19A     -0.788239    20A     -0.714299    21A     -0.709089
      22A     -0.689204    23A     -0.668502    24A     -0.662655
      25A     -0.650417    26A     -0.643978    27A     -0.638488
      28A     -0.587295    29A     -0.564414    30A     -0.527257
      31A     -0.465593    32A     -0.375135

  @DF-RHF Final Energy:  -527.53211815541806

   => Energetics <=

    Nuclear Repulsion Energy =            416.4024020192211992
    One-Electron Energy =               -1556.7667710264554444
    Two-Electron Energy =                 612.8322508518161840
    DFT Exchange-Correlation Energy =       0.0000000000000000
    Empirical Dispersion Energy =           0.0000000000000000
    PCM Polarization Energy =               0.0000000000000000
    EFP Energy =                            0.0000000000000000
    Total Energy =                       -527.5321181554180612
    Molecular point group: c1
  Basis Set: 6-31G*
  Basis Set:

  -Total Gradient:
     Atom            X                  Y                   Z
    ------   -----------------  -----------------  -----------------
       1        0.000012330874     0.000001956224    -0.000001868371
       2       -0.000054403827     0.000010128131     0.000007385341
       3        0.002195116478     0.001340238307    -0.001836757471
       4        0.000014567473     0.000002007884     0.000001929494
       5       -0.001387545509    -0.002363409852    -0.000422783501
       6       -0.001425984009    -0.000487957911     0.001611349417
       7        0.000608924457     0.001502909698     0.000638810711
       8        0.000020484475    -0.000119339114     0.000090724821
       9        0.000016613705    -0.000002326071    -0.000002239662
      10        0.000013769052    -0.000014044697    -0.000003841702
      11       -0.000037021888     0.000022239258     0.000030777284
      12        0.000013538420     0.000094403195    -0.000028209967
      13        0.000009610299     0.000013194949    -0.000085276393

  **** Optimization is complete! (in 8 steps) ****
    Final optimized geometry and variables:
    Molecular point group: c1

    Geometry (in Angstrom), charge = 0, multiplicity = 1:

    H           -3.362324066036     1.663080280687    -0.613346687420
    C           -2.543629428068     1.177878857327    -0.116293877304
    C           -2.268530336619    -0.078523296781    -0.375914285787
    H           -1.970897023114     1.744426054183     0.593253679873
    O           -1.291322429573    -0.782000372868     0.275543281678
    H           -2.847451604617    -0.670973248369    -1.064427157157
    C           -0.106631963233    -1.021825301106    -0.415711862272
    C            0.980782534669    -0.070420459880     0.027160782892
    H           -0.225569966346    -0.923710828905    -1.487826662133
    H            0.227662934353    -2.024342167331    -0.187243318698
    F            2.104686435307    -0.360625730337    -0.614025589258
    F            0.685015879389     1.190153933855    -0.235641317841
    F            1.218701907641    -0.164425641339     1.320390870934

  Mulliken Charges: (a.u.)
   Center  Symbol    Alpha    Beta     Spin     Total
       1     H     0.40594  0.40594  0.00000  0.18812
       2     C     3.20848  3.20848  0.00000 -0.41697
       3     C     2.92040  2.92040  0.00000  0.15919
       4     H     0.39756  0.39756  0.00000  0.20487
       5     O     4.30869  4.30869  0.00000 -0.61738
       6     H     0.40810  0.40810  0.00000  0.18380
       7     C     3.05363  3.05363  0.00000 -0.10727
       8     C     2.45548  2.45548  0.00000  1.08904
       9     H     0.40594  0.40594  0.00000  0.18812
      10     H     0.39644  0.39644  0.00000  0.20712
      11     F     4.68394  4.68394  0.00000 -0.36788
      12     F     4.67872  4.67872  0.00000 -0.35745
      13     F     4.67666  4.67666  0.00000 -0.35332

   Total alpha = 32.00000, Total beta = 32.00000, Total charge =  0.00000
