  ==> Input File <==

--------------------------------------------------------------------------
set {
	reference rhf
	basis 6-31G*
}

set_num_threads( 4 )
memory 2 gb

molecule MOL {
0 1

H	 3.276176	 0.174363	 -0.109463
N	 2.434251	 -0.367735	 -0.081097
C	 1.267428	 0.496480	 0.024474
H	 2.501951	 -0.965776	 0.720575
C	 -0.016086	 -0.325158	 -0.029487
H	 1.288818	 1.183521	 -0.816092
H	 1.267576	 1.109062	 0.929528
C	 -1.282277	 0.529072	 0.046735
H	 -0.012495	 -0.908639	 -0.945788
H	 -0.015903	 -1.041248	 0.791956
C	 -2.219119	 0.310562	 -1.140818
H	 -1.005345	 1.580148	 0.097096
H	 -1.814722	 0.309440	 0.969893
H	 -1.727007	 0.555467	 -2.077604
H	 -3.106920	 0.930223	 -1.061127
H	 -2.542496	 -0.724920	 -1.199350

	symmetry c1
}
set optking {
	frozen_dihedral = ("
		12 8 5 9
	")
}

ee = optimize('scf')
oeprop('DIPOLE', 'QUADRUPOLE', 'MULLIKEN_CHARGES')
f=open( 'psi4out.xyz', 'w' )
f.write( "16  " )
f.write( str(ee) + "\n" )
f.write( MOL.save_string_xyz() )
f.close()
--------------------------------------------------------------------------

    Molecular point group: c1
  Charge       = 0
  Multiplicity = 1
  Basis Set: 6-31G*
  Basis Set:
  @DF-RHF Final Energy:  -212.31155777565573
    Total Energy =                       -212.3115577756557286
    Molecular point group: c1
  Basis Set: 6-31G*
  Basis Set:
  Basis Set: 6-31G*
  Basis Set:
  @DF-RHF Final Energy:  -212.31177333487437
    Total Energy =                       -212.3117733348740899
  Basis Set: 6-31G*
  Basis Set:
  Basis Set: 6-31G*
  Basis Set:
  @DF-RHF Final Energy:  -212.31183961291180
    Total Energy =                       -212.3118396129118537
  Basis Set: 6-31G*
  Basis Set:
  Charge       = 0
  Multiplicity = 1
  Basis Set: 6-31G*
  Basis Set:

    Orbital Energies (a.u.)
    -----------------------

    Doubly Occupied:

       1A    -15.532638     2A    -11.240431     3A    -11.214798
       4A    -11.209286     5A    -11.207568     6A     -1.176912
       7A     -1.056344     8A     -0.957887     9A     -0.845654
      10A     -0.791157    11A     -0.662321    12A     -0.624620
      13A     -0.618434    14A     -0.580775    15A     -0.555497
      16A     -0.527068    17A     -0.501320    18A     -0.471477
      19A     -0.462272    20A     -0.455621    21A     -0.381265

  @DF-RHF Final Energy:  -212.31183988339944

   => Energetics <=

    Nuclear Repulsion Energy =            186.5968843096708838
    One-Electron Energy =                -655.6707556355638644
    Two-Electron Energy =                 256.7620314424933667
    DFT Exchange-Correlation Energy =       0.0000000000000000
    Empirical Dispersion Energy =           0.0000000000000000
    PCM Polarization Energy =               0.0000000000000000
    EFP Energy =                            0.0000000000000000
    Total Energy =                       -212.3118398833996139
    Molecular point group: c1
  Basis Set: 6-31G*
  Basis Set:

  -Total Gradient:
     Atom            X                  Y                   Z
    ------   -----------------  -----------------  -----------------
       1        0.000041196348    -0.000015125269    -0.000007891356
       2        0.000057887431    -0.000008471681    -0.000056515745
       3       -0.000035587524    -0.000005128477     0.000100781081
       4       -0.000010040373     0.000011023276     0.000003003487
       5        0.000510142393     0.000862300135    -0.000324620392
       6       -0.000015772492    -0.000004947001     0.000011766030
       7        0.000000114329     0.000003956146    -0.000002487820
       8       -0.000123102144    -0.000117620200    -0.001075607581
       9       -0.000452491913    -0.000696181498     0.000442986145
      10        0.000016745492     0.000024069816    -0.000000697798
      11       -0.000025308959    -0.000003012040     0.000006508811
      12        0.000027653876    -0.000050734369     0.000894777309
      13        0.000001044403    -0.000008414823    -0.000009341278
      14        0.000006789470     0.000006206833     0.000015244092
      15       -0.000010994729     0.000001846442     0.000004284042
      16        0.000011724393     0.000000232711    -0.000002189028

  **** Optimization is complete! (in 4 steps) ****
    Final optimized geometry and variables:
    Molecular point group: c1

    Geometry (in Angstrom), charge = 0, multiplicity = 1:

    H            3.212875652058     0.049409441040     0.128357443452
    N            2.371149297204    -0.493210687032     0.153310688704
    C            1.203528860166     0.367803455771     0.263461383259
    H            2.439097698369    -1.097315963319     0.950391569059
    C           -0.080022023119    -0.454410451547     0.204198238267
    H            1.221874784519     1.059956103438    -0.573310491307
    H            1.200424725851     0.975846912817     1.171727281375
    C           -1.360385021415     0.406654355299     0.273196249301
    H           -0.064107176521    -1.043142916061    -0.707622987855
    H           -0.071970637543    -1.173532889411     1.020735300086
    C           -2.304542693198     0.186761780298    -0.908894492960
    H           -1.092973100070     1.459919115098     0.322270235049
    H           -1.895580636162     0.200590049643     1.195730483512
    H           -1.815323986827     0.427023535434    -1.848642172192
    H           -3.191160875528     0.808249054174    -0.826683823967
    H           -2.628472319665    -0.848650004329    -0.962298159950

  Mulliken Charges: (a.u.)
   Center  Symbol    Alpha    Beta     Spin     Total
       1     H     0.33237  0.33237  0.00000  0.33527
       2     N     3.92204  3.92204  0.00000 -0.84408
       3     C     3.06299  3.06299  0.00000 -0.12597
       4     H     0.33526  0.33526  0.00000  0.32948
       5     C     3.15453  3.15453  0.00000 -0.30905
       6     H     0.42083  0.42083  0.00000  0.15834
       7     H     0.43421  0.43421  0.00000  0.13157
       8     C     3.15916  3.15916  0.00000 -0.31832
       9     H     0.41016  0.41016  0.00000  0.17968
      10     H     0.42517  0.42517  0.00000  0.14966
      11     C     3.23896  3.23896  0.00000 -0.47792
      12     H     0.42134  0.42134  0.00000  0.15731
      13     H     0.42024  0.42024  0.00000  0.15952
      14     H     0.42085  0.42085  0.00000  0.15831
      15     H     0.42114  0.42114  0.00000  0.15771
      16     H     0.42074  0.42074  0.00000  0.15851

   Total alpha = 21.00000, Total beta = 21.00000, Total charge =  0.00000
