  ==> Input File <==

--------------------------------------------------------------------------
set {
	reference rhf
	basis 6-31G*
}

set_num_threads( 4 )
memory 2 gb

molecule MOL {
0 1

H	 1.158513	 -0.323748	 0.722296
C	 0.850167	 0.441173	 0.000644
C	 -0.623425	 0.760064	 0.000248
O	 1.655256	 0.955121	 -0.706063
C	 -1.518387	 -0.473136	 -0.000101
H	 -0.818289	 1.390622	 -0.866171
H	 -0.818694	 1.390413	 0.866696
H	 -1.333417	 -1.085530	 -0.874338
H	 -2.563510	 -0.183466	 -0.000351
H	 -1.333864	 -1.085676	 0.874123

	symmetry c1
}
set optking {
	frozen_dihedral = ("
		4 2 3 6
	")
}

ee = optimize('scf')
oeprop('DIPOLE', 'QUADRUPOLE', 'MULLIKEN_CHARGES')
f=open( 'psi4out.xyz', 'w' )
f.write( "10  " )
f.write( str(ee) + "\n" )
f.write( MOL.save_string_xyz() )
f.close()
--------------------------------------------------------------------------

    Molecular point group: c1
  Charge       = 0
  Multiplicity = 1
  Basis Set: 6-31G*
  Basis Set:
  @DF-RHF Final Energy:  -191.94979444011517
    Total Energy =                       -191.9497944401152267
    Molecular point group: c1
  Basis Set: 6-31G*
  Basis Set:
  Basis Set: 6-31G*
  Basis Set:
  @DF-RHF Final Energy:  -191.95006455382838
    Total Energy =                       -191.9500645538284402
  Basis Set: 6-31G*
  Basis Set:
  Basis Set: 6-31G*
  Basis Set:
  @DF-RHF Final Energy:  -191.94884033835964
    Total Energy =                       -191.9488403383596733
  Basis Set: 6-31G*
  Basis Set:
  Basis Set: 6-31G*
  Basis Set:
  @DF-RHF Final Energy:  -191.95017738002403
    Total Energy =                       -191.9501773800240301
  Basis Set: 6-31G*
  Basis Set:
  Basis Set: 6-31G*
  Basis Set:
  @DF-RHF Final Energy:  -191.95018490754859
    Total Energy =                       -191.9501849075485893
  Basis Set: 6-31G*
  Basis Set:
  Charge       = 0
  Multiplicity = 1
  Basis Set: 6-31G*
  Basis Set:

    Orbital Energies (a.u.)
    -----------------------

    Doubly Occupied:

       1A    -20.563922     2A    -11.328120     3A    -11.239310
       4A    -11.233864     5A     -1.403939     6A     -1.067188
       7A     -0.903890     8A     -0.795195     9A     -0.671098
      10A     -0.640494    11A     -0.620408    12A     -0.563404
      13A     -0.543933    14A     -0.517674    15A     -0.494494
      16A     -0.412693

  @DF-RHF Final Energy:  -191.95018532678768

   => Energetics <=

    Nuclear Repulsion Energy =            117.1578824937026866
    One-Electron Energy =                -492.2168858676254786
    Two-Electron Energy =                 183.1088180471351166
    DFT Exchange-Correlation Energy =       0.0000000000000000
    Empirical Dispersion Energy =           0.0000000000000000
    PCM Polarization Energy =               0.0000000000000000
    EFP Energy =                            0.0000000000000000
    Total Energy =                       -191.9501853267876754
    Molecular point group: c1
  Basis Set: 6-31G*
  Basis Set:

  -Total Gradient:
     Atom            X                  Y                   Z
    ------   -----------------  -----------------  -----------------
       1        0.000003724231     0.000005992283    -0.000005436421
       2       -0.000104136828    -0.000486745622    -0.000409423746
       3        0.000077901593     0.000461050796     0.000340374283
       4        0.000056472331     0.000290871895     0.000261746828
       5        0.000032709401     0.000040944504    -0.000002285827
       6       -0.000058264195    -0.000302381864    -0.000201662717
       7        0.000003086383     0.000001654121     0.000010054665
       8       -0.000008864374    -0.000005967597     0.000004402496
       9       -0.000002368596     0.000004431725    -0.000001652680
      10       -0.000000259945    -0.000009850242     0.000003883119

  **** Optimization is complete! (in 6 steps) ****
    Final optimized geometry and variables:
    Molecular point group: c1

    Geometry (in Angstrom), charge = 0, multiplicity = 1:

    H            1.050251087965    -0.727656934954     0.927977538354
    C            0.753322340074     0.025194785282     0.187732827592
    C           -0.715749139444     0.365729794997     0.170774782105
    O            1.567963368887     0.519488333909    -0.521746360472
    C           -1.601117635911    -0.883619908959     0.182093053905
    H           -0.909506375799     0.983827504344    -0.697355256044
    H           -0.920018540034     0.964349014110     1.057173326940
    H           -1.439955072070    -1.487781838181    -0.704883073715
    H           -2.648790378167    -0.607425846192     0.210068983932
    H           -1.399841498871    -1.503529869807     1.050672355423

  Mulliken Charges: (a.u.)
   Center  Symbol    Alpha    Beta     Spin     Total
       1     H     0.43222  0.43222  0.00000  0.13556
       2     C     2.83018  2.83018  0.00000  0.33964
       3     C     3.20763  3.20763  0.00000 -0.41526
       4     O     4.23685  4.23685  0.00000 -0.47370
       5     C     3.25211  3.25211  0.00000 -0.50422
       6     H     0.39799  0.39799  0.00000  0.20402
       7     H     0.40626  0.40626  0.00000  0.18747
       8     H     0.41119  0.41119  0.00000  0.17761
       9     H     0.40897  0.40897  0.00000  0.18205
      10     H     0.41659  0.41659  0.00000  0.16683

   Total alpha = 16.00000, Total beta = 16.00000, Total charge =  0.00000
