  ==> Input File <==

--------------------------------------------------------------------------
set {
	reference rhf
	basis cc-pvtz
}

set_num_threads( 4 )
memory 2 gb

molecule MOL {
0 1

H	 0.261463	 -0.602066	 2.855323
O	 0.224490	 -0.493558	 1.923168
C	 0.095324	 0.866847	 1.599703
C	 0.027642	 1.012027	 0.090274
H	 0.949496	 1.426847	 1.971937
H	 -0.793637	 1.284329	 2.064374
C	 -1.138737	 0.285728	 -0.581921
H	 0.959483	 0.641008	 -0.323881
H	 -0.018875	 2.073344	 -0.141367
C	 -1.933983	 -0.631436	 0.343653
H	 -0.763151	 -0.285569	 -1.422081
H	 -1.808359	 1.035291	 -0.992333
H	 -2.789188	 -1.049673	 -0.174718
H	 -1.335629	 -1.461368	 0.700418
H	 -2.305435	 -0.092167	 1.209725

	symmetry c1
}
set optking {
	frozen_dihedral = ("
		8 4 7 11
	")
}

ee = optimize('scf')
oeprop('DIPOLE', 'QUADRUPOLE', 'MULLIKEN_CHARGES')
f=open( 'psi4out.xyz', 'w' )
f.write( "15  " )
f.write( str(ee) + "\n" )
f.write( MOL.save_string_xyz() )
f.close()
--------------------------------------------------------------------------

    Molecular point group: c1
  Charge       = 0
  Multiplicity = 1
  Basis Set: CC-PVTZ
  Basis Set:
  @DF-RHF Final Energy:  -232.22312017622184
    Total Energy =                       -232.2231201762218689
    Molecular point group: c1
  Basis Set: CC-PVTZ
  Basis Set:
  Basis Set: CC-PVTZ
  Basis Set:
  @DF-RHF Final Energy:  -232.22776555011640
    Total Energy =                       -232.2277655501164872
  Basis Set: CC-PVTZ
  Basis Set:
  Basis Set: CC-PVTZ
  Basis Set:
  @DF-RHF Final Energy:  -232.22888849581454
    Total Energy =                       -232.2288884958146014
  Basis Set: CC-PVTZ
  Basis Set:
  Basis Set: CC-PVTZ
  Basis Set:
  @DF-RHF Final Energy:  -232.22912245735799
    Total Energy =                       -232.2291224573579029
  Basis Set: CC-PVTZ
  Basis Set:
  Basis Set: CC-PVTZ
  Basis Set:
  @DF-RHF Final Energy:  -232.22916434724178
    Total Energy =                       -232.2291643472415785
  Basis Set: CC-PVTZ
  Basis Set:
  Basis Set: CC-PVTZ
  Basis Set:
  @DF-RHF Final Energy:  -232.22918218094898
    Total Energy =                       -232.2291821809492376
  Basis Set: CC-PVTZ
  Basis Set:
  Charge       = 0
  Multiplicity = 1
  Basis Set: CC-PVTZ
  Basis Set:

    Orbital Energies (a.u.)
    -----------------------

    Doubly Occupied:

       1A    -20.546234     2A    -11.266503     3A    -11.211616
       4A    -11.210550     5A    -11.197279     6A     -1.364238
       7A     -1.060111     8A     -0.971950     9A     -0.869781
      10A     -0.772024    11A     -0.707896    12A     -0.649516
      13A     -0.610391    14A     -0.571415    15A     -0.559782
      16A     -0.533957    17A     -0.511948    18A     -0.477917
      19A     -0.460694    20A     -0.451610    21A     -0.429581

  @DF-RHF Final Energy:  -232.22918341436505

   => Energetics <=

    Nuclear Repulsion Energy =            192.8729211795709659
    One-Electron Energy =                -697.3342298778418353
    Two-Electron Energy =                 272.2321252839058161
    DFT Exchange-Correlation Energy =       0.0000000000000000
    Empirical Dispersion Energy =           0.0000000000000000
    PCM Polarization Energy =               0.0000000000000000
    EFP Energy =                            0.0000000000000000
    Total Energy =                       -232.2291834143650249
    Molecular point group: c1
  Basis Set: CC-PVTZ
  Basis Set:

  -Total Gradient:
     Atom            X                  Y                   Z
    ------   -----------------  -----------------  -----------------
       1       -0.000000826180     0.000021809175    -0.000001283379
       2       -0.000020989539    -0.000021465505    -0.000041102360
       3        0.000010420141     0.000036285801     0.000026195306
       4        0.000047899451    -0.002285867733     0.002052972022
       5       -0.000007660751     0.000023328597    -0.000049279330
       6       -0.000012261705    -0.000017329004     0.000014247307
       7       -0.000287754950     0.002352578360    -0.001819209107
       8        0.000051229681     0.001491750993    -0.001430911041
       9       -0.000002130337    -0.000005351312     0.000036622307
      10        0.000021491532     0.000008506049     0.000031918333
      11        0.000226512654    -0.001618154198     0.001206806955
      12       -0.000016346447    -0.000013890579     0.000000596251
      13        0.000003822658    -0.000002864826    -0.000003377059
      14       -0.000012637430     0.000031017626    -0.000021063720
      15       -0.000000768779    -0.000000353444    -0.000003132490

  **** Optimization is complete! (in 7 steps) ****
    Final optimized geometry and variables:
    Molecular point group: c1

    Geometry (in Angstrom), charge = 0, multiplicity = 1:

    H            1.016244480445    -0.682910481797     2.205578413552
    O            0.978882536805    -0.618481766902     1.269179740377
    C            0.630015963511     0.687966908864     0.889515928795
    C            0.534339509473     0.771543717386    -0.622864339150
    H            1.392446373610     1.386741714559     1.224288129851
    H           -0.306769898435     0.984729602805     1.353543582759
    C           -0.678569513995     0.104090537969    -1.321201884760
    H            1.456986589463     0.373925718103    -1.029698456652
    H            0.536291261227     1.827063943977    -0.877193356496
    C           -1.549496674986    -0.831394305521    -0.481723314805
    H           -0.310509561306    -0.465507802070    -2.166855343150
    H           -1.314685171176     0.880251920086    -1.732853109579
    H           -2.354608361991    -1.223643059979    -1.093292257333
    H           -0.981354476986    -1.664024339663    -0.092634354583
    H           -2.004196187123    -0.319134381671     0.358459935411

  Mulliken Charges: (a.u.)
   Center  Symbol    Alpha    Beta     Spin     Total
       1     H     0.39540  0.39540  0.00000  0.20920
       2     O     4.20004  4.20004  0.00000 -0.40008
       3     C     2.98167  2.98167  0.00000  0.03666
       4     C     3.09443  3.09443  0.00000 -0.18887
       5     H     0.45971  0.45971  0.00000  0.08057
       6     H     0.46900  0.46900  0.00000  0.06201
       7     C     3.08760  3.08760  0.00000 -0.17520
       8     H     0.45030  0.45030  0.00000  0.09940
       9     H     0.45200  0.45200  0.00000  0.09600
      10     C     3.15096  3.15096  0.00000 -0.30193
      11     H     0.45228  0.45228  0.00000  0.09545
      12     H     0.45385  0.45385  0.00000  0.09230
      13     H     0.44890  0.44890  0.00000  0.10220
      14     H     0.44400  0.44400  0.00000  0.11199
      15     H     0.45985  0.45985  0.00000  0.08030

   Total alpha = 21.00000, Total beta = 21.00000, Total charge = -0.00000
