  ==> Input File <==

--------------------------------------------------------------------------
set {
	reference rhf
	basis 6-31G*
}

set_num_threads( 1 )
memory 2 gb

molecule MOL {
0 1

O	 -1.538864	 -0.435263	 -2.213648
C	 -1.988860	 -0.794638	 -1.172990
C	 -3.197117	 -1.686062	 -1.043581
O	 -1.481751	 -0.454642	 0.000584
H	 -3.003079	 -2.613541	 -1.568933
H	 -3.437092	 -1.892147	 -0.010925
H	 -4.038113	 -1.204687	 -1.528230
C	 -0.334255	 0.388708	 0.000906
C	 0.891947	 -0.504646	 0.000751
H	 -0.365390	 1.025305	 -0.873475
H	 -0.365484	 1.024911	 0.875569
C	 2.191998	 0.301789	 0.000897
H	 0.855148	 -1.151283	 -0.871571
H	 0.855132	 -1.151660	 0.872805
C	 3.441114	 -0.581407	 0.000108
H	 2.215074	 0.954890	 -0.869742
H	 2.215465	 0.953923	 0.872248
C	 4.739576	 0.224112	 -0.001102
H	 3.419457	 -1.233487	 -0.870178
H	 3.420834	 -1.233096	 0.870717
H	 4.804918	 0.861552	 -0.878265
H	 5.606527	 -0.429058	 -0.001824
H	 4.806469	 0.861674	 0.875853

	symmetry c1
}
set optking {
	frozen_dihedral = ("
		13 9 8 10,
		16 12 9 13,
		19 15 12 16,
		1 2 4 8
	")
}

ee = energy('scf')
oeprop('DIPOLE', 'QUADRUPOLE', 'MULLIKEN_CHARGES')
f=open( 'psi4out.xyz', 'w' )
f.write( "23  " )
f.write( str(ee) + "\n" )
f.write( MOL.save_string_xyz() )
f.close()
--------------------------------------------------------------------------

    Molecular point group: c1

    Geometry (in Angstrom), charge = 0, multiplicity = 1:

       Center              X                  Y                   Z               Mass
    ------------   -----------------  -----------------  -----------------  -----------------
           O         -1.828958920616    -0.040739323223    -1.713198597014    15.994914619560
           C         -2.278954920616    -0.400114323223    -0.672540597014    12.000000000000
           C         -3.487211920616    -1.291538323223    -0.543131597014    12.000000000000
           O         -1.771845920616    -0.060118323223     0.501033402986    15.994914619560
           H         -3.293173920616    -2.219017323223    -1.068483597014     1.007825032070
           H         -3.727186920616    -1.497623323223     0.489524402986     1.007825032070
           H         -4.328207920616    -0.810163323223    -1.027780597014     1.007825032070
           C         -0.624349920616     0.783231676777     0.501355402986    12.000000000000
           C          0.601852079384    -0.110122323223     0.501200402986    12.000000000000
           H         -0.655484920616     1.419828676777    -0.373025597014     1.007825032070
           H         -0.655578920616     1.419434676777     1.376018402986     1.007825032070
           C          1.901903079384     0.696312676777     0.501346402986    12.000000000000
           H          0.565053079384    -0.756759323223    -0.371121597014     1.007825032070
           H          0.565037079384    -0.757136323223     1.373254402986     1.007825032070
           C          3.151019079384    -0.186883323223     0.500557402986    12.000000000000
           H          1.924979079384     1.349413676777    -0.369292597014     1.007825032070
           H          1.925370079384     1.348446676777     1.372697402986     1.007825032070
           C          4.449481079384     0.618635676777     0.499347402986    12.000000000000
           H          3.129362079384    -0.838963323223    -0.369728597014     1.007825032070
           H          3.130739079384    -0.838572323223     1.371166402986     1.007825032070
           H          4.514823079384     1.256075676777    -0.377815597014     1.007825032070
           H          5.316432079384    -0.034534323223     0.498625402986     1.007825032070
           H          4.516374079384     1.256197676777     1.376302402986     1.007825032070

  Charge       = 0
  Multiplicity = 1
  Basis Set: 6-31G*
  Basis Set:

    Orbital Energies (a.u.)
    -----------------------

    Doubly Occupied:

       1A    -20.602966     2A    -20.540950     3A    -11.375979
       4A    -11.279965     5A    -11.233246     6A    -11.220274
       7A    -11.219162     8A    -11.218553     9A    -11.210517
      10A     -1.469192    11A     -1.361663    12A     -1.090542
      13A     -1.040804    14A     -1.001961    15A     -0.930061
      16A     -0.847840    17A     -0.798473    18A     -0.768830
      19A     -0.700828    20A     -0.680442    21A     -0.655857
      22A     -0.648006    23A     -0.602664    24A     -0.589020
      25A     -0.584631    26A     -0.572491    27A     -0.550051
      28A     -0.538261    29A     -0.521086    30A     -0.512824
      31A     -0.484149    32A     -0.477544    33A     -0.473456
      34A     -0.467406    35A     -0.438591    36A     -0.434609

  @DF-RHF Final Energy:  -422.97737001704786

   => Energetics <=

    Nuclear Repulsion Energy =            457.8799708098478050
    One-Electron Energy =               -1483.4290346079362735
    Two-Electron Energy =                 602.5716937810406080
    DFT Exchange-Correlation Energy =       0.0000000000000000
    Empirical Dispersion Energy =           0.0000000000000000
    PCM Polarization Energy =               0.0000000000000000
    EFP Energy =                            0.0000000000000000
    Total Energy =                       -422.9773700170477468

  Mulliken Charges: (a.u.)
   Center  Symbol    Alpha    Beta     Spin     Total
       1     O     4.28549  4.28549  0.00000 -0.57097
       2     C     2.61508  2.61508  0.00000  0.76985
       3     C     3.28811  3.28811  0.00000 -0.57622
       4     O     4.31077  4.31077  0.00000 -0.62154
       5     H     0.39761  0.39761  0.00000  0.20478
       6     H     0.39931  0.39931  0.00000  0.20139
       7     H     0.39714  0.39714  0.00000  0.20573
       8     C     3.00864  3.00864  0.00000 -0.01727
       9     C     3.16563  3.16563  0.00000 -0.33125
      10     H     0.39854  0.39854  0.00000  0.20292
      11     H     0.41009  0.41009  0.00000  0.17982
      12     C     3.16129  3.16129  0.00000 -0.32259
      13     H     0.40878  0.40878  0.00000  0.18245
      14     H     0.41625  0.41625  0.00000  0.16751
      15     C     3.15141  3.15141  0.00000 -0.30283
      16     H     0.41876  0.41876  0.00000  0.16249
      17     H     0.42378  0.42378  0.00000  0.15243
      18     C     3.23978  3.23978  0.00000 -0.47956
      19     H     0.42027  0.42027  0.00000  0.15946
      20     H     0.42241  0.42241  0.00000  0.15518
      21     H     0.42059  0.42059  0.00000  0.15882
      22     H     0.41844  0.41844  0.00000  0.16312
      23     H     0.42186  0.42186  0.00000  0.15628

   Total alpha = 36.00000, Total beta = 36.00000, Total charge =  0.00000
