  ==> Input File <==

--------------------------------------------------------------------------
set {
	reference rhf
	basis 6-31G*
}

set_num_threads( 1 )
memory 2 gb

molecule MOL {
0 1

O	 0.712180	 0.656200	 0.979333
C	 1.122059	 0.121804	 -0.000188
C	 0.540344	 0.261986	 -1.385775
O	 2.172624	 -0.688929	 0.000216
C	 -0.673064	 1.184842	 -1.443369
H	 1.334980	 0.615384	 -2.037249
H	 0.292798	 -0.736236	 -1.736530
C	 -1.242592	 1.308839	 -2.857452
H	 -0.395074	 2.166019	 -1.071187
H	 -1.438617	 0.812695	 -0.769619
C	 -2.459452	 2.230697	 -2.924032
H	 -0.471268	 1.681323	 -3.528564
H	 -1.517064	 0.322665	 -3.226501
H	 -2.208672	 3.234477	 -2.593593
H	 -2.843371	 2.301409	 -3.936891
H	 -3.262144	 1.865784	 -2.289867
C	 3.452279	 -0.082609	 0.000533
H	 3.583069	 0.529321	 -0.880332
H	 4.163299	 -0.894027	 0.001117
H	 3.582335	 0.529955	 0.881077

	symmetry c1
}
set optking {
	frozen_dihedral = ("
		9 5 8 12,
		1 2 3 6,
		9 5 3 6
	")
}

ee = energy('scf')
oeprop('DIPOLE', 'QUADRUPOLE', 'MULLIKEN_CHARGES')
f=open( 'psi4out.xyz', 'w' )
f.write( "20  " )
f.write( str(ee) + "\n" )
f.write( MOL.save_string_xyz() )
f.close()
--------------------------------------------------------------------------

    Molecular point group: c1

    Geometry (in Angstrom), charge = 0, multiplicity = 1:

       Center              X                  Y                   Z               Mass
    ------------   -----------------  -----------------  -----------------  -----------------
           O          0.231115414102     0.033294144118     1.918392509887    15.994914619560
           C          0.640994414102    -0.501101855882     0.938871509887    12.000000000000
           C          0.059279414102    -0.360919855882    -0.446715490113    12.000000000000
           O          1.691559414102    -1.311834855882     0.939275509887    15.994914619560
           C         -1.154128585898     0.561936144118    -0.504309490113    12.000000000000
           H          0.853915414102    -0.007521855882    -1.098189490113     1.007825032070
           H         -0.188266585898    -1.359141855882    -0.797470490113     1.007825032070
           C         -1.723656585898     0.685933144118    -1.918392490113    12.000000000000
           H         -0.876138585898     1.543113144118    -0.132127490113     1.007825032070
           H         -1.919681585898     0.189789144118     0.169440509887     1.007825032070
           C         -2.940516585898     1.607791144118    -1.984972490113    12.000000000000
           H         -0.952332585898     1.058417144118    -2.589504490113     1.007825032070
           H         -1.998128585898    -0.300240855882    -2.287441490113     1.007825032070
           H         -2.689736585898     2.611571144118    -1.654533490113     1.007825032070
           H         -3.324435585898     1.678503144118    -2.997831490113     1.007825032070
           H         -3.743208585898     1.242878144118    -1.350807490113     1.007825032070
           C          2.971214414102    -0.705514855882     0.939592509887    12.000000000000
           H          3.102004414102    -0.093584855882     0.058727509887     1.007825032070
           H          3.682234414102    -1.516932855882     0.940176509887     1.007825032070
           H          3.101270414102    -0.092950855882     1.820136509887     1.007825032070

  Charge       = 0
  Multiplicity = 1
  Basis Set: 6-31G*
  Basis Set:

    Orbital Energies (a.u.)
    -----------------------

    Doubly Occupied:

       1A    -20.587332     2A    -20.554512     3A    -11.373678
       4A    -11.294044     5A    -11.236968     6A    -11.221261
       7A    -11.219898     8A    -11.211429     9A     -1.464332
      10A     -1.366619    11A     -1.088807    12A     -1.020252
      13A     -0.975699    14A     -0.893916    15A     -0.806317
      16A     -0.768869    17A     -0.695457    18A     -0.681800
      19A     -0.675712    20A     -0.643523    21A     -0.614412
      22A     -0.590335    23A     -0.586693    24A     -0.551913
      25A     -0.536645    26A     -0.511475    27A     -0.497206
      28A     -0.485781    29A     -0.477884    30A     -0.471216
      31A     -0.452310    32A     -0.432330

  @DF-RHF Final Energy:  -383.92158983481573

   => Energetics <=

    Nuclear Repulsion Energy =            382.2755824421353168
    One-Electron Energy =               -1280.4171646870661334
    Two-Electron Energy =                 514.2199924101151964
    DFT Exchange-Correlation Energy =       0.0000000000000000
    Empirical Dispersion Energy =           0.0000000000000000
    PCM Polarization Energy =               0.0000000000000000
    EFP Energy =                            0.0000000000000000
    Total Energy =                       -383.9215898348155633

  Mulliken Charges: (a.u.)
   Center  Symbol    Alpha    Beta     Spin     Total
       1     O     4.26099  4.26099  0.00000 -0.52198
       2     C     2.61353  2.61353  0.00000  0.77294
       3     C     3.21122  3.21122  0.00000 -0.42244
       4     O     4.31102  4.31102  0.00000 -0.62204
       5     C     3.15208  3.15208  0.00000 -0.30415
       6     H     0.40788  0.40788  0.00000  0.18423
       7     H     0.39867  0.39867  0.00000  0.20266
       8     C     3.15393  3.15393  0.00000 -0.30785
       9     H     0.41334  0.41334  0.00000  0.17333
      10     H     0.41073  0.41073  0.00000  0.17854
      11     C     3.23928  3.23928  0.00000 -0.47857
      12     H     0.42414  0.42414  0.00000  0.15171
      13     H     0.42266  0.42266  0.00000  0.15469
      14     H     0.42024  0.42024  0.00000  0.15952
      15     H     0.41879  0.41879  0.00000  0.16243
      16     H     0.41954  0.41954  0.00000  0.16091
      17     C     3.09329  3.09329  0.00000 -0.18659
      18     H     0.42090  0.42090  0.00000  0.15819
      19     H     0.40192  0.40192  0.00000  0.19615
      20     H     0.40584  0.40584  0.00000  0.18831

   Total alpha = 32.00000, Total beta = 32.00000, Total charge =  0.00000
