  ==> Input File <==

--------------------------------------------------------------------------
set {
	reference rhf
	basis 6-31G*
}

set_num_threads( 1 )
memory 2 gb

molecule MOL {
0 1

H	 -1.908417	 -2.803227	 -1.325524
C	 -2.507623	 -1.891350	 -1.211266
C	 -2.436173	 -1.248297	 0.150347
O	 -3.149833	 -1.480631	 -2.122653
C	 -0.992389	 -1.004534	 0.611131
H	 -3.007057	 -0.327367	 0.124125
H	 -2.925856	 -1.924894	 0.849690
C	 -0.252658	 0.041456	 -0.226725
H	 -1.011757	 -0.687056	 1.649455
H	 -0.443593	 -1.944870	 0.592492
C	 1.180775	 0.282413	 0.250794
H	 -0.807117	 0.977198	 -0.198270
H	 -0.235791	 -0.266430	 -1.270498
C	 2.148627	 -0.814315	 -0.201312
H	 1.516199	 1.249228	 -0.115937
H	 1.192670	 0.346017	 1.338083
C	 3.580890	 -0.659131	 0.322722
H	 2.166869	 -0.852443	 -1.289387
H	 1.762857	 -1.776509	 0.128956
C	 4.324889	 0.564933	 -0.213704
H	 4.142010	 -1.551473	 0.056605
H	 3.564836	 -0.624694	 1.410140
H	 4.342616	 0.565491	 -1.300421
H	 3.866655	 1.493402	 0.110242
H	 5.353900	 0.572371	 0.132816

	symmetry c1
}
set optking {
	frozen_dihedral = ("
		6 3 5 8,
		6 3 2 4,
		3 5 8 12,
		8 11 14 18,
		20 17 14 18
	")
}

ee = energy('scf')
oeprop('DIPOLE', 'QUADRUPOLE', 'MULLIKEN_CHARGES')
f=open( 'psi4out.xyz', 'w' )
f.write( "25  " )
f.write( str(ee) + "\n" )
f.write( MOL.save_string_xyz() )
f.close()
--------------------------------------------------------------------------

    Molecular point group: c1

    Geometry (in Angstrom), charge = 0, multiplicity = 1:

       Center              X                  Y                   Z               Mass
    ------------   -----------------  -----------------  -----------------  -----------------
           H         -2.126035039497    -2.116037151182    -1.019028348666     1.007825032070
           C         -2.725241039497    -1.204160151182    -0.904770348666    12.000000000000
           C         -2.653791039497    -0.561107151182     0.456842651334    12.000000000000
           O         -3.367451039497    -0.793441151182    -1.816157348666    15.994914619560
           C         -1.210007039497    -0.317344151182     0.917626651334    12.000000000000
           H         -3.224675039497     0.359822848818     0.430620651334     1.007825032070
           H         -3.143474039497    -1.237704151182     1.156185651334     1.007825032070
           C         -0.470276039497     0.728645848818     0.079770651334    12.000000000000
           H         -1.229375039497     0.000133848818     1.955950651334     1.007825032070
           H         -0.661211039497    -1.257680151182     0.898987651334     1.007825032070
           C          0.963156960503     0.969602848818     0.557289651334    12.000000000000
           H         -1.024735039497     1.664387848818     0.108225651334     1.007825032070
           H         -0.453409039497     0.420759848818    -0.964002348666     1.007825032070
           C          1.931008960503    -0.127125151182     0.105183651334    12.000000000000
           H          1.298580960503     1.936417848818     0.190558651334     1.007825032070
           H          0.975051960503     1.033206848818     1.644578651334     1.007825032070
           C          3.363271960503     0.028058848818     0.629217651334    12.000000000000
           H          1.949250960503    -0.165253151182    -0.982891348666     1.007825032070
           H          1.545238960503    -1.089319151182     0.435451651334     1.007825032070
           C          4.107270960503     1.252122848818     0.092791651334    12.000000000000
           H          3.924391960503    -0.864283151182     0.363100651334     1.007825032070
           H          3.347217960503     0.062495848818     1.716635651334     1.007825032070
           H          4.124997960503     1.252680848818    -0.993925348666     1.007825032070
           H          3.649036960503     2.180591848818     0.416737651334     1.007825032070
           H          5.136281960503     1.259560848818     0.439311651334     1.007825032070

  Charge       = 0
  Multiplicity = 1
  Basis Set: 6-31G*
  Basis Set:

    Orbital Energies (a.u.)
    -----------------------

    Doubly Occupied:

       1A    -20.561889     2A    -11.326072     3A    -11.234977
       4A    -11.234386     5A    -11.223615     6A    -11.219654
       7A    -11.219119     8A    -11.218366     9A    -11.210993
      10A     -1.401883    11A     -1.105566    12A     -1.068978
      13A     -1.013525    14A     -0.940611    15A     -0.880488
      16A     -0.821217    17A     -0.791286    18A     -0.777361
      19A     -0.665830    20A     -0.651293    21A     -0.634340
      22A     -0.625874    23A     -0.611634    24A     -0.592322
      25A     -0.570507    26A     -0.564122    27A     -0.530639
      28A     -0.520214    29A     -0.517328    30A     -0.497248
      31A     -0.489413    32A     -0.479387    33A     -0.465298
      34A     -0.450159    35A     -0.445868    36A     -0.409425

  @DF-RHF Final Energy:  -387.11965600897508

   => Energetics <=

    Nuclear Repulsion Energy =            444.4075589913769591
    One-Electron Energy =               -1405.1129718179713564
    Two-Electron Energy =                 573.5857568176184031
    DFT Exchange-Correlation Energy =       0.0000000000000000
    Empirical Dispersion Energy =           0.0000000000000000
    PCM Polarization Energy =               0.0000000000000000
    EFP Energy =                            0.0000000000000000
    Total Energy =                       -387.1196560089759942

  Mulliken Charges: (a.u.)
   Center  Symbol    Alpha    Beta     Spin     Total
       1     H     0.43268  0.43268  0.00000  0.13464
       2     C     2.83078  2.83078  0.00000  0.33844
       3     C     3.20761  3.20761  0.00000 -0.41521
       4     O     4.23786  4.23786  0.00000 -0.47572
       5     C     3.16826  3.16826  0.00000 -0.33652
       6     H     0.39976  0.39976  0.00000  0.20048
       7     H     0.40683  0.40683  0.00000  0.18633
       8     C     3.15710  3.15710  0.00000 -0.31419
       9     H     0.41271  0.41271  0.00000  0.17459
      10     H     0.41840  0.41840  0.00000  0.16320
      11     C     3.15687  3.15687  0.00000 -0.31374
      12     H     0.41587  0.41587  0.00000  0.16826
      13     H     0.41788  0.41788  0.00000  0.16424
      14     C     3.15516  3.15516  0.00000 -0.31033
      15     H     0.41616  0.41616  0.00000  0.16768
      16     H     0.42348  0.42348  0.00000  0.15304
      17     C     3.15208  3.15208  0.00000 -0.30417
      18     H     0.42226  0.42226  0.00000  0.15548
      19     H     0.42291  0.42291  0.00000  0.15419
      20     C     3.24148  3.24148  0.00000 -0.48296
      21     H     0.42055  0.42055  0.00000  0.15890
      22     H     0.42330  0.42330  0.00000  0.15341
      23     H     0.42147  0.42147  0.00000  0.15706
      24     H     0.41995  0.41995  0.00000  0.16010
      25     H     0.41859  0.41859  0.00000  0.16282

   Total alpha = 36.00000, Total beta = 36.00000, Total charge =  0.00000
