  ==> Input File <==

--------------------------------------------------------------------------
set {
	reference rhf
	basis cc-pvtz
}

set_num_threads( 4 )
memory 2 gb

molecule MOL {
0 1

O	 -2.374409	 1.338660	 -0.336961
C	 -2.104891	 0.204655	 -0.107126
C	 -0.881910	 -0.448129	 -0.720509
C	 -2.949910	 -0.638219	 0.818225
C	 0.280433	 -0.488759	 0.279566
H	 -0.596794	 0.137611	 -1.585222
H	 -1.118483	 -1.453568	 -1.052157
C	 1.533969	 -1.128044	 -0.314124
H	 0.487152	 0.524155	 0.601281
H	 -0.017601	 -1.044172	 1.165564
C	 2.708397	 -1.247931	 0.658631
H	 1.846610	 -0.557794	 -1.185358
H	 1.281606	 -2.121253	 -0.675308
C	 3.303510	 0.084721	 1.106690
H	 3.487335	 -1.834330	 0.181451
H	 2.395024	 -1.815362	 1.531072
H	 3.620329	 0.675800	 0.253554
H	 4.170756	 -0.075607	 1.736730
H	 2.595226	 0.676513	 1.673608
H	 -3.440322	 -1.417144	 0.243099
H	 -3.694377	 -0.025850	 1.303346
H	 -2.331085	 -1.129829	 1.560495

	symmetry c1
}
set optking {
	frozen_dihedral = ("
		6 3 2 1
	")
}

ee = optimize('scf')
oeprop('DIPOLE', 'QUADRUPOLE', 'MULLIKEN_CHARGES')
f=open( 'psi4out.xyz', 'w' )
f.write( "22  " )
f.write( str(ee) + "\n" )
f.write( MOL.save_string_xyz() )
f.close()
--------------------------------------------------------------------------

    Molecular point group: c1
  Charge       = 0
  Multiplicity = 1
  Basis Set: CC-PVTZ
  Basis Set:
  @DF-RHF Final Energy:  -348.22311976723421
    Total Energy =                       -348.2231197672340386
    Molecular point group: c1
  Basis Set: CC-PVTZ
  Basis Set:
  Basis Set: CC-PVTZ
  Basis Set:
  @DF-RHF Final Energy:  -348.22183929503245
    Total Energy =                       -348.2218392950321686
  Basis Set: CC-PVTZ
  Basis Set:
  Basis Set: CC-PVTZ
  Basis Set:
  @DF-RHF Final Energy:  -348.22319051509004
    Total Energy =                       -348.2231905150900957
  Basis Set: CC-PVTZ
  Basis Set:
  Basis Set: CC-PVTZ
  Basis Set:
  @DF-RHF Final Energy:  -348.22320430577662
    Total Energy =                       -348.2232043057766759
  Basis Set: CC-PVTZ
  Basis Set:
  @DF-RHF Final Energy:  -348.22323331354482
    Total Energy =                       -348.2232333135451086
  Basis Set: CC-PVTZ
  Basis Set:
  @DF-RHF Final Energy:  -348.22325176975966
    Total Energy =                       -348.2232517697600542
  Basis Set: CC-PVTZ
  Basis Set:
  Basis Set: CC-PVTZ
  Basis Set:
  @DF-RHF Final Energy:  -348.22324999847723
    Total Energy =                       -348.2232499984771152
  Basis Set: CC-PVTZ
  Basis Set:
  Basis Set: CC-PVTZ
  Basis Set:
  @DF-RHF Final Energy:  -348.22325250105484
    Total Energy =                       -348.2232525010543327
  Basis Set: CC-PVTZ
  Basis Set:
  Charge       = 0
  Multiplicity = 1
  Basis Set: CC-PVTZ
  Basis Set:

    Orbital Energies (a.u.)
    -----------------------

    Doubly Occupied:

       1A    -20.537083     2A    -11.319048     3A    -11.229386
       4A    -11.227767     5A    -11.226273     6A    -11.221703
       7A    -11.220104     8A    -11.210721     9A     -1.396778
      10A     -1.098718    11A     -1.046376    12A     -0.999122
      13A     -0.939910    14A     -0.860552    15A     -0.788438
      16A     -0.734284    17A     -0.664667    18A     -0.646788
      19A     -0.630667    20A     -0.621306    21A     -0.599591
      22A     -0.586207    23A     -0.562669    24A     -0.538003
      25A     -0.536595    26A     -0.524549    27A     -0.498081
      28A     -0.492474    29A     -0.472765    30A     -0.466595
      31A     -0.463980    32A     -0.398635

  @DF-RHF Final Energy:  -348.22325265797315

   => Energetics <=

    Nuclear Repulsion Energy =            373.4473037552979804
    One-Electron Energy =               -1211.8214402480730314
    Two-Electron Energy =                 490.1508838348015615
    DFT Exchange-Correlation Energy =       0.0000000000000000
    Empirical Dispersion Energy =           0.0000000000000000
    PCM Polarization Energy =               0.0000000000000000
    EFP Energy =                            0.0000000000000000
    Total Energy =                       -348.2232526579734895
    Molecular point group: c1
  Basis Set: CC-PVTZ
  Basis Set:

  -Total Gradient:
     Atom            X                  Y                   Z
    ------   -----------------  -----------------  -----------------
       1       -0.000508095590    -0.000285809692    -0.000733990941
       2        0.000835797071     0.000523469233     0.001149243198
       3       -0.000861209940    -0.000764889398    -0.000931358558
       4       -0.000028823121    -0.000008591624    -0.000028749205
       5       -0.000005300714    -0.000007168071    -0.000007202444
       6        0.000545196363     0.000540932362     0.000529290555
       7       -0.000000679831    -0.000003773776    -0.000000957866
       8        0.000001033523    -0.000004441586     0.000001687769
       9        0.000006231336     0.000005252245     0.000003645744
      10        0.000002412303     0.000000134941    -0.000002865155
      11        0.000003556739     0.000000478000    -0.000005315477
      12       -0.000000761644    -0.000001275212     0.000000416047
      13       -0.000001744767     0.000000059343     0.000001944136
      14       -0.000002766611    -0.000000770866    -0.000000146888
      15        0.000000701853     0.000001454463    -0.000000661014
      16        0.000000397057    -0.000000824684    -0.000001203124
      17        0.000000136296    -0.000001318450     0.000000497486
      18       -0.000000466108     0.000000189839     0.000001217045
      19       -0.000005060276     0.000002443961    -0.000000228166
      20        0.000008875325    -0.000004405839     0.000013883023
      21        0.000004848931     0.000001290060     0.000002409561
      22        0.000005721809     0.000007564756     0.000008444273

  **** Optimization is complete! (in 9 steps) ****
    Final optimized geometry and variables:
    Molecular point group: c1

    Geometry (in Angstrom), charge = 0, multiplicity = 1:

    O           -2.322134842026     1.613247359632    -0.544930621440
    C           -2.051512241470     0.485022997460    -0.289029526984
    C           -0.824322716443    -0.180904966748    -0.877716390528
    C           -2.925523126830    -0.344508730286     0.623631452260
    C            0.345938537501    -0.216422326774     0.114110506791
    H           -0.537750751755     0.388421130891    -1.751749649332
    H           -1.071067631651    -1.191663784398    -1.188093045518
    C            1.599445705396    -0.839160719137    -0.497853346253
    H            0.551252452764     0.796653396006     0.439780686378
    H            0.066675542626    -0.779607360879     0.999886808251
    C            2.783476129888    -0.961958811731     0.462645042175
    H            1.900099086498    -0.257242227607    -1.365344793649
    H            1.350142255933    -1.829885073282    -0.867822705381
    C            3.372637319351     0.369452262113     0.922127585481
    H            3.562354461246    -1.536128363296    -0.029166266452
    H            2.482730017067    -1.542899321814     1.330626862851
    H            3.676969664379     0.973817050642     0.073795305942
    H            4.246860487914     0.207842507679     1.542047070080
    H            2.665367357167     0.948570739894     1.503366379634
    H           -3.421214539492    -1.111479089204     0.037048165510
    H           -3.668410729462     0.283282653966     1.091084022210
    H           -2.337410852357    -0.848642951138     1.380666266220

  Mulliken Charges: (a.u.)
   Center  Symbol    Alpha    Beta     Spin     Total
       1     O     4.17563  4.17563  0.00000 -0.35125
       2     C     2.85907  2.85907  0.00000  0.28186
       3     C     3.09390  3.09390  0.00000 -0.18780
       4     C     3.15603  3.15603  0.00000 -0.31207
       5     C     3.10910  3.10910  0.00000 -0.21819
       6     H     0.43866  0.43866  0.00000  0.12269
       7     H     0.44894  0.44894  0.00000  0.10211
       8     C     3.09613  3.09613  0.00000 -0.19226
       9     H     0.44084  0.44084  0.00000  0.11833
      10     H     0.45088  0.45088  0.00000  0.09824
      11     C     3.09067  3.09067  0.00000 -0.18135
      12     H     0.44992  0.44992  0.00000  0.10016
      13     H     0.44864  0.44864  0.00000  0.10273
      14     C     3.15177  3.15177  0.00000 -0.30354
      15     H     0.44731  0.44731  0.00000  0.10538
      16     H     0.45471  0.45471  0.00000  0.09058
      17     H     0.45347  0.45347  0.00000  0.09305
      18     H     0.44592  0.44592  0.00000  0.10815
      19     H     0.45305  0.45305  0.00000  0.09390
      20     H     0.44913  0.44913  0.00000  0.10173
      21     H     0.43537  0.43537  0.00000  0.12926
      22     H     0.45086  0.45086  0.00000  0.09829

   Total alpha = 32.00000, Total beta = 32.00000, Total charge = -0.00000
