                              Psi4 1.0.54 Driver

  ==> Input File <==

--------------------------------------------------------------------------
set {
	reference rhf
	basis cc-pvtz
}

set_num_threads( 4 )
memory 2 gb

molecule MOL {
0 1

H	 -2.335316	 -1.522796	 -1.135297
C	 -1.606788	 -0.905421	 -0.653601
C	 -1.958955	 0.341700	 -0.045471
C	 -0.325921	 -1.279072	 -0.600710
H	 -2.980796	 0.670874	 -0.070810
C	 -1.028569	 1.094183	 0.550119
H	 0.014752	 -2.198915	 -1.033112
N	 0.640204	 -0.530428	 -0.000115
H	 -1.255473	 2.031513	 1.014756
C	 0.366961	 0.683569	 0.606003
C	 2.006991	 -1.033007	 -0.000020
O	 1.230981	 1.331359	 1.131438
H	 2.182444	 -1.636914	 -0.880881
H	 2.678769	 -0.195442	 -0.002236
H	 2.183828	 -1.633244	 0.883082

	symmetry c1
}
set optking {
	frozen_dihedral = ("
		10 8 11 13
	")
}

ee,wfn = optimize('scf', return_wfn=True)
oeprop( wfn, 'DIPOLE', 'QUADRUPOLE', 'MULLIKEN_CHARGES')
f=open( 'psi4out.xyz', 'w' )
f.write( "15  " )
f.write( str(ee) + "\n" )
f.write( MOL.save_string_xyz() )
f.close()
--------------------------------------------------------------------------

    Molecular point group: c1
  Charge       = 0
  Multiplicity = 1
  Basis Set: CC-PVTZ
  Basis Set:
  @DF-RHF Final Energy:  -360.72272472006540
    Total Energy =                       -360.7227247200654574
    Molecular point group: c1
  Basis Set: CC-PVTZ
  Basis Set:
  Basis Set: CC-PVTZ
  Basis Set:
  @DF-RHF Final Energy:  -360.72295137000492
    Total Energy =                       -360.7229513700049210
  Basis Set: CC-PVTZ
  Basis Set:
  Basis Set: CC-PVTZ
  Basis Set:
  @DF-RHF Final Energy:  -360.72297268518219
    Total Energy =                       -360.7229726851819578
  Basis Set: CC-PVTZ
  Basis Set:
  Basis Set: CC-PVTZ
  Basis Set:
  @DF-RHF Final Energy:  -360.72298622319761
    Total Energy =                       -360.7229862231972675
  Basis Set: CC-PVTZ
  Basis Set:
  Charge       = 0
  Multiplicity = 1
  Basis Set: CC-PVTZ
  Basis Set:

    Orbital Energies (a.u.)
    -----------------------

    Doubly Occupied:

       1A    -20.501854     2A    -15.617171     3A    -11.338590
       4A    -11.293842     5A    -11.264747     6A    -11.258147
       7A    -11.230055     8A    -11.228059     9A     -1.390853
      10A     -1.285793    11A     -1.118799    12A     -1.029045
      13A     -0.972500    14A     -0.876109    15A     -0.838780
      16A     -0.719346    17A     -0.702479    18A     -0.663712
      19A     -0.653224    20A     -0.625724    21A     -0.611872
      22A     -0.574539    23A     -0.555392    24A     -0.550518
      25A     -0.530268    26A     -0.483787    27A     -0.420569
      28A     -0.410530    29A     -0.310511

  @DF-RHF Final Energy:  -360.72299562304107

   => Energetics <=

    Nuclear Repulsion Energy =            358.6422235584033729
    One-Electron Energy =               -1200.6168073833869130
    Two-Electron Energy =                 481.2515882019423543
    DFT Exchange-Correlation Energy =       0.0000000000000000
    Empirical Dispersion Energy =           0.0000000000000000
    PCM Polarization Energy =               0.0000000000000000
    EFP Energy =                            0.0000000000000000
    Total Energy =                       -360.7229956230411290
    Molecular point group: c1
  Basis Set: CC-PVTZ
  Basis Set:

  -Total Gradient:
     Atom            X                  Y                   Z
    ------   -----------------  -----------------  -----------------
       1       -0.000012013426     0.000000344235     0.000000556131
       2        0.000076724064    -0.000038258520     0.000010319236
       3       -0.000008896966     0.000067033974     0.000022353124
       4       -0.000123587060    -0.000003872786    -0.000070247928
       5       -0.000004125256    -0.000016369630    -0.000003793424
       6       -0.000082509943     0.000003754376     0.000005610527
       7        0.000014946011     0.000004176507     0.000017663390
       8       -0.000050856483    -0.000185991438     0.000955864898
       9        0.000011159116    -0.000005642587    -0.000004780310
      10        0.000091831118     0.000174312698    -0.000777947316
      11       -0.000250089734    -0.000762477482     0.000195355838
      12        0.000075387310     0.000061826749     0.000072664770
      13        0.000294801157     0.000697568485    -0.000429470485
      14       -0.000010502254    -0.000004579831    -0.000000855077
      15       -0.000022267650     0.000008175253     0.000006706628

  **** Optimization is complete! (in 5 steps) ****
    Final optimized geometry and variables:
    Molecular point group: c1

    Geometry (in Angstrom), charge = 0, multiplicity = 1:

    H           -2.333729305077    -1.484129793881    -1.262679891077
    C           -1.600917750177    -0.867552723875    -0.786482630168
    C           -1.945703605255     0.384111731045    -0.184630151920
    C           -0.320100793535    -1.245329576192    -0.742001603344
    H           -2.966285506597     0.717265920540    -0.209436736971
    C           -1.010484831780     1.136904715296     0.404028906285
    H            0.013613472728    -2.167048610458    -1.174552765622
    N            0.650305466694    -0.494657879435    -0.152897918055
    H           -1.231987267645     2.077165859366     0.865504414416
    C            0.379938836400     0.713383517511     0.464691724585
    C            2.021907342776    -0.981353433852    -0.133439447455
    O            1.251020901193     1.339717161178     1.004475354319
    H            2.202595569340    -1.572331264369    -1.019332085051
    H            2.691507418803    -0.139977777884    -0.121597391177
    H            2.207801132015    -1.582360839838     0.747651299024

  Mulliken Charges: (a.u.)
   Center  Symbol    Alpha    Beta     Spin     Total
       1     H     0.41390  0.41390  0.00000  0.17221
       2     C     3.10449  3.10449  0.00000 -0.20898
       3     C     3.06104  3.06104  0.00000 -0.12207
       4     C     3.03422  3.03422  0.00000 -0.06844
       5     H     0.41841  0.41841  0.00000  0.16319
       6     C     3.11790  3.11790  0.00000 -0.23581
       7     H     0.42126  0.42126  0.00000  0.15748
       8     N     3.51069  3.51069  0.00000 -0.02138
       9     H     0.40905  0.40905  0.00000  0.18190
      10     C     2.84520  2.84520  0.00000  0.30960
      11     C     3.09921  3.09921  0.00000 -0.19841
      12     O     4.23621  4.23621  0.00000 -0.47243
      13     H     0.45485  0.45485  0.00000  0.09031
      14     H     0.42744  0.42744  0.00000  0.14512
      15     H     0.44614  0.44614  0.00000  0.10771

   Total alpha = 29.00000, Total beta = 29.00000, Total charge =  0.00000

*** Psi4 exiting successfully. Buy a developer a beer!
