  ==> Input File <==

--------------------------------------------------------------------------
set {
	reference rhf
	basis 6-31G*
}

set_num_threads( 4 )
memory 2 gb

molecule MOL {
0 1

H	 3.463771	 0.168298	 -0.756243
C	 2.752674	 -0.045734	 0.033351
C	 1.322923	 0.120767	 -0.479465
H	 2.934561	 -1.059086	 0.377456
H	 2.958358	 0.631174	 0.856809
C	 0.306652	 -0.176050	 0.621399
H	 1.144658	 -0.551717	 -1.312180
H	 1.166477	 1.131798	 -0.836680
N	 -1.068537	 -0.011044	 0.085269
H	 0.372515	 -1.192590	 0.973735
H	 0.391664	 0.520566	 1.441230
O	 -1.918754	 0.334349	 0.846326
O	 -1.233873	 -0.267826	 -1.068313

	symmetry c1
}
set optking {
	frozen_dihedral = ("
		12 9 6 3
	")
}

ee = optimize('scf')
oeprop('DIPOLE', 'QUADRUPOLE', 'MULLIKEN_CHARGES')
f=open( 'psi4out.xyz', 'w' )
f.write( "13  " )
f.write( str(ee) + "\n" )
f.write( MOL.save_string_xyz() )
f.close()
--------------------------------------------------------------------------

    Molecular point group: c1
  Charge       = 0
  Multiplicity = 1
  Basis Set: 6-31G*
  Basis Set:
  @DF-RHF Final Energy:  -321.73397684987481
    Total Energy =                       -321.7339768498748640
    Molecular point group: c1
  Basis Set: 6-31G*
  Basis Set:
  Basis Set: 6-31G*
  Basis Set:
  @DF-RHF Final Energy:  -321.73361601372153
    Total Energy =                       -321.7336160137214733
  Basis Set: 6-31G*
  Basis Set:
  Basis Set: 6-31G*
  Basis Set:
  @DF-RHF Final Energy:  -321.73068147451363
    Total Energy =                       -321.7306814745136307
  Basis Set: 6-31G*
  Basis Set:
  Basis Set: 6-31G*
  Basis Set:
  @DF-RHF Final Energy:  -321.73411837109848
    Total Energy =                       -321.7341183710982477
  Basis Set: 6-31G*
  Basis Set:
  @DF-RHF Final Energy:  -321.72862249114473
    Total Energy =                       -321.7286224911445629
  @DF-RHF Final Energy:  -321.73508160008140
    Total Energy =                       -321.7350816000813438
  Basis Set: 6-31G*
  Basis Set:
  @DF-RHF Final Energy:  -321.73515970010612
    Total Energy =                       -321.7351597001058394
  Basis Set: 6-31G*
  Basis Set:
  Basis Set: 6-31G*
  Basis Set:
  @DF-RHF Final Energy:  -321.73516341047912
    Total Energy =                       -321.7351634104790037
  Basis Set: 6-31G*
  Basis Set:
  Basis Set: 6-31G*
  Basis Set:
  @DF-RHF Final Energy:  -321.73516837676317
    Total Energy =                       -321.7351683767631698
  Basis Set: 6-31G*
  Basis Set:
  Charge       = 0
  Multiplicity = 1
  Basis Set: 6-31G*
  Basis Set:

    Orbital Energies (a.u.)
    -----------------------

    Doubly Occupied:

       1A    -20.601936     2A    -20.600872     3A    -15.848467
       4A    -11.300731     5A    -11.251133     6A    -11.237946
       7A     -1.631812     8A     -1.417069     9A     -1.133298
      10A     -1.027593    11A     -0.884650    12A     -0.827378
      13A     -0.760575    14A     -0.744869    15A     -0.725443
      16A     -0.660517    17A     -0.606539    18A     -0.580258
      19A     -0.551759    20A     -0.522913    21A     -0.510419
      22A     -0.484518    23A     -0.473157    24A     -0.449356

  @DF-RHF Final Energy:  -321.73516855615276

   => Energetics <=

    Nuclear Repulsion Energy =            247.0589509318282069
    One-Electron Energy =                -927.9218223553373264
    Two-Electron Energy =                 359.1277028673561631
    DFT Exchange-Correlation Energy =       0.0000000000000000
    Empirical Dispersion Energy =           0.0000000000000000
    PCM Polarization Energy =               0.0000000000000000
    EFP Energy =                            0.0000000000000000
    Total Energy =                       -321.7351685561529280
    Molecular point group: c1
  Basis Set: 6-31G*
  Basis Set:

  -Total Gradient:
     Atom            X                  Y                   Z
    ------   -----------------  -----------------  -----------------
       1       -0.000000828180    -0.000002911687    -0.000001347020
       2        0.000001617073    -0.000005609381    -0.000004588259
       3        0.000011229575    -0.000220099086    -0.000058756617
       4       -0.000006367649     0.000003474387     0.000001789754
       5        0.000002619906     0.000004752809    -0.000002135149
       6       -0.000006212770     0.000196037801     0.000093697857
       7        0.000003610494     0.000000822301     0.000001911868
       8        0.000003452048     0.000006267637    -0.000000263723
       9        0.000049033621     0.000310109874    -0.000134929312
      10        0.000001097977    -0.000008057496     0.000013559983
      11       -0.000009475511     0.000003156350    -0.000006952207
      12       -0.000066008087    -0.000290536114     0.000096003754
      13        0.000016231504     0.000002592604     0.000002009069

  **** Optimization is complete! (in 10 steps) ****
    Final optimized geometry and variables:
    Molecular point group: c1

    Geometry (in Angstrom), charge = 0, multiplicity = 1:

    H            3.504719726222     0.172563615499    -0.739399165146
    C            2.773641380953    -0.030979825488     0.034528861548
    C            1.356691758548     0.119581058331    -0.520497655115
    H            2.951588304780    -1.038161275992     0.399561492238
    H            2.957747192231     0.658418725590     0.852847983151
    C            0.325400799292    -0.166142739441     0.559878463505
    H            1.203754342585    -0.555364781912    -1.351520678553
    H            1.211373862491     1.126466434162    -0.897699706115
    N           -1.076892588736    -0.002743204287     0.082618781809
    H            0.376426802455    -1.191781097760     0.904166159589
    H            0.412509307218     0.488299965881     1.412296573772
    O           -1.881682158805     0.337216869608     0.893913919885
    O           -1.313449456076    -0.255245388483    -1.058255285390

  Mulliken Charges: (a.u.)
   Center  Symbol    Alpha    Beta     Spin     Total
       1     H     0.40755  0.40755  0.00000  0.18491
       2     C     3.24971  3.24971  0.00000 -0.49942
       3     C     3.16791  3.16791  0.00000 -0.33582
       4     H     0.41621  0.41621  0.00000  0.16758
       5     H     0.41594  0.41594  0.00000  0.16811
       6     C     3.08862  3.08862  0.00000 -0.17725
       7     H     0.39552  0.39552  0.00000  0.20896
       8     H     0.40574  0.40574  0.00000  0.18852
       9     N     3.22311  3.22311  0.00000  0.55377
      10     H     0.38591  0.38591  0.00000  0.22817
      11     H     0.38598  0.38598  0.00000  0.22805
      12     O     4.22875  4.22875  0.00000 -0.45749
      13     O     4.22905  4.22905  0.00000 -0.45810

   Total alpha = 24.00000, Total beta = 24.00000, Total charge = -0.00000
