  ==> Input File <==

--------------------------------------------------------------------------
set {
	reference rhf
	basis 6-31G*
}

set_num_threads( 1 )
memory 2 gb

molecule MOL {
0 1

O	 -0.291628	 1.323815	 -0.000732
C	 -0.449655	 0.146360	 0.000961
C	 -1.783294	 -0.549321	 -0.000296
O	 0.550821	 -0.724572	 0.000672
H	 -1.863538	 -1.185371	 -0.874187
H	 -2.574672	 0.185258	 -0.002793
H	 -1.866414	 -1.182381	 0.875436
C	 1.851655	 -0.207755	 0.217496
H	 2.110864	 0.503377	 -0.553515
H	 2.515940	 -1.056999	 0.182031
H	 1.911991	 0.275444	 1.181976

	symmetry c1
}
set optking {
	frozen_dihedral = ("
		2 4 8 9
	")
}

ee = energy('scf')
oeprop('DIPOLE', 'QUADRUPOLE', 'MULLIKEN_CHARGES')
f=open( 'psi4out.xyz', 'w' )
f.write( "11  " )
f.write( str(ee) + "\n" )
f.write( MOL.save_string_xyz() )
f.close()
--------------------------------------------------------------------------

    Molecular point group: c1

    Geometry (in Angstrom), charge = 0, multiplicity = 1:

       Center              X                  Y                   Z               Mass
    ------------   -----------------  -----------------  -----------------  -----------------
           O         -0.289010993954     1.326836177010    -0.047090720294    15.994914619560
           C         -0.447037993954     0.149381177010    -0.045397720294    12.000000000000
           C         -1.780676993954    -0.546299822990    -0.046654720294    12.000000000000
           O          0.553438006046    -0.721550822990    -0.045686720294    15.994914619560
           H         -1.860920993954    -1.182349822990    -0.920545720294     1.007825032070
           H         -2.572054993954     0.188279177010    -0.049151720294     1.007825032070
           H         -1.863796993954    -1.179359822990     0.829077279706     1.007825032070
           C          1.854272006046    -0.204733822990     0.171137279706    12.000000000000
           H          2.113481006046     0.506398177010    -0.599873720294     1.007825032070
           H          2.518557006046    -1.053977822990     0.135672279706     1.007825032070
           H          1.914608006046     0.278465177010     1.135617279706     1.007825032070

  Charge       = 0
  Multiplicity = 1
  Basis Set: 6-31G*
  Basis Set:

    Orbital Energies (a.u.)
    -----------------------

    Doubly Occupied:

       1A    -20.605353     2A    -20.546742     3A    -11.376525
       4A    -11.282412     5A    -11.234760     6A     -1.471120
       7A     -1.364603     8A     -1.035833     9A     -0.953218
      10A     -0.778311    11A     -0.695838    12A     -0.681052
      13A     -0.677123    14A     -0.595516    15A     -0.592082
      16A     -0.561106    17A     -0.527792    18A     -0.520773
      19A     -0.457867    20A     -0.442233

  @DF-RHF Final Energy:  -266.83578617482772

   => Energetics <=

    Nuclear Repulsion Energy =            183.3205721380655859
    One-Electron Energy =                -727.5123020632333919
    Two-Electron Energy =                 277.3559437503404865
    DFT Exchange-Correlation Energy =       0.0000000000000000
    Empirical Dispersion Energy =           0.0000000000000000
    PCM Polarization Energy =               0.0000000000000000
    EFP Energy =                            0.0000000000000000
    Total Energy =                       -266.8357861748273194

  Mulliken Charges: (a.u.)
   Center  Symbol    Alpha    Beta     Spin     Total
       1     O     4.28144  4.28144  0.00000 -0.56288
       2     C     2.62253  2.62253  0.00000  0.75494
       3     C     3.28186  3.28186  0.00000 -0.56373
       4     O     4.29946  4.29946  0.00000 -0.59892
       5     H     0.39946  0.39946  0.00000  0.20108
       6     H     0.39665  0.39665  0.00000  0.20670
       7     H     0.40044  0.40044  0.00000  0.19912
       8     C     3.09279  3.09279  0.00000 -0.18559
       9     H     0.40633  0.40633  0.00000  0.18733
      10     H     0.40821  0.40821  0.00000  0.18358
      11     H     0.41082  0.41082  0.00000  0.17837

   Total alpha = 20.00000, Total beta = 20.00000, Total charge =  0.00000
