  ==> Input File <==

--------------------------------------------------------------------------
set {
	reference rhf
	basis cc-pvtz
}

set_num_threads( 4 )
memory 2 gb

molecule MOL {
0 1

O	 -2.440701	 -0.934798	 -0.415053
C	 -1.922978	 0.063265	 -0.045005
C	 -2.632749	 1.372204	 0.158357
O	 -0.637375	 0.157174	 0.243149
H	 -2.187724	 2.129143	 -0.474664
H	 -3.677681	 1.257276	 -0.079438
H	 -2.516788	 1.693160	 1.185542
C	 0.162530	 -1.009518	 0.097799
C	 1.587210	 -0.664190	 0.477086
H	 0.096803	 -1.356267	 -0.924704
H	 -0.233803	 -1.785900	 0.736810
C	 2.256770	 0.342732	 -0.454344
H	 2.154716	 -1.590834	 0.479041
H	 1.598751	 -0.289614	 1.496104
C	 3.771189	 0.173205	 -0.512731
H	 1.842521	 0.234243	 -1.453207
H	 2.016951	 1.348402	 -0.128830
H	 4.220006	 0.896720	 -1.183161
H	 4.043132	 -0.816578	 -0.864536
H	 4.217827	 0.308952	 0.466608

	symmetry c1
}
set optking {
	frozen_dihedral = ("
		16 12 9 8
	")
}

ee = optimize('scf')
oeprop('DIPOLE', 'QUADRUPOLE', 'MULLIKEN_CHARGES')
f=open( 'psi4out.xyz', 'w' )
f.write( "20  " )
f.write( str(ee) + "\n" )
f.write( MOL.save_string_xyz() )
f.close()
--------------------------------------------------------------------------

    Molecular point group: c1
  Charge       = 0
  Multiplicity = 1
  Basis Set: CC-PVTZ
  Basis Set:
  @DF-RHF Final Energy:  -384.08523225915616
    Total Energy =                       -384.0852322591566690
    Molecular point group: c1
  Basis Set: CC-PVTZ
  Basis Set:
  Basis Set: CC-PVTZ
  Basis Set:
  @DF-RHF Final Energy:  -384.08547419233582
    Total Energy =                       -384.0854741923360507
  Basis Set: CC-PVTZ
  Basis Set:
  Basis Set: CC-PVTZ
  Basis Set:
  @DF-RHF Final Energy:  -384.08532443285179
    Total Energy =                       -384.0853244328519622
  Basis Set: CC-PVTZ
  Basis Set:
  Basis Set: CC-PVTZ
  Basis Set:
  @DF-RHF Final Energy:  -384.08552222929359
    Total Energy =                       -384.0855222292939288
  Basis Set: CC-PVTZ
  Basis Set:
  Charge       = 0
  Multiplicity = 1
  Basis Set: CC-PVTZ
  Basis Set:

    Orbital Energies (a.u.)
    -----------------------

    Doubly Occupied:

       1A    -20.594050     2A    -20.532503     3A    -11.366435
       4A    -11.280246     5A    -11.231474     6A    -11.223508
       7A    -11.219248     8A    -11.212203     9A     -1.470777
      10A     -1.364892    11A     -1.086651    12A     -1.029039
      13A     -0.982577    14A     -0.881376    15A     -0.813807
      16A     -0.775173    17A     -0.692087    18A     -0.688540
      19A     -0.670026    20A     -0.631104    21A     -0.598999
      22A     -0.594604    23A     -0.572965    24A     -0.553203
      25A     -0.548569    26A     -0.532027    27A     -0.511146
      28A     -0.485998    29A     -0.475994    30A     -0.471364
      31A     -0.452082    32A     -0.441711

  @DF-RHF Final Energy:  -384.08552269648811

   => Energetics <=

    Nuclear Repulsion Energy =            385.5709380314357873
    One-Electron Energy =               -1287.3441630744996473
    Two-Electron Energy =                 517.6877023465758612
    DFT Exchange-Correlation Energy =       0.0000000000000000
    Empirical Dispersion Energy =           0.0000000000000000
    PCM Polarization Energy =               0.0000000000000000
    EFP Energy =                            0.0000000000000000
    Total Energy =                       -384.0855226964879421
    Molecular point group: c1
  Basis Set: CC-PVTZ
  Basis Set:

  -Total Gradient:
     Atom            X                  Y                   Z
    ------   -----------------  -----------------  -----------------
       1        0.000006134561    -0.000019667657     0.000022177803
       2        0.000045874553     0.000035257410    -0.000201570052
       3       -0.000004838486    -0.000017181203     0.000082490601
       4       -0.000044289536     0.000040759112    -0.000067196606
       5        0.000007556295    -0.000019094938    -0.000000601223
       6        0.000002817575    -0.000006761846     0.000007561504
       7       -0.000009841872     0.000021524488     0.000007124443
       8        0.000826246560    -0.002115974522    -0.001301748028
       9       -0.001815045428     0.003571566869     0.002374390135
      10       -0.000045609582     0.000042437122    -0.000083084678
      11        0.000066518230    -0.000005183864    -0.000065154386
      12        0.003685854101    -0.003976157094    -0.001670344646
      13        0.000083557129    -0.000011534268    -0.000015376150
      14       -0.000022939079     0.000046919423    -0.000056311115
      15       -0.000017473067    -0.000103477453    -0.000024377813
      16       -0.002675994762     0.002490457773     0.000957758493
      17       -0.000032876946     0.000031680035     0.000045288651
      18       -0.000036286852    -0.000000519168    -0.000009328251
      19        0.000025079687    -0.000012006582     0.000010195555
      20       -0.000044443081     0.000006956361    -0.000011894239

  **** Optimization is complete! (in 5 steps) ****
    Final optimized geometry and variables:
    Molecular point group: c1

    Geometry (in Angstrom), charge = 0, multiplicity = 1:

    O           -2.449541183592    -0.865925753447    -0.354797125001
    C           -1.923485344398     0.129800664301     0.009856819227
    C           -2.618829599633     1.449302708887     0.191301044984
    O           -0.639823647571     0.210407946412     0.309875160667
    H           -2.157272085325     2.193222605971    -0.445214882325
    H           -3.662626121571     1.344915257722    -0.056195826260
    H           -2.509344942653     1.779932459780     1.216079479168
    C            0.145911884497    -0.969039453481     0.187071302643
    C            1.578295370847    -0.630493387987     0.537812478756
    H            0.068447104522    -1.338600480065    -0.826264803072
    H           -0.252075200634    -1.725647716457     0.848491806723
    C            2.229757675214     0.393865316849    -0.396506129451
    H            2.131962554588    -1.564861859958     0.492884746411
    H            1.632007145892    -0.289360126531     1.566047713747
    C            3.746555370820     0.265454005690    -0.462303367328
    H            1.797780878952     0.307447084767    -1.389179969067
    H            1.968579441409     1.392057252435    -0.061952275019
    H            4.177253831459     1.031048432855    -1.096934531281
    H            4.042361932323    -0.700073702684    -0.858673542733
    H            4.189177090580     0.366312044952     0.523334578595

  Mulliken Charges: (a.u.)
   Center  Symbol    Alpha    Beta     Spin     Total
       1     O     4.19752  4.19752  0.00000 -0.39505
       2     C     2.80931  2.80931  0.00000  0.38137
       3     C     3.13820  3.13820  0.00000 -0.27641
       4     O     4.15385  4.15385  0.00000 -0.30769
       5     H     0.44596  0.44596  0.00000  0.10807
       6     H     0.43796  0.43796  0.00000  0.12408
       7     H     0.44574  0.44574  0.00000  0.10853
       8     C     2.99307  2.99307  0.00000  0.01387
       9     C     3.08578  3.08578  0.00000 -0.17156
      10     H     0.45124  0.45124  0.00000  0.09753
      11     H     0.44494  0.44494  0.00000  0.11012
      12     C     3.08343  3.08343  0.00000 -0.16685
      13     H     0.45387  0.45387  0.00000  0.09226
      14     H     0.44966  0.44966  0.00000  0.10068
      15     C     3.14893  3.14893  0.00000 -0.29786
      16     H     0.45435  0.45435  0.00000  0.09131
      17     H     0.44875  0.44875  0.00000  0.10251
      18     H     0.44777  0.44777  0.00000  0.10446
      19     H     0.45546  0.45546  0.00000  0.08908
      20     H     0.45423  0.45423  0.00000  0.09154

   Total alpha = 32.00000, Total beta = 32.00000, Total charge = -0.00000
