                              Psi4 1.0.54 Driver

  ==> Input File <==

--------------------------------------------------------------------------
set {
	reference rhf
	basis cc-pvtz
}

set_num_threads( 4 )
memory 2 gb

molecule MOL {
0 1

H	 -3.680713	 0.142070	 -1.719463
C	 -2.987901	 -0.507343	 -1.224910
C	 -2.105997	 -0.000418	 -0.398703
H	 -3.036258	 -1.560793	 -1.419081
O	 -1.189946	 -0.765863	 0.237511
H	 -2.054186	 1.052689	 -0.190355
C	 0.026572	 -0.995256	 -0.379403
C	 1.057223	 0.049888	 -0.004615
H	 -0.054361	 -1.010670	 -1.459674
H	 0.397526	 -1.952058	 -0.044198
F	 2.203233	 -0.234060	 -0.590375
F	 0.698147	 1.254887	 -0.392621
F	 1.266440	 0.094219	 1.288722

	symmetry c1
}
set optking {
	frozen_dihedral = ("
		6 3 5 7
	")
}

ee,wfn = optimize('scf', return_wfn=True)
oeprop( wfn, 'DIPOLE', 'QUADRUPOLE', 'MULLIKEN_CHARGES')
f=open( 'psi4out.xyz', 'w' )
f.write( "13  " )
f.write( str(ee) + "\n" )
f.write( MOL.save_string_xyz() )
f.close()
--------------------------------------------------------------------------

    Molecular point group: c1
  Charge       = 0
  Multiplicity = 1
  Basis Set: CC-PVTZ
  Basis Set:
  @DF-RHF Final Energy:  -527.73791140585615
    Total Energy =                       -527.7379114058558116
    Molecular point group: c1
  Basis Set: CC-PVTZ
  Basis Set:
  Basis Set: CC-PVTZ
  Basis Set:
  @DF-RHF Final Energy:  -527.73814906261100
    Total Energy =                       -527.7381490626107734
  Basis Set: CC-PVTZ
  Basis Set:
  Basis Set: CC-PVTZ
  Basis Set:
  @DF-RHF Final Energy:  -527.73836128601909
    Total Energy =                       -527.7383612860190851
  Basis Set: CC-PVTZ
  Basis Set:
  Basis Set: CC-PVTZ
  Basis Set:
  @DF-RHF Final Energy:  -527.73836862323310
    Total Energy =                       -527.7383686232337823
  Basis Set: CC-PVTZ
  Basis Set:
  Charge       = 0
  Multiplicity = 1
  Basis Set: CC-PVTZ
  Basis Set:

    Orbital Energies (a.u.)
    -----------------------

    Doubly Occupied:

       1A    -26.339292     2A    -26.338589     3A    -26.335601
       4A    -20.592664     5A    -11.494675     6A    -11.314714
       7A    -11.295014     8A    -11.227922     9A     -1.747838
      10A     -1.644547    11A     -1.642679    12A     -1.431298
      13A     -1.082755    14A     -1.023250    15A     -0.931727
      16A     -0.840226    17A     -0.836984    18A     -0.833056
      19A     -0.772144    20A     -0.724576    21A     -0.719752
      22A     -0.708218    23A     -0.679640    24A     -0.664640
      25A     -0.656794    26A     -0.649006    27A     -0.648428
      28A     -0.597074    29A     -0.569364    30A     -0.531335
      31A     -0.467684    32A     -0.383329

  @DF-RHF Final Energy:  -527.73836946345909

   => Energetics <=

    Nuclear Repulsion Energy =            413.4977574951688553
    One-Electron Energy =               -1551.0226292292163635
    Two-Electron Energy =                 609.7865022705883575
    DFT Exchange-Correlation Energy =       0.0000000000000000
    Empirical Dispersion Energy =           0.0000000000000000
    PCM Polarization Energy =               0.0000000000000000
    EFP Energy =                            0.0000000000000000
    Total Energy =                       -527.7383694634592075
    Molecular point group: c1
  Basis Set: CC-PVTZ
  Basis Set:

  -Total Gradient:
     Atom            X                  Y                   Z
    ------   -----------------  -----------------  -----------------
       1        0.000016754772    -0.000018737110     0.000006921711
       2        0.000028196514     0.000005848250     0.000029151373
       3        0.000830292718    -0.000250400473    -0.001460007086
       4       -0.000020788349     0.000011612438    -0.000016011981
       5        0.000211903049     0.001188600473     0.000955577110
       6       -0.000785297480    -0.000135194800     0.000932531325
       7       -0.000313993877    -0.000828691657    -0.000453121102
       8       -0.000022262539     0.000010922360    -0.000008627909
       9       -0.000007768103     0.000013093036     0.000018880731
      10        0.000013387493     0.000004589731    -0.000005183862
      11        0.000022888678    -0.000007798200    -0.000019471456
      12        0.000042573825    -0.000000398437     0.000018381854
      13       -0.000015886696     0.000006554387     0.000000979297

  **** Optimization is complete! (in 5 steps) ****
    Final optimized geometry and variables:
    Molecular point group: c1

    Geometry (in Angstrom), charge = 0, multiplicity = 1:

    H           -3.764646676805     0.233285779581    -1.540618540122
    C           -3.046697347417    -0.410751181239    -1.073345763484
    C           -2.128077915341     0.095307108368    -0.288351189991
    H           -3.111351920351    -1.466182385556    -1.257280032589
    O           -1.218406082893    -0.678077388144     0.373090184179
    H           -2.066534391379     1.145282878263    -0.070987511962
    C            0.011587396859    -0.905336433957    -0.230820998233
    C            1.033729794530     0.142580275160     0.156674836023
    H           -0.062533316832    -0.921932248725    -1.310346637830
    H            0.382353746348    -1.858838039741     0.115071036964
    F            2.185786823201    -0.126413827779    -0.423536947074
    F            0.669983397802     1.351347472973    -0.220638566790
    F            1.235730668260     0.179132875946     1.452587433901

  Mulliken Charges: (a.u.)
   Center  Symbol    Alpha    Beta     Spin     Total
       1     H     0.42329  0.42329  0.00000  0.15342
       2     C     3.17673  3.17673  0.00000 -0.35347
       3     C     2.97967  2.97967  0.00000  0.04066
       4     H     0.42153  0.42153  0.00000  0.15693
       5     O     4.16840  4.16840  0.00000 -0.33680
       6     H     0.42133  0.42133  0.00000  0.15735
       7     C     3.00124  3.00124  0.00000 -0.00248
       8     C     2.67669  2.67669  0.00000  0.64661
       9     H     0.45711  0.45711  0.00000  0.08578
      10     H     0.44046  0.44046  0.00000  0.11908
      11     F     4.61237  4.61237  0.00000 -0.22474
      12     F     4.61290  4.61290  0.00000 -0.22580
      13     F     4.60828  4.60828  0.00000 -0.21655

   Total alpha = 32.00000, Total beta = 32.00000, Total charge =  0.00000

*** Psi4 exiting successfully. Buy a developer a beer!
