  ==> Input File <==

--------------------------------------------------------------------------
set {
	reference rhf
	basis 6-31G*
}

set_num_threads( 4 )
memory 2 gb

molecule MOL {
0 1

H	 -2.131526	 -1.202760	 -0.054616
O	 -2.347518	 -0.290803	 0.079804
C	 -1.184022	 0.487508	 -0.006784
C	 0.062599	 -0.378592	 0.031606
H	 -1.176523	 1.099369	 -0.904519
H	 -1.187323	 1.153111	 0.844927
O	 1.171513	 0.459272	 -0.058250
H	 0.050699	 -1.089204	 -0.797170
H	 0.078739	 -0.954914	 0.954740
C	 2.397842	 -0.198080	 -0.002151
H	 2.508049	 -0.905315	 -0.822092
H	 3.173794	 0.550865	 -0.078850
H	 2.517602	 -0.735921	 0.936026

	symmetry c1
}
set optking {
	frozen_dihedral = ("
		1 2 3 5
	")
}

ee = optimize('scf')
oeprop('DIPOLE', 'QUADRUPOLE', 'MULLIKEN_CHARGES')
f=open( 'psi4out.xyz', 'w' )
f.write( "13  " )
f.write( str(ee) + "\n" )
f.write( MOL.save_string_xyz() )
f.close()
--------------------------------------------------------------------------

    Molecular point group: c1
  Charge       = 0
  Multiplicity = 1
  Basis Set: 6-31G*
  Basis Set:
  @DF-RHF Final Energy:  -267.94623252410679
    Total Energy =                       -267.9462325241069038
    Molecular point group: c1
  Basis Set: 6-31G*
  Basis Set:
  Basis Set: 6-31G*
  Basis Set:
  @DF-RHF Final Energy:  -267.94650243062739
    Total Energy =                       -267.9465024306273335
  Basis Set: 6-31G*
  Basis Set:
  Basis Set: 6-31G*
  Basis Set:
  @DF-RHF Final Energy:  -267.94657273425690
    Total Energy =                       -267.9465727342569039
  Basis Set: 6-31G*
  Basis Set:
  Charge       = 0
  Multiplicity = 1
  Basis Set: 6-31G*
  Basis Set:

    Orbital Energies (a.u.)
    -----------------------

    Doubly Occupied:

       1A    -20.568599     2A    -20.557081     3A    -11.280960
       4A    -11.274712     5A    -11.268379     6A     -1.395050
       7A     -1.362514     8A     -1.022685     9A     -0.916403
      10A     -0.852216    11A     -0.694784    12A     -0.686800
      13A     -0.671023    14A     -0.624924    15A     -0.608785
      16A     -0.578343    17A     -0.546910    18A     -0.498676
      19A     -0.472169    20A     -0.439217    21A     -0.427952

  @DF-RHF Final Energy:  -267.94657367858576

   => Energetics <=

    Nuclear Repulsion Energy =            190.3811205965566273
    One-Electron Energy =                -743.1590267890267114
    Two-Electron Energy =                 284.8313325138846039
    DFT Exchange-Correlation Energy =       0.0000000000000000
    Empirical Dispersion Energy =           0.0000000000000000
    PCM Polarization Energy =               0.0000000000000000
    EFP Energy =                            0.0000000000000000
    Total Energy =                       -267.9465736785854233
    Molecular point group: c1
  Basis Set: 6-31G*
  Basis Set:

  -Total Gradient:
     Atom            X                  Y                   Z
    ------   -----------------  -----------------  -----------------
       1        0.000233662980    -0.000182211640     0.001742483185
       2       -0.000545319816     0.000481352627    -0.001984778297
       3        0.000991741596    -0.001473891296    -0.000497608583
       4       -0.000082319003     0.000016034848     0.000036132386
       5       -0.000682950616     0.001134585649     0.000749587901
       6        0.000015714296    -0.000010532848    -0.000002338581
       7        0.000046015008    -0.000023177646    -0.000018585392
       8        0.000013000502     0.000017676117     0.000009885520
       9       -0.000025482889     0.000006542346    -0.000010456009
      10       -0.000001562255     0.000062741604    -0.000028993695
      11        0.000015117361    -0.000008163616     0.000005204985
      12        0.000033042725    -0.000019557333    -0.000000012834
      13       -0.000010659882    -0.000001398813    -0.000000520587

  **** Optimization is complete! (in 4 steps) ****
    Final optimized geometry and variables:
    Molecular point group: c1

    Geometry (in Angstrom), charge = 0, multiplicity = 1:

    H           -2.181424865784    -1.197241425973    -0.065442923337
    O           -2.364308900547    -0.277572665598     0.059401270355
    C           -1.186328187256     0.485632882210    -0.017075126577
    C            0.063831259109    -0.374145697445     0.026021709324
    H           -1.189602891893     1.079211416839    -0.924763879299
    H           -1.173074771730     1.170857222223     0.821308802379
    O            1.168763021448     0.465712099147    -0.052696798997
    H            0.058950945534    -1.080837443539    -0.806570784126
    H            0.081192486803    -0.953641623978     0.949663516020
    C            2.397480024541    -0.190470193868    -0.014409116294
    H            2.504128861484    -0.881949594043    -0.847767378221
    H            3.170345149411     0.562158004855    -0.081643218213
    H            2.522660470353    -0.744028737906     0.913852490155

  Mulliken Charges: (a.u.)
   Center  Symbol    Alpha    Beta     Spin     Total
       1     H     0.28015  0.28015  0.00000  0.43971
       2     O     4.37847  4.37847  0.00000 -0.75694
       3     C     2.98167  2.98167  0.00000  0.03665
       4     C     3.01527  3.01527  0.00000 -0.03054
       5     H     0.41845  0.41845  0.00000  0.16311
       6     H     0.41453  0.41453  0.00000  0.17095
       7     O     4.30485  4.30485  0.00000 -0.60969
       8     H     0.43306  0.43306  0.00000  0.13388
       9     H     0.42762  0.42762  0.00000  0.14476
      10     C     3.08156  3.08156  0.00000 -0.16312
      11     H     0.42798  0.42798  0.00000  0.14404
      12     H     0.40885  0.40885  0.00000  0.18230
      13     H     0.42755  0.42755  0.00000  0.14490

   Total alpha = 21.00000, Total beta = 21.00000, Total charge = -0.00000
