                              Psi4 1.0.54 Driver

  ==> Input File <==

--------------------------------------------------------------------------
set {
	reference rhf
	basis cc-pvtz
}

set_num_threads( 4 )
memory 2 gb

molecule MOL {
0 1

H	 -2.424638	 -2.090314	 -2.586251
O	 -2.428969	 -1.599911	 -1.785201
C	 -1.127467	 -1.183937	 -1.466648
C	 -1.175688	 -0.398187	 -0.171891
H	 -0.469912	 -2.043443	 -1.354202
H	 -0.721016	 -0.562607	 -2.261995
C	 0.196029	 0.106276	 0.266738
H	 -1.603447	 -1.031644	 0.598806
H	 -1.856439	 0.437045	 -0.301819
C	 1.330220	 -0.826136	 -0.155230
H	 0.359542	 1.097229	 -0.145561
H	 0.212134	 0.218135	 1.348778
C	 2.719700	 -0.407669	 0.328325
H	 1.339388	 -0.911200	 -1.239363
H	 1.119001	 -1.821953	 0.224128
C	 3.241564	 0.893452	 -0.276737
H	 3.418299	 -1.204729	 0.093035
H	 2.711776	 -0.323368	 1.411960
H	 3.254204	 0.841071	 -1.360784
H	 2.634460	 1.745075	 0.005842
H	 4.254264	 1.092401	 0.054971

	symmetry c1
}
set optking {
	frozen_dihedral = ("
		8 4 7 10
	")
}

ee,wfn = optimize('scf', return_wfn=True)
oeprop( wfn, 'DIPOLE', 'QUADRUPOLE', 'MULLIKEN_CHARGES')
f=open( 'psi4out.xyz', 'w' )
f.write( "21  " )
f.write( str(ee) + "\n" )
f.write( MOL.save_string_xyz() )
f.close()
--------------------------------------------------------------------------

    Molecular point group: c1
  Charge       = 0
  Multiplicity = 1
  Basis Set: CC-PVTZ
  Basis Set:
  @DF-RHF Final Energy:  -310.32456023871651
    Total Energy =                       -310.3245602387161739
    Molecular point group: c1
  Basis Set: CC-PVTZ
  Basis Set:
  Basis Set: CC-PVTZ
  Basis Set:
  @DF-RHF Final Energy:  -310.12911864777698
    Total Energy =                       -310.1291186477770907
  Basis Set: CC-PVTZ
  Basis Set:
  Basis Set: CC-PVTZ
  Basis Set:
  @DF-RHF Final Energy:  -310.25381648971796
    Total Energy =                       -310.2538164897179058
  Basis Set: CC-PVTZ
  Basis Set:
  Basis Set: CC-PVTZ
  Basis Set:
  @DF-RHF Final Energy:  -310.32043803939285
    Total Energy =                       -310.3204380393931388
  Basis Set: CC-PVTZ
  Basis Set:
  @DF-RHF Final Energy:  -310.32632154603567
    Total Energy =                       -310.3263215460360129
  @DF-RHF Final Energy:  -310.32740002667833
    Total Energy =                       -310.3274000266784469
  Basis Set: CC-PVTZ
  Basis Set:
  @DF-RHF Final Energy:  -310.32749103194499
    Total Energy =                       -310.3274910319452715
  Basis Set: CC-PVTZ
  Basis Set:
  Basis Set: CC-PVTZ
  Basis Set:
  @DF-RHF Final Energy:  -310.32746558694657
    Total Energy =                       -310.3274655869464596
  Basis Set: CC-PVTZ
  Basis Set:
  Basis Set: CC-PVTZ
  Basis Set:
  @DF-RHF Final Energy:  -310.32751183398693
    Total Energy =                       -310.3275118339869323
  Basis Set: CC-PVTZ
  Basis Set:
  Charge       = 0
  Multiplicity = 1
  Basis Set: CC-PVTZ
  Basis Set:

    Orbital Energies (a.u.)
    -----------------------

    Doubly Occupied:

       1A    -20.545142     2A    -11.264866     3A    -11.214365
       4A    -11.213526     5A    -11.212924     6A    -11.208934
       7A    -11.206872     8A     -1.362991     9A     -1.086812
      10A     -1.032007    11A     -0.952092    12A     -0.886972
      13A     -0.815925    14A     -0.764673    15A     -0.699244
      16A     -0.658912    17A     -0.621327    18A     -0.608638
      19A     -0.594543    20A     -0.562342    21A     -0.546779
      22A     -0.519186    23A     -0.516291    24A     -0.493935
      25A     -0.479734    26A     -0.458252    27A     -0.451921
      28A     -0.446165    29A     -0.432106

  @DF-RHF Final Energy:  -310.32751197839764

   => Energetics <=

    Nuclear Repulsion Energy =            317.5003330430209871
    One-Electron Energy =               -1049.9407337063553314
    Two-Electron Energy =                 422.1128886849371611
    DFT Exchange-Correlation Energy =       0.0000000000000000
    Empirical Dispersion Energy =           0.0000000000000000
    PCM Polarization Energy =               0.0000000000000000
    EFP Energy =                            0.0000000000000000
    Total Energy =                       -310.3275119783971832
    Molecular point group: c1
  Basis Set: CC-PVTZ
  Basis Set:

  -Total Gradient:
     Atom            X                  Y                   Z
    ------   -----------------  -----------------  -----------------
       1        0.000001805158     0.000009356428    -0.000004258373
       2       -0.000013290260    -0.000009939551     0.000011732543
       3        0.000027186932     0.000007854291    -0.000006682682
       4        0.004343974113    -0.005452917279    -0.003590991395
       5       -0.000002167768     0.000000263071     0.000002640847
       6       -0.000003247453    -0.000004476094     0.000007553809
       7       -0.000156130849    -0.000086193353     0.006629580835
       8       -0.003685027038     0.004670986662     0.001346001127
       9        0.000007251322    -0.000000054432     0.000002973586
      10       -0.000525290026     0.000862865225    -0.004395966983
      11        0.000002604823    -0.000002470790     0.000001365827
      12       -0.000003225807    -0.000004875686    -0.000004065647
      13        0.000005667769     0.000000772225     0.000006828513
      14        0.000006729552     0.000003806904     0.000005448014
      15       -0.000007135792    -0.000001350307    -0.000003932065
      16       -0.000000663764     0.000004837822    -0.000000615017
      17       -0.000006408336     0.000003391474    -0.000002586908
      18        0.000001775107    -0.000002946732    -0.000001582721
      19        0.000004034988     0.000000948881    -0.000000305349
      20        0.000004481378    -0.000003536780    -0.000001041730
      21       -0.000002924053     0.000003678024    -0.000002096230

  **** Optimization is complete! (in 10 steps) ****
    Final optimized geometry and variables:
    Molecular point group: c1

    Geometry (in Angstrom), charge = 0, multiplicity = 1:

    H           -2.600853811087    -2.725405070239    -1.129490866402
    O           -2.605647381885    -2.014661116772    -0.515560457884
    C           -1.368679015406    -1.351196478049    -0.537771341697
    C           -1.416238193952    -0.249870694689     0.502261518651
    H           -0.564634994523    -2.049246522605    -0.326994029880
    H           -1.185295572026    -0.925059495031    -1.522350805121
    C           -0.202742283990     0.693937080898     0.545901545144
    H           -1.599777296252    -0.677732905037     1.482429266343
    H           -2.301153146726     0.343287057653     0.295070462433
    C            1.155819612715     0.050135493403     0.260278849037
    H           -0.362713831805     1.487743564818    -0.176341229548
    H           -0.175443559788     1.174678891461     1.518389933774
    C            2.347630782471     0.990144235445     0.455448523285
    H            1.175544331692    -0.333944193603    -0.755316831135
    H            1.290718758546    -0.807916176267     0.913893215083
    C            2.406411056262     2.161372967419    -0.522486830960
    H            3.260179939566     0.410212128674     0.356845500066
    H            2.339946373103     1.370900663286     1.473262389693
    H            2.402641706480     1.811510608574    -1.550054448112
    H            1.568089439114     2.836137163933    -0.399910163883
    H            3.312108391676     2.738480649317    -0.375142611034

  Mulliken Charges: (a.u.)
   Center  Symbol    Alpha    Beta     Spin     Total
       1     H     0.39749  0.39749  0.00000  0.20501
       2     O     4.19538  4.19538  0.00000 -0.39076
       3     C     2.96634  2.96634  0.00000  0.06732
       4     C     3.08947  3.08947  0.00000 -0.17893
       5     H     0.47080  0.47080  0.00000  0.05839
       6     H     0.47289  0.47289  0.00000  0.05422
       7     C     3.10801  3.10801  0.00000 -0.21603
       8     H     0.44921  0.44921  0.00000  0.10158
       9     H     0.44828  0.44828  0.00000  0.10343
      10     C     3.10259  3.10259  0.00000 -0.20518
      11     H     0.45101  0.45101  0.00000  0.09798
      12     H     0.44799  0.44799  0.00000  0.10401
      13     C     3.09039  3.09039  0.00000 -0.18079
      14     H     0.45247  0.45247  0.00000  0.09507
      15     H     0.44769  0.44769  0.00000  0.10462
      16     C     3.15282  3.15282  0.00000 -0.30564
      17     H     0.44841  0.44841  0.00000  0.10319
      18     H     0.45431  0.45431  0.00000  0.09137
      19     H     0.45557  0.45557  0.00000  0.08886
      20     H     0.45278  0.45278  0.00000  0.09445
      21     H     0.44608  0.44608  0.00000  0.10783

   Total alpha = 29.00000, Total beta = 29.00000, Total charge = -0.00000

*** Psi4 exiting successfully. Buy a developer a beer!
