  ==> Input File <==

--------------------------------------------------------------------------
set {
	reference rhf
	basis 6-31G*
}

set_num_threads( 1 )
memory 2 gb

molecule MOL {
0 1

H	 2.475290	 0.410177	 -1.145952
O	 1.617857	 0.000085	 -1.204439
C	 1.050492	 0.053836	 0.000068
C	 -0.318135	 -0.576402	 0.000164
O	 1.593911	 0.548170	 0.933516
C	 -1.454360	 0.441875	 -0.000474
H	 -0.374042	 -1.230163	 -0.866135
H	 -0.374274	 -1.229227	 0.867154
C	 -2.826123	 -0.230780	 0.000056
H	 -1.357605	 1.085198	 -0.868380
H	 -1.357504	 1.086451	 0.866496
H	 -2.959731	 -0.858053	 -0.876869
H	 -3.619374	 0.509403	 -0.000080
H	 -2.959371	 -0.857318	 0.877556

	symmetry c1
}
set optking {
	frozen_dihedral = ("
		7 4 6 10,
		1 2 3 5
	")
}

ee = energy('scf')
oeprop('DIPOLE', 'QUADRUPOLE', 'MULLIKEN_CHARGES')
f=open( 'psi4out.xyz', 'w' )
f.write( "14  " )
f.write( str(ee) + "\n" )
f.write( MOL.save_string_xyz() )
f.close()
--------------------------------------------------------------------------

    Molecular point group: c1

    Geometry (in Angstrom), charge = 0, multiplicity = 1:

       Center              X                  Y                   Z               Mass
    ------------   -----------------  -----------------  -----------------  -----------------
           H          2.495897485122     0.365435142624    -1.083593682178     1.007825032070
           O          1.638464485122    -0.044656857376    -1.142080682178    15.994914619560
           C          1.071099485122     0.009094142624     0.062426317822    12.000000000000
           C         -0.297527514878    -0.621143857376     0.062522317822    12.000000000000
           O          1.614518485122     0.503428142624     0.995874317822    15.994914619560
           C         -1.433752514878     0.397133142624     0.061884317822    12.000000000000
           H         -0.353434514878    -1.274904857376    -0.803776682178     1.007825032070
           H         -0.353666514878    -1.273968857376     0.929512317822     1.007825032070
           C         -2.805515514878    -0.275521857376     0.062414317822    12.000000000000
           H         -1.336997514878     1.040456142624    -0.806021682178     1.007825032070
           H         -1.336896514878     1.041709142624     0.928854317822     1.007825032070
           H         -2.939123514878    -0.902794857376    -0.814510682178     1.007825032070
           H         -3.598766514878     0.464661142624     0.062278317822     1.007825032070
           H         -2.938763514878    -0.902059857376     0.939914317822     1.007825032070

  Charge       = 0
  Multiplicity = 1
  Basis Set: 6-31G*
  Basis Set:

    Orbital Energies (a.u.)
    -----------------------

    Doubly Occupied:

       1A    -20.613717     2A    -20.549779     3A    -11.380589
       4A    -11.239118     5A    -11.235438     6A    -11.221440
       7A     -1.474471     8A     -1.364863     9A     -1.086977
      10A     -0.980395    11A     -0.855583    12A     -0.804929
      13A     -0.702386    14A     -0.685308    15A     -0.644331
      16A     -0.632492    17A     -0.594763    18A     -0.569921
      19A     -0.549291    20A     -0.516789    21A     -0.499934
      22A     -0.487833    23A     -0.471934    24A     -0.439302

  @DF-RHF Final Energy:  -305.87830381560451

   => Energetics <=

    Nuclear Repulsion Energy =            239.8503435847218839
    One-Electron Energy =                -892.2540986205635818
    Two-Electron Energy =                 346.5254512202368460
    DFT Exchange-Correlation Energy =       0.0000000000000000
    Empirical Dispersion Energy =           0.0000000000000000
    PCM Polarization Energy =               0.0000000000000000
    EFP Energy =                            0.0000000000000000
    Total Energy =                       -305.8783038156047951

  Mulliken Charges: (a.u.)
   Center  Symbol    Alpha    Beta     Spin     Total
       1     H     0.26849  0.26849  0.00000  0.46302
       2     O     4.34705  4.34705  0.00000 -0.69410
       3     C     2.63152  2.63152  0.00000  0.73696
       4     C     3.20093  3.20093  0.00000 -0.40186
       5     O     4.27840  4.27840  0.00000 -0.55680
       6     C     3.16233  3.16233  0.00000 -0.32467
       7     H     0.40102  0.40102  0.00000  0.19796
       8     H     0.39980  0.39980  0.00000  0.20041
       9     C     3.24206  3.24206  0.00000 -0.48412
      10     H     0.41225  0.41225  0.00000  0.17551
      11     H     0.40580  0.40580  0.00000  0.18839
      12     H     0.41844  0.41844  0.00000  0.16312
      13     H     0.41418  0.41418  0.00000  0.17165
      14     H     0.41774  0.41774  0.00000  0.16452

   Total alpha = 24.00000, Total beta = 24.00000, Total charge = -0.00000
