                              Psi4 1.0.54 Driver

  ==> Input File <==

--------------------------------------------------------------------------
set {
	reference rhf
	basis cc-pvtz
}

set_num_threads( 4 )
memory 2 gb

molecule MOL {
0 1

H	 -2.644180	 -0.653737	 1.272255
C	 -2.092774	 -0.380414	 0.391915
O	 -0.808934	 -0.154049	 0.752536
F	 -2.163230	 -1.351640	 -0.507133
F	 -2.627232	 0.691260	 -0.169301
C	 0.085006	 0.250800	 -0.215074
C	 1.370439	 -0.548013	 -0.012993
Cl	 0.421658	 1.987697	 -0.091007
H	 -0.272219	 0.063284	 -1.212508
F	 2.065368	 -0.054239	 0.980125
F	 2.101247	 -0.463014	 -1.099275
F	 1.136978	 -1.809307	 0.225515

	symmetry c1
}
set optking {
	frozen_dihedral = ("
		10 7 6 9
	")
}

ee,wfn = optimize('scf', return_wfn=True)
oeprop( wfn, 'DIPOLE', 'QUADRUPOLE', 'MULLIKEN_CHARGES')
f=open( 'psi4out.xyz', 'w' )
f.write( "12  " )
f.write( str(ee) + "\n" )
f.write( MOL.save_string_xyz() )
f.close()
--------------------------------------------------------------------------

    Molecular point group: c1
  Charge       = 0
  Multiplicity = 1
  Basis Set: CC-PVTZ
  Basis Set:
  @DF-RHF Final Energy: -1146.61766554691735
    Total Energy =                      -1146.6176655469171237
    Molecular point group: c1
  Basis Set: CC-PVTZ
  Basis Set:
  Basis Set: CC-PVTZ
  Basis Set:
  @DF-RHF Final Energy: -1146.61830960744192
    Total Energy =                      -1146.6183096074416881
  Basis Set: CC-PVTZ
  Basis Set:
  Basis Set: CC-PVTZ
  Basis Set:
  @DF-RHF Final Energy: -1146.61855786326851
    Total Energy =                      -1146.6185578632680517
  Basis Set: CC-PVTZ
  Basis Set:
  Basis Set: CC-PVTZ
  Basis Set:
  @DF-RHF Final Energy: -1146.61858133835267
    Total Energy =                      -1146.6185813383526693
  Basis Set: CC-PVTZ
  Basis Set:
  Basis Set: CC-PVTZ
  Basis Set:
  @DF-RHF Final Energy: -1146.61858479634907
    Total Energy =                      -1146.6185847963488413
  Basis Set: CC-PVTZ
  Basis Set:
  Basis Set: CC-PVTZ
  Basis Set:
  @DF-RHF Final Energy: -1146.61858616610721
    Total Energy =                      -1146.6185861661078889
  Basis Set: CC-PVTZ
  Basis Set:
  Charge       = 0
  Multiplicity = 1
  Basis Set: CC-PVTZ
  Basis Set:

    Orbital Energies (a.u.)
    -----------------------

    Doubly Occupied:

       1A   -104.855103     2A    -26.355485     3A    -26.353313
       4A    -26.353053     5A    -26.343993     6A    -26.343971
       7A    -20.642052     8A    -11.520798     9A    -11.484886
      10A    -11.401507    11A    -10.580648    12A     -8.047432
      13A     -8.045464    14A     -8.045372    15A     -1.768097
      16A     -1.725677    17A     -1.663314    18A     -1.660743
      19A     -1.645635    20A     -1.488786    21A     -1.176964
      22A     -1.051530    23A     -0.992028    24A     -0.924970
      25A     -0.864206    26A     -0.859474    27A     -0.852652
      28A     -0.830566    29A     -0.819646    30A     -0.794534
      31A     -0.735030    32A     -0.733565    33A     -0.712371
      34A     -0.708621    35A     -0.686059    36A     -0.680288
      37A     -0.665794    38A     -0.664010    39A     -0.650276
      40A     -0.638189    41A     -0.599289    42A     -0.581375
      43A     -0.524291    44A     -0.477770    45A     -0.468499

  @DF-RHF Final Energy: -1146.61858690745339

   => Energetics <=

    Nuclear Repulsion Energy =            737.4681004474215342
    One-Electron Energy =               -3058.1387300112010053
    Two-Electron Energy =                1174.0520426563261935
    DFT Exchange-Correlation Energy =       0.0000000000000000
    Empirical Dispersion Energy =           0.0000000000000000
    PCM Polarization Energy =               0.0000000000000000
    EFP Energy =                            0.0000000000000000
    Total Energy =                      -1146.6185869074533912
    Molecular point group: c1
  Basis Set: CC-PVTZ
  Basis Set:

  -Total Gradient:
     Atom            X                  Y                   Z
    ------   -----------------  -----------------  -----------------
       1        0.000000649110    -0.000003473841    -0.000001480543
       2       -0.000002619212     0.000036989470    -0.000026304059
       3        0.000098881800    -0.000035055069     0.000008083026
       4       -0.000007133013     0.000044140479     0.000012057244
       5        0.000048084740    -0.000035796713    -0.000003010626
       6       -0.002966781624    -0.004237106266     0.001143738929
       7       -0.002256745944    -0.002838491178     0.003609279549
       8       -0.000027627069     0.000039566610    -0.000038445791
       9        0.002944721350     0.004259999384    -0.001777956020
      10        0.002233816599     0.002831930342    -0.002942506915
      11       -0.000056110099     0.000003835047     0.000052798080
      12       -0.000009136624    -0.000066538227    -0.000036252879

  **** Optimization is complete! (in 7 steps) ****
    Final optimized geometry and variables:
    Molecular point group: c1

    Geometry (in Angstrom), charge = 0, multiplicity = 1:

    H           -2.654115665044    -0.578300979676     1.326070330373
    C           -2.101546822198    -0.346127789349     0.434721953537
    O           -0.816606858933    -0.108920172130     0.784848041872
    F           -2.175034942248    -1.355315891326    -0.421007389832
    F           -2.630977783885     0.702189089627    -0.173228409393
    C            0.074594455882     0.247655410258    -0.199455224165
    C            1.360500087600    -0.567016630082    -0.022412826300
    CL           0.450467059384     1.983732553057    -0.122397121059
    H           -0.285949489233     0.079606639126    -1.198566514935
    F            2.105418639565    -0.144289509189     0.960968615295
    F            2.068126512113    -0.489919579832    -1.126240484065
    F            1.067753595823    -1.825463490770     0.182815049747

  Mulliken Charges: (a.u.)
   Center  Symbol    Alpha    Beta     Spin     Total
       1     H     0.45184  0.45184  0.00000  0.09633
       2     C     2.73912  2.73912  0.00000  0.52177
       3     O     4.15532  4.15532  0.00000 -0.31063
       4     F     4.61771  4.61771  0.00000 -0.23542
       5     F     4.61502  4.61502  0.00000 -0.23004
       6     C     2.94034  2.94034  0.00000  0.11932
       7     C     2.66765  2.66765  0.00000  0.66469
       8    CL     8.57472  8.57472  0.00000 -0.14943
       9     H     0.43156  0.43156  0.00000  0.13688
      10     F     4.59889  4.59889  0.00000 -0.19777
      11     F     4.60643  4.60643  0.00000 -0.21286
      12     F     4.60142  4.60142  0.00000 -0.20283

   Total alpha = 45.00000, Total beta = 45.00000, Total charge = -0.00000

*** Psi4 exiting successfully. Buy a developer a beer!
