  ==> Input File <==

--------------------------------------------------------------------------
set {
	reference rhf
	basis 6-31G*
}

set_num_threads( 4 )
memory 2 gb

molecule MOL {
0 1

H	 2.072046	 -0.016332	 -1.056150
O	 2.064459	 -0.086912	 -0.111827
C	 0.745630	 0.005118	 0.354752
H	 0.739005	 0.037656	 1.444976
C	 -0.064159	 -1.194875	 -0.122754
C	 -0.046302	 1.193543	 -0.190431
H	 0.197384	 -1.376065	 -1.160690
H	 0.162855	 -2.097978	 0.431858
C	 -1.535782	 -0.752177	 0.006642
H	 0.154512	 1.271315	 -1.255561
H	 0.226209	 2.140461	 0.267302
C	 -1.509193	 0.801505	 0.065617
H	 -2.127797	 -1.112194	 -0.826847
H	 -1.986849	 -1.158408	 0.905561
H	 -2.183670	 1.254107	 -0.651985
H	 -1.821727	 1.144320	 1.047089

	symmetry c1
}
set optking {
	frozen_dihedral = ("
		1 2 3 6
	")
}

ee = optimize('scf')
oeprop('DIPOLE', 'QUADRUPOLE', 'MULLIKEN_CHARGES')
f=open( 'psi4out.xyz', 'w' )
f.write( "16  " )
f.write( str(ee) + "\n" )
f.write( MOL.save_string_xyz() )
f.close()
--------------------------------------------------------------------------

    Molecular point group: c1
  Charge       = 0
  Multiplicity = 1
  Basis Set: 6-31G*
  Basis Set:
  @DF-RHF Final Energy:  -270.01204862680800
    Total Energy =                       -270.0120486268078253
    Molecular point group: c1
  Basis Set: 6-31G*
  Basis Set:
  Basis Set: 6-31G*
  Basis Set:
  @DF-RHF Final Energy:  -270.01383811460545
    Total Energy =                       -270.0138381146056190
  Basis Set: 6-31G*
  Basis Set:
  Basis Set: 6-31G*
  Basis Set:
  @DF-RHF Final Energy:  -270.01412346130530
    Total Energy =                       -270.0141234613054166
  Basis Set: 6-31G*
  Basis Set:
  Basis Set: 6-31G*
  Basis Set:
  @DF-RHF Final Energy:  -270.01413077161385
    Total Energy =                       -270.0141307716140204
  Basis Set: 6-31G*
  Basis Set:
  @DF-RHF Final Energy:  -270.01413265311101
    Total Energy =                       -270.0141326531110622
  Basis Set: 6-31G*
  Basis Set:
  @DF-RHF Final Energy:  -270.01413481483957
    Total Energy =                       -270.0141348148399629
  Basis Set: 6-31G*
  Basis Set:
  Basis Set: 6-31G*
  Basis Set:
  @DF-RHF Final Energy:  -270.01413957622833
    Total Energy =                       -270.0141395762282741
  Basis Set: 6-31G*
  Basis Set:
  Basis Set: 6-31G*
  Basis Set:
  @DF-RHF Final Energy:  -270.01414083514368
    Total Energy =                       -270.0141408351438486
  Basis Set: 6-31G*
  Basis Set:
  Charge       = 0
  Multiplicity = 1
  Basis Set: 6-31G*
  Basis Set:

    Orbital Energies (a.u.)
    -----------------------

    Doubly Occupied:

       1A    -20.552255     2A    -11.269020     3A    -11.219486
       4A    -11.218333     5A    -11.215910     6A    -11.212519
       7A     -1.361933     8A     -1.115182     9A     -0.968969
      10A     -0.948747    11A     -0.803935    12A     -0.782908
      13A     -0.681271    14A     -0.662027    15A     -0.607730
      16A     -0.585375    17A     -0.578236    18A     -0.547885
      19A     -0.504767    20A     -0.484919    21A     -0.473389
      22A     -0.460213    23A     -0.454884    24A     -0.411194

  @DF-RHF Final Energy:  -270.01414109253130

   => Energetics <=

    Nuclear Repulsion Energy =            254.9950687765241639
    One-Electron Energy =                -871.7762402197292886
    Two-Electron Energy =                 346.7670303506736786
    DFT Exchange-Correlation Energy =       0.0000000000000000
    Empirical Dispersion Energy =           0.0000000000000000
    PCM Polarization Energy =               0.0000000000000000
    EFP Energy =                            0.0000000000000000
    Total Energy =                       -270.0141410925314744
    Molecular point group: c1
  Basis Set: 6-31G*
  Basis Set:

  -Total Gradient:
     Atom            X                  Y                   Z
    ------   -----------------  -----------------  -----------------
       1        0.000066918117     0.000957227192     0.000132549601
       2       -0.000156103649    -0.001319076946    -0.000399875578
       3        0.000256498515     0.000691071891     0.000780907543
       4       -0.000000269802    -0.000001617436    -0.000001256928
       5       -0.000008275282     0.000003394742     0.000002935467
       6       -0.000168109442    -0.000320502010    -0.000510008539
       7        0.000002022594    -0.000009167721     0.000000362307
       8       -0.000000132028     0.000003501262     0.000006358608
       9        0.000001504735    -0.000005130164     0.000005215119
      10        0.000001493807    -0.000009753554    -0.000000958287
      11        0.000000617075     0.000004059600    -0.000008269152
      12        0.000003882488     0.000005020078    -0.000009626694
      13        0.000010982997     0.000006843979    -0.000010461090
      14       -0.000013242917    -0.000005078206    -0.000007472019
      15       -0.000010339448     0.000007184413     0.000012335578
      16        0.000012552235    -0.000007977122     0.000007264065

  **** Optimization is complete! (in 9 steps) ****
    Final optimized geometry and variables:
    Molecular point group: c1

    Geometry (in Angstrom), charge = 0, multiplicity = 1:

    H            2.164808589152     0.078779209668    -0.976102047938
    O            2.097947074226    -0.046526995734    -0.039063642988
    C            0.750492726230    -0.007504794426     0.338805893842
    H            0.759763569115     0.015994402887     1.423051747970
    C           -0.081813427554    -1.199758006878    -0.138491388057
    C           -0.038297173697     1.191621866027    -0.188260672436
    H            0.136688810434    -1.372462297850    -1.190954667022
    H            0.156174302045    -2.114477529895     0.392137110236
    C           -1.542776463001    -0.747357252303     0.042358598482
    H            0.151009326250     1.290873276915    -1.257003820429
    H            0.250597250367     2.126113214836     0.279375336909
    C           -1.505555655874     0.808598382943     0.060929151596
    H           -2.178275370390    -1.127157665308    -0.749263869013
    H           -1.948636225838    -1.125920782416     0.974305149176
    H           -2.169326924963     1.243962663371    -0.676955294213
    H           -1.828629493754     1.179758979754     1.028026242363

  Mulliken Charges: (a.u.)
   Center  Symbol    Alpha    Beta     Spin     Total
       1     H     0.28453  0.28453  0.00000  0.43094
       2     O     4.37548  4.37548  0.00000 -0.75095
       3     C     2.90606  2.90606  0.00000  0.18787
       4     H     0.41647  0.41647  0.00000  0.16706
       5     C     3.16916  3.16916  0.00000 -0.33832
       6     C     3.17317  3.17317  0.00000 -0.34633
       7     H     0.42652  0.42652  0.00000  0.14697
       8     H     0.41093  0.41093  0.00000  0.17814
       9     C     3.16941  3.16941  0.00000 -0.33882
      10     H     0.42855  0.42855  0.00000  0.14290
      11     H     0.41054  0.41054  0.00000  0.17893
      12     C     3.16902  3.16902  0.00000 -0.33804
      13     H     0.41474  0.41474  0.00000  0.17051
      14     H     0.41551  0.41551  0.00000  0.16899
      15     H     0.41428  0.41428  0.00000  0.17145
      16     H     0.41564  0.41564  0.00000  0.16871

   Total alpha = 24.00000, Total beta = 24.00000, Total charge =  0.00000
