                              Psi4 1.0.54 Driver

  ==> Input File <==

--------------------------------------------------------------------------
set {
	reference rhf
	basis cc-pvtz
}

set_num_threads( 4 )
memory 2 gb

molecule MOL {
0 1

H	 5.269878	 0.195679	 1.068175
C	 4.673900	 -0.208485	 0.258034
C	 3.190199	 -0.204714	 0.610086
H	 4.865136	 0.391893	 -0.624684
H	 5.027838	 -1.214511	 0.056939
C	 2.319208	 -0.778154	 -0.505491
H	 2.876954	 0.809861	 0.827925
H	 3.035335	 -0.782733	 1.518235
C	 0.843522	 -0.410709	 -0.386241
H	 2.690316	 -0.439993	 -1.465051
H	 2.402250	 -1.861129	 -0.498214
C	 0.524266	 1.041897	 -0.696878
H	 0.258284	 -1.004319	 -1.084016
H	 0.460523	 -0.654688	 0.600321
C	 -0.814464	 1.579017	 -0.229249
O	 1.280717	 1.731731	 -1.301183
C	 -2.017793	 0.892133	 -0.883886
H	 -0.825018	 2.638117	 -0.448419
H	 -0.874193	 1.459563	 0.849342
C	 -3.344845	 1.519086	 -0.464921
H	 -1.918115	 0.951453	 -1.964229
H	 -2.028581	 -0.163166	 -0.630453
C	 -4.550597	 0.849471	 -1.115231
H	 -3.337139	 2.574822	 -0.718761
H	 -3.440805	 1.465441	 0.616045
H	 -4.498285	 0.914790	 -2.196748
H	 -4.606186	 -0.201136	 -0.850288
H	 -5.475196	 1.318771	 -0.800296

	symmetry c1
}
set optking {
	frozen_dihedral = ("
		10 6 3 2
	")
}

ee,wfn = optimize('scf', return_wfn=True)
oeprop( wfn, 'DIPOLE', 'QUADRUPOLE', 'MULLIKEN_CHARGES')
f=open( 'psi4out.xyz', 'w' )
f.write( "28  " )
f.write( str(ee) + "\n" )
f.write( MOL.save_string_xyz() )
f.close()
--------------------------------------------------------------------------

    Molecular point group: c1
  Charge       = 0
  Multiplicity = 1
  Basis Set: CC-PVTZ
  Basis Set:
  @DF-RHF Final Energy:  -426.31878170637651
    Total Energy =                       -426.3187817063765124
    Molecular point group: c1
  Basis Set: CC-PVTZ
  Basis Set:
  Basis Set: CC-PVTZ
  Basis Set:
  @DF-RHF Final Energy:  -426.31888938710688
    Total Energy =                       -426.3188893871069922
  Basis Set: CC-PVTZ
  Basis Set:
  Basis Set: CC-PVTZ
  Basis Set:
  @DF-RHF Final Energy:  -426.31871144348929
    Total Energy =                       -426.3187114434887235
  Basis Set: CC-PVTZ
  Basis Set:
  Basis Set: CC-PVTZ
  Basis Set:
  @DF-RHF Final Energy:  -426.31890859327711
    Total Energy =                       -426.3189085932774560
  Basis Set: CC-PVTZ
  Basis Set:
  Basis Set: CC-PVTZ
  Basis Set:
  @DF-RHF Final Energy:  -426.31889877072922
    Total Energy =                       -426.3188987707295610
  Basis Set: CC-PVTZ
  Basis Set:
  Basis Set: CC-PVTZ
  Basis Set:
  @DF-RHF Final Energy:  -426.31891157262260
    Total Energy =                       -426.3189115726236196
  Basis Set: CC-PVTZ
  Basis Set:
  Charge       = 0
  Multiplicity = 1
  Basis Set: CC-PVTZ
  Basis Set:

    Orbital Energies (a.u.)
    -----------------------

    Doubly Occupied:

       1A    -20.536747     2A    -11.316516     3A    -11.229840
       4A    -11.228518     5A    -11.226882     6A    -11.223804
       7A    -11.214353     8A    -11.214242     9A    -11.211114
      10A    -11.202847    11A     -1.396605    12A     -1.096126
      13A     -1.078453    14A     -1.023473    15A     -0.991635
      16A     -0.908030    17A     -0.873718    18A     -0.809412
      19A     -0.800145    20A     -0.724529    21A     -0.670678
      22A     -0.653623    23A     -0.628991    24A     -0.621976
      25A     -0.611363    26A     -0.590038    27A     -0.577526
      28A     -0.573931    29A     -0.544053    30A     -0.531924
      31A     -0.523657    32A     -0.506342    33A     -0.501899
      34A     -0.485219    35A     -0.478645    36A     -0.476190
      37A     -0.471689    38A     -0.465261    39A     -0.456813
      40A     -0.394466

  @DF-RHF Final Energy:  -426.31891221199294

   => Energetics <=

    Nuclear Repulsion Energy =            532.5771258697723169
    One-Electron Energy =               -1633.6495302686012110
    Two-Electron Energy =                 674.7534921868355013
    DFT Exchange-Correlation Energy =       0.0000000000000000
    Empirical Dispersion Energy =           0.0000000000000000
    PCM Polarization Energy =               0.0000000000000000
    EFP Energy =                            0.0000000000000000
    Total Energy =                       -426.3189122119933927
    Molecular point group: c1
  Basis Set: CC-PVTZ
  Basis Set:

  -Total Gradient:
     Atom            X                  Y                   Z
    ------   -----------------  -----------------  -----------------
       1       -0.000015095476    -0.000010522447    -0.000021977543
       2       -0.000155668787     0.002006136948    -0.000882965869
       3        0.000669946706    -0.003404706394     0.001200300184
       4       -0.000009246408    -0.000013363556     0.000010368628
       5        0.000000747445     0.000025446353     0.000004815780
       6       -0.002261171587     0.003862555782    -0.000123156051
       7       -0.000005373963     0.000000676213     0.000001677729
       8        0.000000837467     0.000004633759    -0.000018588894
       9       -0.000002946935    -0.000001535691     0.000002184749
      10        0.001763990214    -0.002478265742    -0.000151622251
      11        0.000009857435    -0.000017519214     0.000006222205
      12       -0.000011240805     0.000021697596     0.000020872472
      13        0.000005047354     0.000010609172    -0.000003211398
      14        0.000014016647    -0.000008297733    -0.000013819668
      15       -0.000010664115    -0.000001199467    -0.000045332236
      16       -0.000021686691     0.000006510402    -0.000003494632
      17        0.000015206132     0.000015800833     0.000026731190
      18        0.000002871102    -0.000003195757     0.000002284125
      19        0.000016840631     0.000001605937     0.000005862189
      20       -0.000011835524    -0.000007569201    -0.000007094312
      21       -0.000017249589     0.000001552604    -0.000001524598
      22       -0.000010730467     0.000003544408    -0.000002332662
      23        0.000007698339    -0.000005992377    -0.000002381900
      24        0.000015869226    -0.000004338778    -0.000000226704
      25        0.000014209588    -0.000003252476    -0.000002518800
      26       -0.000003303773    -0.000001029820     0.000003043674
      27       -0.000004750341     0.000002452461    -0.000001963322
      28        0.000003826179    -0.000002433813    -0.000002152088

  **** Optimization is complete! (in 7 steps) ****
    Final optimized geometry and variables:
    Molecular point group: c1

    Geometry (in Angstrom), charge = 0, multiplicity = 1:

    H            5.090376121465    -0.459774228231     1.524785875356
    C            4.478300776832    -0.833619254982     0.712050960817
    C            2.998021947792    -0.801205438925     1.075773156858
    H            4.670862023004    -0.219714698864    -0.160183764686
    H            4.808915656121    -1.842989606233     0.487432758981
    C            2.104237371104    -1.367656452573    -0.029269636966
    H            2.717491268833     0.226944606885     1.277455260213
    H            2.829477922606    -1.355057008524     1.995385509798
    C            0.631641819465    -1.003426699454     0.115617562480
    H            2.468637028556    -1.045681563516    -0.996429448383
    H            2.188338136455    -2.450972219874    -0.024178112493
    C            0.305432044317     0.446200072055    -0.201428190574
    H            0.031774371721    -1.606171496884    -0.561234459693
    H            0.270646990189    -1.235893577022     1.113516318855
    C           -1.039421634620     0.976682050112     0.256310740871
    O            1.061909464013     1.139602533934    -0.801477056732
    C           -2.234378608642     0.289592379991    -0.413257925488
    H           -1.051150855186     2.036692579025     0.041700875389
    H           -1.109492482192     0.852216789476     1.333661066370
    C           -3.566900063143     0.912164511836    -0.005583019663
    H           -2.123812122452     0.353254764647    -1.492256017862
    H           -2.245686577098    -0.766614316339    -0.163812014047
    C           -4.764679777770     0.239287699808    -0.667034780437
    H           -3.560098351637     1.968099298824    -0.258560480285
    H           -3.672151625826     0.857285842281     1.074437193813
    H           -4.703485111593     0.306489700155    -1.747953614649
    H           -4.818784243596    -0.811906488194    -0.404165891131
    H           -5.693525194233     0.704846119991    -0.359164877405

  Mulliken Charges: (a.u.)
   Center  Symbol    Alpha    Beta     Spin     Total
       1     H     0.44954  0.44954  0.00000  0.10093
       2     C     3.15213  3.15213  0.00000 -0.30427
       3     C     3.08034  3.08034  0.00000 -0.16069
       4     H     0.44945  0.44945  0.00000  0.10109
       5     H     0.45708  0.45708  0.00000  0.08585
       6     C     3.08824  3.08824  0.00000 -0.17649
       7     H     0.45219  0.45219  0.00000  0.09563
       8     H     0.45608  0.45608  0.00000  0.08783
       9     C     3.12967  3.12967  0.00000 -0.25934
      10     H     0.44499  0.44499  0.00000  0.11002
      11     H     0.44775  0.44775  0.00000  0.10450
      12     C     2.86439  2.86439  0.00000  0.27122
      13     H     0.43388  0.43388  0.00000  0.13224
      14     H     0.44280  0.44280  0.00000  0.11441
      15     C     3.09265  3.09265  0.00000 -0.18531
      16     O     4.17867  4.17867  0.00000 -0.35734
      17     C     3.10139  3.10139  0.00000 -0.20278
      18     H     0.43791  0.43791  0.00000  0.12418
      19     H     0.44942  0.44942  0.00000  0.10116
      20     C     3.08721  3.08721  0.00000 -0.17442
      21     H     0.44564  0.44564  0.00000  0.10872
      22     H     0.45054  0.45054  0.00000  0.09892
      23     C     3.14919  3.14919  0.00000 -0.29838
      24     H     0.44978  0.44978  0.00000  0.10044
      25     H     0.45363  0.45363  0.00000  0.09273
      26     H     0.45342  0.45342  0.00000  0.09317
      27     H     0.45521  0.45521  0.00000  0.08958
      28     H     0.44680  0.44680  0.00000  0.10641

   Total alpha = 40.00000, Total beta = 40.00000, Total charge =  0.00000

*** Psi4 exiting successfully. Buy a developer a beer!
