  ==> Input File <==

--------------------------------------------------------------------------
set {
	reference rhf
	basis 6-31G*
}

set_num_threads( 1 )
memory 2 gb

molecule MOL {
0 1

O	 -2.564527	 0.972202	 -0.462766
C	 -1.921153	 0.064240	 -0.045697
C	 -2.450936	 -1.319113	 0.218902
O	 -0.632575	 0.154573	 0.251549
H	 -2.309606	 -1.571817	 1.263466
H	 -3.500121	 -1.359836	 -0.032865
H	 -1.898997	 -2.041583	 -0.371146
C	 0.160891	 -1.019931	 0.106212
C	 1.589627	 -0.672828	 0.480843
H	 0.089836	 -1.367806	 -0.916050
H	 -0.238459	 -1.792301	 0.749618
C	 2.246377	 0.346236	 -0.452210
H	 2.163194	 -1.597435	 0.473358
H	 1.604769	 -0.303424	 1.502885
C	 3.691736	 0.652107	 -0.061850
H	 2.219579	 -0.032311	 -1.472055
H	 1.666466	 1.263317	 -0.447249
H	 4.134505	 1.377213	 -0.737283
H	 4.305508	 -0.243868	 -0.089969
H	 3.748266	 1.059562	 0.943567

	symmetry c1
}
set optking {
	frozen_dihedral = ("
		16 12 9 8,
		2 4 8 10,
		12 9 8 10
	")
}

ee = energy('scf')
oeprop('DIPOLE', 'QUADRUPOLE', 'MULLIKEN_CHARGES')
f=open( 'psi4out.xyz', 'w' )
f.write( "20  " )
f.write( str(ee) + "\n" )
f.write( MOL.save_string_xyz() )
f.close()
--------------------------------------------------------------------------

    Molecular point group: c1

    Geometry (in Angstrom), charge = 0, multiplicity = 1:

       Center              X                  Y                   Z               Mass
    ------------   -----------------  -----------------  -----------------  -----------------
           O         -2.570900442878     1.075841096038    -0.466634395386    15.994914619560
           C         -1.927526442878     0.167879096038    -0.049565395386    12.000000000000
           C         -2.457309442878    -1.215473903962     0.215033604614    12.000000000000
           O         -0.638948442878     0.258212096038     0.247680604614    15.994914619560
           H         -2.315979442878    -1.468177903962     1.259597604614     1.007825032070
           H         -3.506494442878    -1.256196903962    -0.036733395386     1.007825032070
           H         -1.905370442878    -1.937943903962    -0.375014395386     1.007825032070
           C          0.154517557122    -0.916291903962     0.102343604614    12.000000000000
           C          1.583253557122    -0.569188903962     0.476974604614    12.000000000000
           H          0.083462557122    -1.264166903962    -0.919918395386     1.007825032070
           H         -0.244832442878    -1.688661903962     0.745749604614     1.007825032070
           C          2.240003557122     0.449875096038    -0.456078395386    12.000000000000
           H          2.156820557122    -1.493795903962     0.469489604614     1.007825032070
           H          1.598395557122    -0.199784903962     1.499016604614     1.007825032070
           C          3.685362557122     0.755746096038    -0.065718395386    12.000000000000
           H          2.213205557122     0.071328096038    -1.475923395386     1.007825032070
           H          1.660092557122     1.366956096038    -0.451117395386     1.007825032070
           H          4.128131557122     1.480852096038    -0.741151395386     1.007825032070
           H          4.299134557122    -0.140228903962    -0.093837395386     1.007825032070
           H          3.741892557122     1.163201096038     0.939698604614     1.007825032070

  Charge       = 0
  Multiplicity = 1
  Basis Set: 6-31G*
  Basis Set:

    Orbital Energies (a.u.)
    -----------------------

    Doubly Occupied:

       1A    -20.600367     2A    -20.545559     3A    -11.376480
       4A    -11.299028     5A    -11.237897     6A    -11.232714
       7A    -11.222097     8A    -11.214456     9A     -1.465692
      10A     -1.368539    11A     -1.088254    12A     -1.021618
      13A     -1.003224    14A     -0.891319    15A     -0.814444
      16A     -0.783660    17A     -0.699705    18A     -0.693213
      19A     -0.663036    20A     -0.638320    21A     -0.610354
      22A     -0.594592    23A     -0.575327    24A     -0.562537
      25A     -0.546978    26A     -0.530904    27A     -0.519275
      28A     -0.488943    29A     -0.478483    30A     -0.475164
      31A     -0.448333    32A     -0.432834

  @DF-RHF Final Energy:  -383.92204857854802

   => Energetics <=

    Nuclear Repulsion Energy =            387.0202943354196350
    One-Electron Energy =               -1289.6380675714999597
    Two-Electron Energy =                 518.6957246575323097
    DFT Exchange-Correlation Energy =       0.0000000000000000
    Empirical Dispersion Energy =           0.0000000000000000
    PCM Polarization Energy =               0.0000000000000000
    EFP Energy =                            0.0000000000000000
    Total Energy =                       -383.9220485785480150

  Mulliken Charges: (a.u.)
   Center  Symbol    Alpha    Beta     Spin     Total
       1     O     4.26685  4.26685  0.00000 -0.53369
       2     C     2.60919  2.60919  0.00000  0.78162
       3     C     3.31638  3.31638  0.00000 -0.63275
       4     O     4.30162  4.30162  0.00000 -0.60324
       5     H     0.39863  0.39863  0.00000  0.20273
       6     H     0.39060  0.39060  0.00000  0.21881
       7     H     0.40194  0.40194  0.00000  0.19612
       8     C     3.01520  3.01520  0.00000 -0.03041
       9     C     3.16034  3.16034  0.00000 -0.32069
      10     H     0.41404  0.41404  0.00000  0.17193
      11     H     0.41208  0.41208  0.00000  0.17585
      12     C     3.15670  3.15670  0.00000 -0.31339
      13     H     0.41932  0.41932  0.00000  0.16136
      14     H     0.41084  0.41084  0.00000  0.17832
      15     C     3.24113  3.24113  0.00000 -0.48225
      16     H     0.42373  0.42373  0.00000  0.15255
      17     H     0.40307  0.40307  0.00000  0.19387
      18     H     0.41580  0.41580  0.00000  0.16841
      19     H     0.42293  0.42293  0.00000  0.15415
      20     H     0.41964  0.41964  0.00000  0.16073

   Total alpha = 32.00000, Total beta = 32.00000, Total charge = -0.00000
