  ==> Input File <==

--------------------------------------------------------------------------
set {
	reference rhf
	basis 6-31G*
}

set_num_threads( 4 )
memory 2 gb

molecule MOL {
0 1

H	 -2.977231	 -0.580582	 0.438827
C	 -2.859079	 0.083489	 -0.415100
O	 -1.521241	 0.222700	 -0.770273
H	 -3.379129	 -0.340631	 -1.262928
H	 -3.310728	 1.043963	 -0.170292
C	 -0.719715	 0.768384	 0.229244
C	 0.719720	 0.768376	 -0.229267
H	 -1.027575	 1.792542	 0.443763
H	 -0.802975	 0.193358	 1.149253
O	 1.392611	 -0.295398	 0.366430
H	 0.750534	 0.687200	 -1.313918
H	 1.185043	 1.714359	 0.050526
C	 2.706965	 -0.449871	 -0.062409
H	 2.756559	 -0.644779	 -1.131878
H	 3.305899	 0.433456	 0.155466
H	 3.125548	 -1.294566	 0.467107

	symmetry c1
}
set optking {
	frozen_dihedral = ("
		3 6 7 11
	")
}

ee = optimize('scf')
oeprop('DIPOLE', 'QUADRUPOLE', 'MULLIKEN_CHARGES')
f=open( 'psi4out.xyz', 'w' )
f.write( "16  " )
f.write( str(ee) + "\n" )
f.write( MOL.save_string_xyz() )
f.close()
--------------------------------------------------------------------------

    Molecular point group: c1
  Charge       = 0
  Multiplicity = 1
  Basis Set: 6-31G*
  Basis Set:
  @DF-RHF Final Energy:  -306.97481008367339
    Total Energy =                       -306.9748100836735603
    Molecular point group: c1
  Basis Set: 6-31G*
  Basis Set:
  Basis Set: 6-31G*
  Basis Set:
  @DF-RHF Final Energy:  -306.97508327852989
    Total Energy =                       -306.9750832785299508
  Basis Set: 6-31G*
  Basis Set:
  Basis Set: 6-31G*
  Basis Set:
  @DF-RHF Final Energy:  -306.97515145840970
    Total Energy =                       -306.9751514584098686
  Basis Set: 6-31G*
  Basis Set:
  Charge       = 0
  Multiplicity = 1
  Basis Set: 6-31G*
  Basis Set:

    Orbital Energies (a.u.)
    -----------------------

    Doubly Occupied:

       1A    -20.555368     2A    -20.554622     3A    -11.268319
       4A    -11.267686     5A    -11.264530     6A    -11.264199
       7A     -1.386746     8A     -1.372539     9A     -1.028470
      10A     -0.937708    11A     -0.887806    12A     -0.828830
      13A     -0.683398    14A     -0.680095    15A     -0.656222
      16A     -0.637372    17A     -0.630127    18A     -0.598386
      19A     -0.547886    20A     -0.536964    21A     -0.508278
      22A     -0.479041    23A     -0.464200    24A     -0.421346
      25A     -0.410472

  @DF-RHF Final Energy:  -306.97515343105755

   => Energetics <=

    Nuclear Repulsion Energy =            256.6780289496404635
    One-Electron Energy =                -927.5651450186393276
    Two-Electron Energy =                 363.9119626379413148
    DFT Exchange-Correlation Energy =       0.0000000000000000
    Empirical Dispersion Energy =           0.0000000000000000
    PCM Polarization Energy =               0.0000000000000000
    EFP Energy =                            0.0000000000000000
    Total Energy =                       -306.9751534310576062
    Molecular point group: c1
  Basis Set: 6-31G*
  Basis Set:

  -Total Gradient:
     Atom            X                  Y                   Z
    ------   -----------------  -----------------  -----------------
       1       -0.000002273590     0.000010240502    -0.000004286507
       2       -0.000035869106    -0.000034632307    -0.000067028449
       3       -0.000258642790     0.002354407715    -0.000933722954
       4       -0.000046674710    -0.000006994461     0.000014507525
       5        0.000003023687    -0.000000966111     0.000011722772
       6        0.000374127660    -0.003725368011     0.001372827995
       7       -0.000078342322     0.004597658828    -0.000600942109
       8       -0.000022844113     0.000008477326     0.000029033722
       9       -0.000014220955    -0.000020234337    -0.000018554864
      10       -0.000080153388     0.000165416843    -0.000060557107
      11        0.000086706606    -0.003275512671     0.000252424206
      12       -0.000000817101    -0.000011309963    -0.000003556236
      13        0.000057309005    -0.000070646563     0.000021069461
      14        0.000006729577     0.000006839278     0.000004087989
      15       -0.000012711104    -0.000000498647    -0.000004313293
      16        0.000024652641     0.000003122581    -0.000012712151

  **** Optimization is complete! (in 4 steps) ****
    Final optimized geometry and variables:
    Molecular point group: c1

    Geometry (in Angstrom), charge = 0, multiplicity = 1:

    H           -2.937597914778    -0.746972900594     0.596566526286
    C           -2.813081640129    -0.096388428462    -0.266761288342
    O           -1.472722985662     0.035728475103    -0.616458789606
    H           -3.329918106156    -0.531661204674    -1.110985092800
    H           -3.262892011091     0.868803840993    -0.038497854881
    C           -0.676948225646     0.600510911874     0.382460076727
    C            0.772972400548     0.606197145465    -0.076576449040
    H           -1.013736931397     1.617792628053     0.580989838964
    H           -0.751557524707     0.036753424411     1.308063521374
    O            1.438355659113    -0.476736685779     0.506077228039
    H            0.794342297574     0.512832465624    -1.158739015633
    H            1.264057916878     1.536093952283     0.205452529463
    C            2.754791541956    -0.628050989872     0.082001817142
    H            2.810619572941    -0.801202190720    -0.990985275496
    H            3.354856376376     0.248855390847     0.320812329863
    H            3.167967549299    -1.484465135161     0.596953396096

  Mulliken Charges: (a.u.)
   Center  Symbol    Alpha    Beta     Spin     Total
       1     H     0.42776  0.42776  0.00000  0.14448
       2     C     3.08022  3.08022  0.00000 -0.16043
       3     O     4.30534  4.30534  0.00000 -0.61068
       4     H     0.41158  0.41158  0.00000  0.17685
       5     H     0.43113  0.43113  0.00000  0.13774
       6     C     2.99723  2.99723  0.00000  0.00553
       7     C     2.99798  2.99798  0.00000  0.00405
       8     H     0.43125  0.43125  0.00000  0.13750
       9     H     0.41526  0.41526  0.00000  0.16948
      10     O     4.30591  4.30591  0.00000 -0.61183
      11     H     0.41506  0.41506  0.00000  0.16989
      12     H     0.43012  0.43012  0.00000  0.13975
      13     C     3.08008  3.08008  0.00000 -0.16016
      14     H     0.42811  0.42811  0.00000  0.14378
      15     H     0.43129  0.43129  0.00000  0.13741
      16     H     0.41168  0.41168  0.00000  0.17664

   Total alpha = 25.00000, Total beta = 25.00000, Total charge = -0.00000
