                              Psi4 1.0.54 Driver

  ==> Input File <==

--------------------------------------------------------------------------
set {
	reference rhf
	basis cc-pvtz
}

set_num_threads( 4 )
memory 2 gb

molecule MOL {
0 1

H	 -1.577615	 2.338182	 0.375118
C	 -1.579010	 1.638605	 1.200230
C	 -0.278730	 0.851487	 1.250569
H	 -2.426683	 0.979819	 1.067317
H	 -1.717838	 2.194107	 2.120038
C	 0.000000	 0.039916	 0.000014
H	 -0.273700	 0.167431	 2.094926
H	 0.568015	 1.513970	 1.408779
C	 1.286532	 -0.763243	 0.000268
O	 -0.745117	 0.033662	 -0.924725
C	 2.547023	 0.087626	 -0.000114
H	 1.264245	 -1.421103	 -0.864380
H	 1.264290	 -1.420353	 0.865489
H	 2.584452	 0.725630	 -0.872909
H	 3.427035	 -0.544422	 0.000125
H	 2.584484	 0.726356	 0.872143

	symmetry c1
}
set optking {
	frozen_dihedral = ("
		3 6 9 12
	")
}

ee,wfn = optimize('scf', return_wfn=True)
oeprop( wfn, 'DIPOLE', 'QUADRUPOLE', 'MULLIKEN_CHARGES')
f=open( 'psi4out.xyz', 'w' )
f.write( "16  " )
f.write( str(ee) + "\n" )
f.write( MOL.save_string_xyz() )
f.close()
--------------------------------------------------------------------------

    Molecular point group: c1
  Charge       = 0
  Multiplicity = 1
  Basis Set: CC-PVTZ
  Basis Set:
  @DF-RHF Final Energy:  -270.12858063289445
    Total Energy =                       -270.1285806328942840
    Molecular point group: c1
  Basis Set: CC-PVTZ
  Basis Set:
  Basis Set: CC-PVTZ
  Basis Set:
  @DF-RHF Final Energy:  -270.12888941390304
    Total Energy =                       -270.1288894139033232
  Basis Set: CC-PVTZ
  Basis Set:
  Basis Set: CC-PVTZ
  Basis Set:
  @DF-RHF Final Energy:  -270.12523285035115
    Total Energy =                       -270.1252328503509261
  Basis Set: CC-PVTZ
  Basis Set:
  Basis Set: CC-PVTZ
  Basis Set:
  @DF-RHF Final Energy:  -270.12836871166462
    Total Energy =                       -270.1283687116647343
  Basis Set: CC-PVTZ
  Basis Set:
  Basis Set: CC-PVTZ
  Basis Set:
  @DF-RHF Final Energy:  -270.12923488953993
    Total Energy =                       -270.1292348895399869
  Basis Set: CC-PVTZ
  Basis Set:
  Basis Set: CC-PVTZ
  Basis Set:
  @DF-RHF Final Energy:  -270.12924124170632
    Total Energy =                       -270.1292412417062110
  Basis Set: CC-PVTZ
  Basis Set:
  Charge       = 0
  Multiplicity = 1
  Basis Set: CC-PVTZ
  Basis Set:

    Orbital Energies (a.u.)
    -----------------------

    Doubly Occupied:

       1A    -20.538254     2A    -11.317064     3A    -11.231906
       4A    -11.230776     5A    -11.227388     6A    -11.211366
       7A     -1.397895     8A     -1.073181     9A     -1.036608
      10A     -0.910838    11A     -0.861063    12A     -0.726586
      13A     -0.664756    14A     -0.639726    15A     -0.632785
      16A     -0.607827    17A     -0.560837    18A     -0.543191
      19A     -0.534634    20A     -0.510811    21A     -0.505466
      22A     -0.496460    23A     -0.483635    24A     -0.398867

  @DF-RHF Final Energy:  -270.12924161001729

   => Energetics <=

    Nuclear Repulsion Energy =            240.8650953762616780
    One-Electron Energy =                -843.3048325690444926
    Two-Electron Energy =                 332.3104955827656681
    DFT Exchange-Correlation Energy =       0.0000000000000000
    Empirical Dispersion Energy =           0.0000000000000000
    PCM Polarization Energy =               0.0000000000000000
    EFP Energy =                            0.0000000000000000
    Total Energy =                       -270.1292416100171181
    Molecular point group: c1
  Basis Set: CC-PVTZ
  Basis Set:

  -Total Gradient:
     Atom            X                  Y                   Z
    ------   -----------------  -----------------  -----------------
       1       -0.000001205754    -0.000006299729     0.000006217652
       2        0.000005360736     0.000014164323     0.000003462515
       3        0.000229376246     0.000388880365    -0.000104817431
       4        0.000001262141    -0.000001095392     0.000001068242
       5        0.000000646138    -0.000003858734    -0.000006356791
       6       -0.000321576369    -0.000490306789     0.000118207333
       7        0.000004657485     0.000015891043     0.000001548110
       8        0.000003989641     0.000006060628     0.000001793814
       9       -0.000219785133    -0.000405957861     0.000216569706
      10        0.000032449899    -0.000018026363     0.000000513109
      11       -0.000028697510    -0.000023817806     0.000008497479
      12        0.000288092016     0.000512030880    -0.000243512237
      13       -0.000005919205     0.000003921313     0.000000083571
      14        0.000010093110     0.000001926643    -0.000002908996
      15       -0.000001854138     0.000008058414     0.000002842354
      16        0.000003110696    -0.000001570935    -0.000003208430

  **** Optimization is complete! (in 7 steps) ****
    Final optimized geometry and variables:
    Molecular point group: c1

    Geometry (in Angstrom), charge = 0, multiplicity = 1:

    H           -1.900213732299     1.891457956895     0.329330121296
    C           -1.907418987021     1.072027390052     1.035224726644
    C           -0.566843272991     0.353765256459     1.050575983123
    H           -2.704824772445     0.400413123225     0.746364086991
    H           -2.132468954787     1.468122399128     2.018305531871
    C           -0.171341993517    -0.236859742411    -0.289370820782
    H           -0.567535367130    -0.452772419583     1.779067548648
    H            0.223539883276     1.028340170391     1.364839931724
    C            1.126148354487    -1.021770898769    -0.353104010446
    O           -0.844573845406    -0.093307778790    -1.257986338939
    C            2.371457966401    -0.147158684465    -0.179087015186
    H            1.151853580729    -1.507857235052    -1.318119213436
    H            1.112062715858    -1.789897568085     0.413925503425
    H            2.390058454537     0.650026799524    -0.912956491454
    H            3.264575202786    -0.743744810708    -0.314958981437
    H            2.422310154020     0.298597630798     0.806282498322

  Mulliken Charges: (a.u.)
   Center  Symbol    Alpha    Beta     Spin     Total
       1     H     0.44725  0.44725  0.00000  0.10550
       2     C     3.14089  3.14089  0.00000 -0.28178
       3     C     3.10727  3.10727  0.00000 -0.21453
       4     H     0.44799  0.44799  0.00000  0.10402
       5     H     0.45096  0.45096  0.00000  0.09808
       6     C     2.86309  2.86309  0.00000  0.27382
       7     H     0.44583  0.44583  0.00000  0.10833
       8     H     0.44471  0.44471  0.00000  0.11058
       9     C     3.09429  3.09429  0.00000 -0.18859
      10     O     4.17311  4.17311  0.00000 -0.34621
      11     C     3.15514  3.15514  0.00000 -0.31029
      12     H     0.43694  0.43694  0.00000  0.12613
      13     H     0.45023  0.45023  0.00000  0.09954
      14     H     0.44615  0.44615  0.00000  0.10770
      15     H     0.44314  0.44314  0.00000  0.11372
      16     H     0.45301  0.45301  0.00000  0.09399

   Total alpha = 24.00000, Total beta = 24.00000, Total charge = -0.00000

*** Psi4 exiting successfully. Buy a developer a beer!
