                              Psi4 1.0.54 Driver

  ==> Input File <==

--------------------------------------------------------------------------
set {
	reference rhf
	basis cc-pvtz
}

set_num_threads( 4 )
memory 2 gb

molecule MOL {
0 1

H	 2.127035	 -1.046048	 0.509862
C	 1.947315	 -0.180337	 -0.141213
C	 0.692262	 0.592428	 0.156232
O	 2.713773	 0.080970	 -1.002546
C	 -0.554654	 -0.292621	 0.086567
H	 0.627021	 1.420656	 -0.537035
H	 0.790667	 0.998869	 1.160722
C	 -1.846385	 0.513195	 -0.016346
H	 -0.473986	 -0.956115	 -0.769708
H	 -0.597929	 -0.929215	 0.966651
C	 -3.089953	 -0.365049	 -0.098564
H	 -1.798267	 1.154820	 -0.891143
H	 -1.925398	 1.173265	 0.842889
H	 -3.055079	 -1.012299	 -0.968245
H	 -3.988403	 0.236438	 -0.170014
H	 -3.183055	 -0.995885	 0.779079

	symmetry c1
}
set optking {
	frozen_dihedral = ("
		6 3 5 9
	")
}

ee,wfn = optimize('scf', return_wfn=True)
oeprop( wfn, 'DIPOLE', 'QUADRUPOLE', 'MULLIKEN_CHARGES')
f=open( 'psi4out.xyz', 'w' )
f.write( "16  " )
f.write( str(ee) + "\n" )
f.write( MOL.save_string_xyz() )
f.close()
--------------------------------------------------------------------------

    Molecular point group: c1
  Charge       = 0
  Multiplicity = 1
  Basis Set: CC-PVTZ
  Basis Set:
  @DF-RHF Final Energy:  -270.11805383433517
    Total Energy =                       -270.1180538343350577
    Molecular point group: c1
  Basis Set: CC-PVTZ
  Basis Set:
  Basis Set: CC-PVTZ
  Basis Set:
  @DF-RHF Final Energy:  -270.11805058820539
    Total Energy =                       -270.1180505882051648
  Basis Set: CC-PVTZ
  Basis Set:
  Basis Set: CC-PVTZ
  Basis Set:
  @DF-RHF Final Energy:  -270.11659150494745
    Total Energy =                       -270.1165915049475643
  Basis Set: CC-PVTZ
  Basis Set:
  Basis Set: CC-PVTZ
  Basis Set:
  @DF-RHF Final Energy:  -270.11810820380094
    Total Energy =                       -270.1181082038009436
  Basis Set: CC-PVTZ
  Basis Set:
  @DF-RHF Final Energy:  -270.11818136837690
    Total Energy =                       -270.1181813683768951
  Basis Set: CC-PVTZ
  Basis Set:
  @DF-RHF Final Energy:  -270.11820973671070
    Total Energy =                       -270.1182097367105257
  Basis Set: CC-PVTZ
  Basis Set:
  Basis Set: CC-PVTZ
  Basis Set:
  @DF-RHF Final Energy:  -270.11821209945106
    Total Energy =                       -270.1182120994511138
  Basis Set: CC-PVTZ
  Basis Set:
  Basis Set: CC-PVTZ
  Basis Set:
  @DF-RHF Final Energy:  -270.11821360776275
    Total Energy =                       -270.1182136077628684
  Basis Set: CC-PVTZ
  Basis Set:
  Charge       = 0
  Multiplicity = 1
  Basis Set: CC-PVTZ
  Basis Set:

    Orbital Energies (a.u.)
    -----------------------

    Doubly Occupied:

       1A    -20.551808     2A    -11.321536     3A    -11.234627
       4A    -11.233876     5A    -11.227686     6A    -11.216722
       7A     -1.406669     8A     -1.097636     9A     -1.020190
      10A     -0.907075    11A     -0.812873    12A     -0.794650
      13A     -0.679694    14A     -0.648896    15A     -0.634929
      16A     -0.604271    17A     -0.585985    18A     -0.548251
      19A     -0.530506    20A     -0.511756    21A     -0.488142
      22A     -0.484298    23A     -0.477404    24A     -0.411968

  @DF-RHF Final Energy:  -270.11821399119981

   => Energetics <=

    Nuclear Repulsion Energy =            229.3010523407447465
    One-Electron Energy =                -819.9756290445075138
    Two-Electron Energy =                 320.5563627125628727
    DFT Exchange-Correlation Energy =       0.0000000000000000
    Empirical Dispersion Energy =           0.0000000000000000
    PCM Polarization Energy =               0.0000000000000000
    EFP Energy =                            0.0000000000000000
    Total Energy =                       -270.1182139911999229
    Molecular point group: c1
  Basis Set: CC-PVTZ
  Basis Set:

  -Total Gradient:
     Atom            X                  Y                   Z
    ------   -----------------  -----------------  -----------------
       1       -0.000007472756    -0.000002545801     0.000003673337
       2        0.000047209042     0.000001144526    -0.000026415306
       3        0.001918489394    -0.002591135530    -0.002360820132
       4       -0.000049141601    -0.000007434199     0.000033682710
       5       -0.001943177154     0.003042346235    -0.001506039915
       6       -0.001270501931     0.001672815113     0.002200197357
       7        0.000007814026     0.000000466828    -0.000009223814
       8       -0.000024897692    -0.000002459179     0.000021479899
       9        0.001308344027    -0.002128207213     0.001650473659
      10       -0.000003213862     0.000011350148    -0.000009387254
      11        0.000020779238     0.000007625396    -0.000005448532
      12        0.000006085885    -0.000007672083     0.000007079095
      13       -0.000002565071     0.000005556082    -0.000000843387
      14       -0.000003331461    -0.000001330560     0.000006563616
      15       -0.000000256155    -0.000001774674    -0.000001082326
      16       -0.000004163919     0.000001254910    -0.000003889006

  **** Optimization is complete! (in 9 steps) ****
    Final optimized geometry and variables:
    Molecular point group: c1

    Geometry (in Angstrom), charge = 0, multiplicity = 1:

    H            2.078224257956    -1.204036456190     0.601930389897
    C            1.967050353860    -0.285104509701     0.011230023514
    C            0.723393452012     0.508421410934     0.294478653287
    O            2.794175865256     0.013513744900    -0.778957237606
    C           -0.547609747247    -0.344977908873     0.211843854519
    H            0.679948635340     1.356206966790    -0.376649637340
    H            0.818802443346     0.906992816897     1.302754048321
    C           -1.821859077504     0.491411761657     0.168513565463
    H           -0.498325969983    -0.994001179315    -0.658599295045
    H           -0.585422630394    -1.011441252448     1.069520814521
    C           -3.088757214416    -0.355776914882     0.130901430416
    H           -1.793273543892     1.139325887395    -0.702191979801
    H           -1.849022074902     1.145839315137     1.035456202625
    H           -3.102420349313    -1.000253938478    -0.741493989861
    H           -3.974025488021     0.267972858776     0.094876798167
    H           -3.164575059591    -0.987462065445     1.009520898187

  Mulliken Charges: (a.u.)
   Center  Symbol    Alpha    Beta     Spin     Total
       1     H     0.46490  0.46490  0.00000  0.07020
       2     C     2.91033  2.91033  0.00000  0.17935
       3     C     3.07727  3.07727  0.00000 -0.15454
       4     O     4.16403  4.16403  0.00000 -0.32806
       5     C     3.10127  3.10127  0.00000 -0.20255
       6     H     0.44310  0.44310  0.00000  0.11381
       7     H     0.44892  0.44892  0.00000  0.10215
       8     C     3.08408  3.08408  0.00000 -0.16816
       9     H     0.44814  0.44814  0.00000  0.10373
      10     H     0.45175  0.45175  0.00000  0.09649
      11     C     3.14906  3.14906  0.00000 -0.29811
      12     H     0.44989  0.44989  0.00000  0.10021
      13     H     0.45283  0.45283  0.00000  0.09433
      14     H     0.45335  0.45335  0.00000  0.09330
      15     H     0.44654  0.44654  0.00000  0.10691
      16     H     0.45453  0.45453  0.00000  0.09093

   Total alpha = 24.00000, Total beta = 24.00000, Total charge =  0.00000

*** Psi4 exiting successfully. Buy a developer a beer!
