                              Psi4 1.0.54 Driver

  ==> Input File <==

--------------------------------------------------------------------------
set {
	reference rhf
	basis cc-pvtz
}

set_num_threads( 4 )
memory 2 gb

molecule MOL {
0 1

O	 -2.728636	 -0.392420	 0.692809
C	 -1.922978	 0.063265	 -0.045005
C	 -2.224449	 0.606009	 -1.413580
O	 -0.637375	 0.157174	 0.243149
H	 -1.659598	 0.055926	 -2.155248
H	 -3.280257	 0.519318	 -1.612054
H	 -1.918007	 1.642609	 -1.469457
C	 0.162530	 -1.009518	 0.097799
C	 1.587210	 -0.664190	 0.477086
H	 0.096803	 -1.356267	 -0.924704
H	 -0.233803	 -1.785900	 0.736810
C	 2.256770	 0.342732	 -0.454344
H	 2.154716	 -1.590834	 0.479041
H	 1.598751	 -0.289614	 1.496104
C	 3.698146	 0.643205	 -0.057145
H	 2.235038	 -0.042575	 -1.470299
H	 1.683491	 1.262594	 -0.461300
H	 4.150202	 1.356548	 -0.736242
H	 4.305463	 -0.255904	 -0.069842
H	 3.749130	 1.061068	 0.942759

	symmetry c1
}
set optking {
	frozen_dihedral = ("
		1 2 4 8
	")
}

ee,wfn = optimize('scf', return_wfn=True)
oeprop( wfn, 'DIPOLE', 'QUADRUPOLE', 'MULLIKEN_CHARGES')
f=open( 'psi4out.xyz', 'w' )
f.write( "20  " )
f.write( str(ee) + "\n" )
f.write( MOL.save_string_xyz() )
f.close()
--------------------------------------------------------------------------

    Molecular point group: c1
  Charge       = 0
  Multiplicity = 1
  Basis Set: CC-PVTZ
  Basis Set:
  @DF-RHF Final Energy:  -384.06875782667794
    Total Energy =                       -384.0687578266779383
    Molecular point group: c1
  Basis Set: CC-PVTZ
  Basis Set:
  Basis Set: CC-PVTZ
  Basis Set:
  @DF-RHF Final Energy:  -383.43932499735268
    Total Energy =                       -383.4393249973527418
  Basis Set: CC-PVTZ
  Basis Set:
  Basis Set: CC-PVTZ
  Basis Set:
  @DF-RHF Final Energy:  -383.63858207531291
    Total Energy =                       -383.6385820753130247
  Basis Set: CC-PVTZ
  Basis Set:
  Basis Set: CC-PVTZ
  Basis Set:
  @DF-RHF Final Energy:  -383.83867530993797
    Total Energy =                       -383.8386753099380257
  Basis Set: CC-PVTZ
  Basis Set:
  @DF-RHF Final Energy:  -384.03417369850320
    Total Energy =                       -384.0341736985028547
  @DF-RHF Final Energy:  -384.06750537206489
    Total Energy =                       -384.0675053720650567
  @DF-RHF Final Energy:  -384.06620487029528
    Total Energy =                       -384.0662048702954507
  @DF-RHF Final Energy:  -384.06883630839644
    Total Energy =                       -384.0688363083963850
  Basis Set: CC-PVTZ
  Basis Set:
  @DF-RHF Final Energy:  -384.06998040071903
    Total Energy =                       -384.0699804007189186
  Basis Set: CC-PVTZ
  Basis Set:
  Basis Set: CC-PVTZ
  Basis Set:
  @DF-RHF Final Energy:  -384.07003905946647
    Total Energy =                       -384.0700390594664668
  Basis Set: CC-PVTZ
  Basis Set:
  Basis Set: CC-PVTZ
  Basis Set:
  @DF-RHF Final Energy:  -384.07004661851096
    Total Energy =                       -384.0700466185109008
  Basis Set: CC-PVTZ
  Basis Set:
  Charge       = 0
  Multiplicity = 1
  Basis Set: CC-PVTZ
  Basis Set:

    Orbital Energies (a.u.)
    -----------------------

    Doubly Occupied:

       1A    -20.575975     2A    -20.544450     3A    -11.369763
       4A    -11.289475     5A    -11.235437     6A    -11.225354
       7A    -11.220136     8A    -11.212336     9A     -1.461285
      10A     -1.368705    11A     -1.085920    12A     -1.024485
      13A     -0.988554    14A     -0.882194    15A     -0.811593
      16A     -0.777795    17A     -0.696473    18A     -0.688450
      19A     -0.653176    20A     -0.636610    21A     -0.616374
      22A     -0.593763    23A     -0.577840    24A     -0.560556
      25A     -0.548145    26A     -0.531159    27A     -0.503314
      28A     -0.487402    29A     -0.479824    30A     -0.475471
      31A     -0.449328    32A     -0.440336

  @DF-RHF Final Energy:  -384.07004728693408

   => Energetics <=

    Nuclear Repulsion Energy =            384.8854058245879628
    One-Electron Energy =               -1285.8875503464782923
    Two-Electron Energy =                 516.9320972349560179
    DFT Exchange-Correlation Energy =       0.0000000000000000
    Empirical Dispersion Energy =           0.0000000000000000
    PCM Polarization Energy =               0.0000000000000000
    EFP Energy =                            0.0000000000000000
    Total Energy =                       -384.0700472869343685
    Molecular point group: c1
  Basis Set: CC-PVTZ
  Basis Set:

  -Total Gradient:
     Atom            X                  Y                   Z
    ------   -----------------  -----------------  -----------------
       1        0.001751696549     0.001788038578     0.003871892272
       2       -0.002112254119    -0.001391458228    -0.006809677199
       3       -0.000017258425     0.000023883259     0.000054816691
       4       -0.000391799882    -0.003101376732     0.005290243470
       5       -0.000003219882    -0.000006182027    -0.000019395725
       6        0.000000952476     0.000003110440    -0.000010200666
       7        0.000005356255     0.000000046248    -0.000014696060
       8        0.000743674406     0.002660527240    -0.002393451114
       9        0.000029352907     0.000023932596     0.000020812816
      10       -0.000011534356     0.000009495412    -0.000023844906
      11       -0.000004704433     0.000006656467     0.000016261534
      12       -0.000014815108    -0.000008232116     0.000027217582
      13       -0.000019185224     0.000005527480    -0.000000609088
      14        0.000017060144    -0.000016037223     0.000023563151
      15        0.000026017118     0.000008378065    -0.000020471361
      16       -0.000010305935     0.000010976741    -0.000025854957
      17        0.000002776210    -0.000000860712    -0.000001318873
      18        0.000005166734     0.000003780578     0.000001555719
      19       -0.000002721382    -0.000010221779    -0.000009709375
      20        0.000005745942    -0.000009984283     0.000022866093

  **** Optimization is complete! (in 12 steps) ****
    Final optimized geometry and variables:
    Molecular point group: c1

    Geometry (in Angstrom), charge = 0, multiplicity = 1:

    O           -2.426492313079     0.200894781064     1.472633775754
    C           -1.596943835565     0.746581295550     0.841375626639
    C           -1.698054537701     2.159598552636     0.341643392531
    O           -0.410705656507     0.169790066262     0.568297369493
    H           -1.551689486522     2.182501985351    -0.731606460650
    H           -2.658792465584     2.578015889146     0.594728100273
    H           -0.905178092477     2.746785824070     0.788086050960
    C           -0.382917952033    -0.769365454299    -0.495686016793
    C            1.016112272819    -1.335200842171    -0.616662774552
    H           -0.675599567779    -0.274634823055    -1.418227780526
    H           -1.096218846303    -1.556876185950    -0.288382060790
    C            2.075199067790    -0.307208896302    -1.004164465751
    H            0.983667683952    -2.125368526595    -1.362017922699
    H            1.280282656064    -1.802502000180     0.326310669681
    C            3.466554248971    -0.918145878891    -1.132121443270
    H            1.796428848210     0.155316943444    -1.947790401032
    H            2.092970177694     0.484574115498    -0.264865959118
    H            4.198311864435    -0.168467025715    -1.409343324414
    H            3.487136342454    -1.696105766982    -1.888265012253
    H            3.786009059487    -1.360863801296    -0.194752199405

  Mulliken Charges: (a.u.)
   Center  Symbol    Alpha    Beta     Spin     Total
       1     O     4.17253  4.17253  0.00000 -0.34506
       2     C     2.80463  2.80463  0.00000  0.39073
       3     C     3.14146  3.14146  0.00000 -0.28293
       4     O     4.17283  4.17283  0.00000 -0.34566
       5     H     0.45023  0.45023  0.00000  0.09954
       6     H     0.43685  0.43685  0.00000  0.12631
       7     H     0.44397  0.44397  0.00000  0.11206
       8     C     2.98868  2.98868  0.00000  0.02264
       9     C     3.08757  3.08757  0.00000 -0.17513
      10     H     0.46354  0.46354  0.00000  0.07292
      11     H     0.44246  0.44246  0.00000  0.11507
      12     C     3.08609  3.08609  0.00000 -0.17218
      13     H     0.45287  0.45287  0.00000  0.09426
      14     H     0.44719  0.44719  0.00000  0.10562
      15     C     3.14974  3.14974  0.00000 -0.29948
      16     H     0.45772  0.45772  0.00000  0.08455
      17     H     0.44528  0.44528  0.00000  0.10943
      18     H     0.44755  0.44755  0.00000  0.10491
      19     H     0.45578  0.45578  0.00000  0.08845
      20     H     0.45302  0.45302  0.00000  0.09396

   Total alpha = 32.00000, Total beta = 32.00000, Total charge = -0.00000

*** Psi4 exiting successfully. Buy a developer a beer!
