  ==> Input File <==

--------------------------------------------------------------------------
set {
	reference rhf
	basis 6-31G*
}

set_num_threads( 1 )
memory 2 gb

molecule MOL {
0 1

H	 -3.420663	 1.227371	 -1.044276
O	 -3.452007	 0.283848	 -0.965577
C	 -3.181085	 -0.079926	 0.364119
C	 -1.765924	 0.277073	 0.805136
H	 -3.327791	 -1.152017	 0.410903
H	 -3.905698	 0.375695	 1.036898
C	 -0.677594	 -0.417312	 -0.014550
H	 -1.637766	 1.358238	 0.744969
H	 -1.659588	 0.017670	 1.857098
C	 0.738335	 -0.034840	 0.421385
H	 -0.814977	 -0.178223	 -1.064632
H	 -0.802730	 -1.495410	 0.071702
C	 1.031258	 1.457303	 0.243086
H	 0.876862	 -0.318914	 1.461833
H	 1.462266	 -0.612719	 -0.151837
C	 2.466758	 1.874421	 0.582952
H	 0.336745	 2.035225	 0.850831
H	 0.828334	 1.730525	 -0.790349
C	 2.841287	 1.720559	 2.058235
H	 2.599691	 2.914986	 0.296870
H	 3.161825	 1.301550	 -0.027707
H	 2.155023	 2.273166	 2.694479
H	 3.841163	 2.100886	 2.243805
H	 2.824469	 0.683265	 2.375884

	symmetry c1
}
set optking {
	frozen_dihedral = ("
		20 16 13 17,
		17 13 10 7,
		11 7 4 3,
		1 2 3 5,
		7 4 3 2
	")
}

ee = energy('scf')
oeprop('DIPOLE', 'QUADRUPOLE', 'MULLIKEN_CHARGES')
f=open( 'psi4out.xyz', 'w' )
f.write( "24  " )
f.write( str(ee) + "\n" )
f.write( MOL.save_string_xyz() )
f.close()
--------------------------------------------------------------------------

    Molecular point group: c1

    Geometry (in Angstrom), charge = 0, multiplicity = 1:

       Center              X                  Y                   Z               Mass
    ------------   -----------------  -----------------  -----------------  -----------------
           H         -3.117173158520     0.586097957353    -1.467392341708     1.007825032070
           O         -3.148517158520    -0.357425042647    -1.388693341708    15.994914619560
           C         -2.877595158520    -0.721199042647    -0.058997341708    12.000000000000
           C         -1.462434158520    -0.364200042647     0.382019658292    12.000000000000
           H         -3.024301158520    -1.793290042647    -0.012213341708     1.007825032070
           H         -3.602208158520    -0.265578042647     0.613781658292     1.007825032070
           C         -0.374104158520    -1.058585042647    -0.437666341708    12.000000000000
           H         -1.334276158520     0.716964957353     0.321852658292     1.007825032070
           H         -1.356098158520    -0.623603042647     1.433981658292     1.007825032070
           C          1.041824841480    -0.676113042647    -0.001731341708    12.000000000000
           H         -0.511487158520    -0.819496042647    -1.487748341708     1.007825032070
           H         -0.499240158520    -2.136683042647    -0.351414341708     1.007825032070
           C          1.334747841480     0.816029957353    -0.180030341708    12.000000000000
           H          1.180351841480    -0.960187042647     1.038716658292     1.007825032070
           H          1.765755841480    -1.253992042647    -0.574953341708     1.007825032070
           C          2.770247841480     1.233147957353     0.159835658292    12.000000000000
           H          0.640234841480     1.393951957353     0.427714658292     1.007825032070
           H          1.131823841480     1.089251957353    -1.213465341708     1.007825032070
           C          3.144776841480     1.079285957353     1.635118658292    12.000000000000
           H          2.903180841480     2.273712957353    -0.126246341708     1.007825032070
           H          3.465314841480     0.660276957353    -0.450823341708     1.007825032070
           H          2.458512841480     1.631892957353     2.271362658292     1.007825032070
           H          4.144652841480     1.459612957353     1.820688658292     1.007825032070
           H          3.127958841480     0.041991957353     1.952767658292     1.007825032070

  Charge       = 0
  Multiplicity = 1
  Basis Set: 6-31G*
  Basis Set:

    Orbital Energies (a.u.)
    -----------------------

    Doubly Occupied:

       1A    -20.553354     2A    -11.267427     3A    -11.216472
       4A    -11.215209     5A    -11.213034     6A    -11.212340
       7A    -11.211130     8A    -11.208325     9A     -1.359918
      10A     -1.091113    11A     -1.046933    12A     -0.984618
      13A     -0.916157    14A     -0.853338    15A     -0.808862
      16A     -0.768055    17A     -0.678688    18A     -0.647507
      19A     -0.631108    20A     -0.616479    21A     -0.601482
      22A     -0.578599    23A     -0.571152    24A     -0.534019
      25A     -0.525700    26A     -0.509436    27A     -0.492179
      28A     -0.484607    29A     -0.470694    30A     -0.456752
      31A     -0.451151    32A     -0.441250    33A     -0.422944

  @DF-RHF Final Energy:  -349.24499238294385

   => Energetics <=

    Nuclear Repulsion Energy =            391.3088995268269059
    One-Electron Energy =               -1249.0277087325255252
    Two-Electron Energy =                 508.4738168227538608
    DFT Exchange-Correlation Energy =       0.0000000000000000
    Empirical Dispersion Energy =           0.0000000000000000
    PCM Polarization Energy =               0.0000000000000000
    EFP Energy =                            0.0000000000000000
    Total Energy =                       -349.2449923829447016

  Mulliken Charges: (a.u.)
   Center  Symbol    Alpha    Beta     Spin     Total
       1     H     0.28335  0.28335  0.00000  0.43329
       2     O     4.36834  4.36834  0.00000 -0.73668
       3     C     2.99555  2.99555  0.00000  0.00890
       4     C     3.17165  3.17165  0.00000 -0.34330
       5     H     0.41656  0.41656  0.00000  0.16687
       6     H     0.42838  0.42838  0.00000  0.14323
       7     C     3.15341  3.15341  0.00000 -0.30682
       8     H     0.42572  0.42572  0.00000  0.14856
       9     H     0.42278  0.42278  0.00000  0.15444
      10     C     3.15476  3.15476  0.00000 -0.30951
      11     H     0.41235  0.41235  0.00000  0.17529
      12     H     0.42154  0.42154  0.00000  0.15691
      13     C     3.15611  3.15611  0.00000 -0.31222
      14     H     0.42304  0.42304  0.00000  0.15393
      15     H     0.42108  0.42108  0.00000  0.15783
      16     C     3.15118  3.15118  0.00000 -0.30236
      17     H     0.42367  0.42367  0.00000  0.15265
      18     H     0.42256  0.42256  0.00000  0.15488
      19     C     3.24103  3.24103  0.00000 -0.48206
      20     H     0.42170  0.42170  0.00000  0.15660
      21     H     0.42310  0.42310  0.00000  0.15381
      22     H     0.42305  0.42305  0.00000  0.15390
      23     H     0.41930  0.41930  0.00000  0.16141
      24     H     0.41978  0.41978  0.00000  0.16044

   Total alpha = 33.00000, Total beta = 33.00000, Total charge = -0.00000
