                              Psi4 1.0.54 Driver

  ==> Input File <==

--------------------------------------------------------------------------
set {
	reference rhf
	basis cc-pvtz
}

set_num_threads( 4 )
memory 2 gb

molecule MOL {
0 1

H	 -0.216830	 1.920715	 0.492836
O	 0.057669	 1.301365	 -0.158528
C	 0.004145	 -0.005141	 0.363049
C	 1.199168	 -0.827145	 -0.096690
C	 -1.316386	 -0.602081	 -0.083515
H	 0.012026	 0.043363	 1.450619
H	 1.216685	 -0.896776	 -1.178167
H	 2.129940	 -0.372354	 0.228035
H	 1.160783	 -1.829622	 0.314294
H	 -1.357882	 -0.655920	 -1.165207
H	 -2.140147	 0.011735	 0.257253
H	 -1.440790	 -1.601175	 0.317669

	symmetry c1
}
set optking {
	frozen_dihedral = ("
		1 2 3 4
	")
}

ee,wfn = optimize('scf', return_wfn=True)
oeprop( wfn, 'DIPOLE', 'QUADRUPOLE', 'MULLIKEN_CHARGES')
f=open( 'psi4out.xyz', 'w' )
f.write( "12  " )
f.write( str(ee) + "\n" )
f.write( MOL.save_string_xyz() )
f.close()
--------------------------------------------------------------------------

    Molecular point group: c1
  Charge       = 0
  Multiplicity = 1
  Basis Set: CC-PVTZ
  Basis Set:
  @DF-RHF Final Energy:  -193.19353983141389
    Total Energy =                       -193.1935398314138013
    Molecular point group: c1
  Basis Set: CC-PVTZ
  Basis Set:
  Basis Set: CC-PVTZ
  Basis Set:
  @DF-RHF Final Energy:  -193.16971976813974
    Total Energy =                       -193.1697197681398279
  Basis Set: CC-PVTZ
  Basis Set:
  Basis Set: CC-PVTZ
  Basis Set:
  @DF-RHF Final Energy:  -193.19394053490495
    Total Energy =                       -193.1939405349049537
  Basis Set: CC-PVTZ
  Basis Set:
  Basis Set: CC-PVTZ
  Basis Set:
  @DF-RHF Final Energy:  -193.19467191545047
    Total Energy =                       -193.1946719154506127
  Basis Set: CC-PVTZ
  Basis Set:
  Basis Set: CC-PVTZ
  Basis Set:
  @DF-RHF Final Energy:  -193.19468761757946
    Total Energy =                       -193.1946876175795182
  Basis Set: CC-PVTZ
  Basis Set:
  Basis Set: CC-PVTZ
  Basis Set:
  @DF-RHF Final Energy:  -193.19468946120301
    Total Energy =                       -193.1946894612030974
  Basis Set: CC-PVTZ
  Basis Set:
  Charge       = 0
  Multiplicity = 1
  Basis Set: CC-PVTZ
  Basis Set:

    Orbital Energies (a.u.)
    -----------------------

    Doubly Occupied:

       1A    -20.543161     2A    -11.274585     3A    -11.206192
       4A    -11.204787     5A     -1.363103     6A     -1.042711
       7A     -0.937106     8A     -0.800232     9A     -0.713170
      10A     -0.612224    11A     -0.601093    12A     -0.556296
      13A     -0.538723    14A     -0.525907    15A     -0.507568
      16A     -0.465112    17A     -0.432967

  @DF-RHF Final Energy:  -193.19468959011053

   => Energetics <=

    Nuclear Repulsion Energy =            135.5166389432982612
    One-Electron Energy =                -530.7727797370177996
    Two-Electron Energy =                 202.0614512036089536
    DFT Exchange-Correlation Energy =       0.0000000000000000
    Empirical Dispersion Energy =           0.0000000000000000
    PCM Polarization Energy =               0.0000000000000000
    EFP Energy =                            0.0000000000000000
    Total Energy =                       -193.1946895901105563
    Molecular point group: c1
  Basis Set: CC-PVTZ
  Basis Set:

  -Total Gradient:
     Atom            X                  Y                   Z
    ------   -----------------  -----------------  -----------------
       1        0.001501238887     0.000506994020     0.000154155803
       2       -0.001658774030    -0.000496164837     0.000027311941
       3       -0.000424053667    -0.000433671999    -0.000838097603
       4        0.000581104454     0.000428165934     0.000653531569
       5       -0.000000107765    -0.000000463231     0.000005450617
       6       -0.000001371450    -0.000003033835    -0.000002265663
       7       -0.000000525505    -0.000001281400    -0.000004647446
       8       -0.000003781324    -0.000000335258     0.000005125626
       9       -0.000002130056    -0.000001318922    -0.000003454885
      10        0.000003278896     0.000005384925     0.000001380511
      11        0.000004108222    -0.000000996395    -0.000000898171
      12        0.000001013338    -0.000003278999     0.000002407701

  **** Optimization is complete! (in 7 steps) ****
    Final optimized geometry and variables:
    Molecular point group: c1

    Geometry (in Angstrom), charge = 0, multiplicity = 1:

    H           -0.544972907181     1.840797550048     0.538239610167
    O           -0.282788443105     1.272124665836    -0.160335352624
    C            0.091789604440     0.008320853110     0.344682995040
    C            1.311776322994    -0.457804328435    -0.429005202393
    C           -1.073932670578    -0.962660386915     0.240282096187
    H            0.368750474750     0.109247946627     1.391516949486
    H            1.079427066904    -0.530010694955    -1.485421517607
    H            2.125258677053     0.246329475176    -0.309793917323
    H            1.641328798409    -1.430845743611    -0.082750652977
    H           -1.375086489124    -1.075321925554    -0.794715918519
    H           -1.926938623505    -0.597292222173     0.800613396836
    H           -0.804595908547    -1.938290946081     0.629962770707

  Mulliken Charges: (a.u.)
   Center  Symbol    Alpha    Beta     Spin     Total
       1     H     0.39185  0.39185  0.00000  0.21631
       2     O     4.21004  4.21004  0.00000 -0.42008
       3     C     2.92577  2.92577  0.00000  0.14846
       4     C     3.13817  3.13817  0.00000 -0.27634
       5     C     3.13797  3.13797  0.00000 -0.27594
       6     H     0.46770  0.46770  0.00000  0.06460
       7     H     0.45216  0.45216  0.00000  0.09568
       8     H     0.45004  0.45004  0.00000  0.09993
       9     H     0.45950  0.45950  0.00000  0.08099
      10     H     0.45243  0.45243  0.00000  0.09514
      11     H     0.45544  0.45544  0.00000  0.08912
      12     H     0.45892  0.45892  0.00000  0.08215

   Total alpha = 17.00000, Total beta = 17.00000, Total charge =  0.00000

*** Psi4 exiting successfully. Buy a developer a beer!
