  ==> Input File <==

--------------------------------------------------------------------------
set {
	reference rhf
	basis cc-pvtz
}

set_num_threads( 4 )
memory 2 gb

molecule MOL {
0 1

H	 -0.042927	 -6.063659	 0.966529
C	 0.301261	 -5.056697	 0.762393
C	 -0.870444	 -4.086324	 0.661709
H	 0.978171	 -4.771674	 1.560887
H	 0.872092	 -5.083922	 -0.159793
C	 -0.431676	 -2.658048	 0.374518
H	 -1.442108	 -4.095098	 1.583060
H	 -1.545392	 -4.417493	 -0.124007
N	 -1.563270	 -1.758689	 0.308305
H	 0.222773	 -2.317213	 1.171197
H	 0.164338	 -2.639662	 -0.542821
C	 -1.215959	 -0.382435	 0.027143
H	 -2.215652	 -2.087468	 -0.372592
C	 -2.451944	 0.502410	 -0.038737
H	 -0.565330	 -0.030513	 0.822134
H	 -0.648318	 -0.281711	 -0.902757
C	 -3.752217	 -0.292550	 0.005776
H	 -2.407325	 1.093801	 -0.946480
H	 -2.431979	 1.206234	 0.790023
H	 -3.817783	 -0.982946	 -0.828547
H	 -4.612613	 0.364348	 -0.042306
H	 -3.830160	 -0.871666	 0.919868

	symmetry c1
}
set optking {
	frozen_dihedral = ("
		15 12 14 18
	")
}

ee = optimize('scf')
oeprop('DIPOLE', 'QUADRUPOLE', 'MULLIKEN_CHARGES')
f=open( 'psi4out.xyz', 'w' )
f.write( "22  " )
f.write( str(ee) + "\n" )
f.write( MOL.save_string_xyz() )
f.close()
--------------------------------------------------------------------------

    Molecular point group: c1
  Charge       = 0
  Multiplicity = 1
  Basis Set: CC-PVTZ
  Basis Set:
  @DF-RHF Final Energy:  -290.47741521478150
    Total Energy =                       -290.4774152147815016
    Molecular point group: c1
  Basis Set: CC-PVTZ
  Basis Set:
  Basis Set: CC-PVTZ
  Basis Set:
  @DF-RHF Final Energy:  -290.47771220250360
    Total Energy =                       -290.4777122025036533
  Basis Set: CC-PVTZ
  Basis Set:
  Basis Set: CC-PVTZ
  Basis Set:
  @DF-RHF Final Energy:  -290.48038976108722
    Total Energy =                       -290.4803897610872809
  Basis Set: CC-PVTZ
  Basis Set:
  Basis Set: CC-PVTZ
  Basis Set:
  @DF-RHF Final Energy:  -290.48063923053371
    Total Energy =                       -290.4806392305338818
  Basis Set: CC-PVTZ
  Basis Set:
  Basis Set: CC-PVTZ
  Basis Set:
  @DF-RHF Final Energy:  -290.48065738982575
    Total Energy =                       -290.4806573898257511
  Basis Set: CC-PVTZ
  Basis Set:
  Basis Set: CC-PVTZ
  Basis Set:
  @DF-RHF Final Energy:  -290.48066459579621
    Total Energy =                       -290.4806645957959290
  Basis Set: CC-PVTZ
  Basis Set:
  Charge       = 0
  Multiplicity = 1
  Basis Set: CC-PVTZ
  Basis Set:

    Orbital Energies (a.u.)
    -----------------------

    Doubly Occupied:

       1A    -15.527691     2A    -11.237059     3A    -11.236140
       4A    -11.212391     5A    -11.211977     6A    -11.207669
       7A    -11.203313     8A     -1.206716     9A     -1.056705
      10A     -1.021599    11A     -0.927572    12A     -0.881515
      13A     -0.805197    14A     -0.786062    15A     -0.668937
      16A     -0.628594    17A     -0.624721    18A     -0.597462
      19A     -0.575450    20A     -0.567723    21A     -0.535347
      22A     -0.529288    23A     -0.504232    24A     -0.486459
      25A     -0.483531    26A     -0.471903    27A     -0.461575
      28A     -0.451232    29A     -0.358967

  @DF-RHF Final Energy:  -290.48066591801637

   => Energetics <=

    Nuclear Repulsion Energy =            318.5412686745966084
    One-Electron Energy =               -1023.1098170205773386
    Two-Electron Energy =                 414.0878824279640185
    DFT Exchange-Correlation Energy =       0.0000000000000000
    Empirical Dispersion Energy =           0.0000000000000000
    PCM Polarization Energy =               0.0000000000000000
    EFP Energy =                            0.0000000000000000
    Total Energy =                       -290.4806659180167117
    Molecular point group: c1
  Basis Set: CC-PVTZ
  Basis Set:

  -Total Gradient:
     Atom            X                  Y                   Z
    ------   -----------------  -----------------  -----------------
       1        0.000002167361    -0.000002257283     0.000000272427
       2       -0.000000347824    -0.000003824907     0.000000263697
       3       -0.000000524197     0.000005033628     0.000001683046
       4       -0.000000942951     0.000000149588    -0.000001025943
       5       -0.000000512765     0.000000208968     0.000000739561
       6        0.000002872359     0.000011601632     0.000001103027
       7        0.000000059856    -0.000000925531    -0.000000519829
       8        0.000000397952     0.000000257828     0.000000519861
       9        0.000001288593     0.000022750705    -0.000029414931
      10        0.000005780856    -0.000002384158    -0.000000099453
      11        0.000000295575    -0.000000934652     0.000002411186
      12        0.001245695921     0.001517171378    -0.002397282195
      13       -0.000015089879    -0.000003408097    -0.000006012453
      14        0.001436425290     0.001890557411     0.001996675011
      15       -0.001260907996    -0.001579168417     0.001744076465
      16       -0.000004922102    -0.000011195487    -0.000002219156
      17        0.000004969536     0.000011469894     0.000009995775
      18       -0.001417255035    -0.001847898545    -0.001313928863
      19       -0.000002207816    -0.000004148012    -0.000000100376
      20        0.000004083866    -0.000005849169    -0.000005382693
      21       -0.000001019156    -0.000000696854    -0.000004219505
      22       -0.000000307444     0.000003490084     0.000002465340

  **** Optimization is complete! (in 7 steps) ****
    Final optimized geometry and variables:
    Molecular point group: c1

    Geometry (in Angstrom), charge = 0, multiplicity = 1:

    H            1.487547320633    -4.100964050761     0.693005818130
    C            1.805775134989    -3.083054525195     0.501331435540
    C            0.607408569081    -2.150982625973     0.360487941883
    H            2.445037711368    -2.777413838562     1.322884068609
    H            2.408651202815    -3.090278274546    -0.400600295972
    C            1.009938941114    -0.708580582206     0.090843101906
    H            0.004550525936    -2.180786146279     1.261318716282
    H           -0.028168109368    -2.502341333116    -0.448923973179
    N           -0.147028323155     0.154231460513    -0.012762927340
    H            1.626555236822    -0.349695100905     0.909457256539
    H            1.635915153702    -0.669178624927    -0.805888990916
    C            0.184325025850     1.536790825229    -0.299969252342
    H           -0.765072383846    -0.204589747778    -0.708685872090
    C           -1.035454924249     2.490382748084    -0.319185322405
    H            0.861735230300     1.854234103604     0.483908625569
    H            0.731495019590     1.628284137867    -1.240042801919
    C           -2.413017005339     1.829007915858    -0.279987916869
    H           -0.986618048952     3.093818244056    -1.219061696438
    H           -0.963498053067     3.175420558832     0.517274790746
    H           -2.582582552039     1.194824073109    -1.144269418022
    H           -3.184494112308     2.590570476688    -0.287090689000
    H           -2.541088038549     1.224331139755     0.606793719732

  Mulliken Charges: (a.u.)
   Center  Symbol    Alpha    Beta     Spin     Total
       1     H     0.44766  0.44766  0.00000  0.10468
       2     C     3.15357  3.15357  0.00000 -0.30713
       3     C     3.08144  3.08144  0.00000 -0.16289
       4     H     0.45468  0.45468  0.00000  0.09065
       5     H     0.45609  0.45609  0.00000  0.08783
       6     C     3.02136  3.02136  0.00000 -0.04272
       7     H     0.44891  0.44891  0.00000  0.10217
       8     H     0.45994  0.45994  0.00000  0.08012
       9     N     3.64119  3.64119  0.00000 -0.28237
      10     H     0.45895  0.45895  0.00000  0.08210
      11     H     0.47502  0.47502  0.00000  0.04996
      12     C     3.03478  3.03478  0.00000 -0.06956
      13     H     0.44060  0.44060  0.00000  0.11880
      14     C     3.08825  3.08825  0.00000 -0.17651
      15     H     0.45791  0.45791  0.00000  0.08418
      16     H     0.46777  0.46777  0.00000  0.06446
      17     C     3.15420  3.15420  0.00000 -0.30840
      18     H     0.45268  0.45268  0.00000  0.09463
      19     H     0.45181  0.45181  0.00000  0.09638
      20     H     0.46025  0.46025  0.00000  0.07951
      21     H     0.44859  0.44859  0.00000  0.10282
      22     H     0.44435  0.44435  0.00000  0.11131

   Total alpha = 29.00000, Total beta = 29.00000, Total charge = -0.00000
