  ==> Input File <==

--------------------------------------------------------------------------
set {
	reference rhf
	basis 6-31G*
}

set_num_threads( 1 )
memory 2 gb

molecule MOL {
0 1

H	 -3.892951	 0.981613	 -0.358725
C	 -3.196921	 0.361773	 0.172313
C	 -2.076860	 -0.007332	 -0.404944
H	 -3.439953	 0.057760	 1.173024
O	 -1.176441	 -0.811945	 0.218517
H	 -1.814774	 0.286366	 -1.406068
C	 0.055148	 -1.011328	 -0.385870
C	 1.044412	 0.068407	 -0.009277
H	 -0.016389	 -1.041365	 -1.467385
H	 0.445504	 -1.955145	 -0.034705
F	 2.212860	 -0.185707	 -0.580208
F	 0.648116	 1.261879	 -0.419649
F	 1.234209	 0.133678	 1.292302

	symmetry c1
}
set optking {
	frozen_dihedral = ("
		11 8 7 9,
		3 5 7 9,
		6 3 5 7
	")
}

ee = energy('scf')
oeprop('DIPOLE', 'QUADRUPOLE', 'MULLIKEN_CHARGES')
f=open( 'psi4out.xyz', 'w' )
f.write( "13  " )
f.write( str(ee) + "\n" )
f.write( MOL.save_string_xyz() )
f.close()
--------------------------------------------------------------------------

    Molecular point group: c1

    Geometry (in Angstrom), charge = 0, multiplicity = 1:

       Center              X                  Y                   Z               Mass
    ------------   -----------------  -----------------  -----------------  -----------------
           H         -3.893803695087     0.971673860010    -0.354024260071     1.007825032070
           C         -3.197773695087     0.351833860010     0.177013739929    12.000000000000
           C         -2.077712695087    -0.017271139990    -0.400243260071    12.000000000000
           H         -3.440805695087     0.047820860010     1.177724739929     1.007825032070
           O         -1.177293695087    -0.821884139990     0.223217739929    15.994914619560
           H         -1.815626695087     0.276426860010    -1.401367260071     1.007825032070
           C          0.054295304913    -1.021267139990    -0.381169260071    12.000000000000
           C          1.043559304913     0.058467860010    -0.004576260071    12.000000000000
           H         -0.017241695087    -1.051304139990    -1.462684260071     1.007825032070
           H          0.444651304913    -1.965084139990    -0.030004260071     1.007825032070
           F          2.212007304913    -0.195646139990    -0.575507260071    18.998403224000
           F          0.647263304913     1.251939860010    -0.414948260071    18.998403224000
           F          1.233356304913     0.123738860010     1.297002739929    18.998403224000

  Charge       = 0
  Multiplicity = 1
  Basis Set: 6-31G*
  Basis Set:

    Orbital Energies (a.u.)
    -----------------------

    Doubly Occupied:

       1A    -26.344641     2A    -26.343713     3A    -26.340592
       4A    -20.608423     5A    -11.503182     6A    -11.318980
       7A    -11.299426     8A    -11.215754     9A     -1.741763
      10A     -1.639883    11A     -1.638283    12A     -1.438294
      13A     -1.084243    14A     -1.016467    15A     -0.925355
      16A     -0.836586    17A     -0.830994    18A     -0.821296
      19A     -0.791845    20A     -0.721870    21A     -0.711352
      22A     -0.696467    23A     -0.675876    24A     -0.660397
      25A     -0.654671    26A     -0.643131    27A     -0.634276
      28A     -0.584693    29A     -0.563073    30A     -0.524017
      31A     -0.514134    32A     -0.351429

  @DF-RHF Final Energy:  -527.53591188372843

   => Energetics <=

    Nuclear Repulsion Energy =            413.5241676701824076
    One-Electron Energy =               -1550.7698087599080736
    Two-Electron Energy =                 609.7097292059966094
    DFT Exchange-Correlation Energy =       0.0000000000000000
    Empirical Dispersion Energy =           0.0000000000000000
    PCM Polarization Energy =               0.0000000000000000
    EFP Energy =                            0.0000000000000000
    Total Energy =                       -527.5359118837291135

  Mulliken Charges: (a.u.)
   Center  Symbol    Alpha    Beta     Spin     Total
       1     H     0.40706  0.40706  0.00000  0.18587
       2     C     3.23567  3.23567  0.00000 -0.47134
       3     C     2.89523  2.89523  0.00000  0.20955
       4     H     0.40182  0.40182  0.00000  0.19636
       5     O     4.30168  4.30168  0.00000 -0.60336
       6     H     0.40677  0.40677  0.00000  0.18646
       7     C     3.06397  3.06397  0.00000 -0.12794
       8     C     2.45564  2.45564  0.00000  1.08873
       9     H     0.40553  0.40553  0.00000  0.18893
      10     H     0.38975  0.38975  0.00000  0.22051
      11     F     4.68281  4.68281  0.00000 -0.36563
      12     F     4.67960  4.67960  0.00000 -0.35920
      13     F     4.67447  4.67447  0.00000 -0.34893

   Total alpha = 32.00000, Total beta = 32.00000, Total charge = -0.00000
