  ==> Input File <==

--------------------------------------------------------------------------
set {
	reference rhf
	basis cc-pvtz
}

set_num_threads( 4 )
memory 2 gb

molecule MOL {
0 1

H	 0.693550	 -1.979477	 0.899450
C	 -0.036872	 -1.198048	 1.116938
N	 -0.537714	 -0.645117	 0.000000
O	 -0.325636	 -0.903047	 2.233319
C	 -1.522613	 0.412524	 0.000000
H	 -0.205817	 -0.989812	 -0.866610
H	 -2.150256	 0.356137	 -0.880771
H	 -1.005621	 1.357208	 0.000000
H	 -2.150256	 0.356137	 0.880771

	symmetry c1
}
set optking {
	frozen_dihedral = ("
		6 3 5 7
	")
}

ee = optimize('scf')
oeprop('DIPOLE', 'QUADRUPOLE', 'MULLIKEN_CHARGES')
f=open( 'psi4out.xyz', 'w' )
f.write( "9  " )
f.write( str(ee) + "\n" )
f.write( MOL.save_string_xyz() )
f.close()
--------------------------------------------------------------------------

    Molecular point group: c1
  Charge       = 0
  Multiplicity = 1
  Basis Set: CC-PVTZ
  Basis Set:
  @DF-RHF Final Energy:  -208.04290542354212
    Total Energy =                       -208.0429054235420381
    Molecular point group: c1
  Basis Set: CC-PVTZ
  Basis Set:
  Basis Set: CC-PVTZ
  Basis Set:
  @DF-RHF Final Energy:  -208.04349601327908
    Total Energy =                       -208.0434960132791957
  Basis Set: CC-PVTZ
  Basis Set:
  Basis Set: CC-PVTZ
  Basis Set:
  @DF-RHF Final Energy:  -208.04360802355757
    Total Energy =                       -208.0436080235575673
  Basis Set: CC-PVTZ
  Basis Set:
  Basis Set: CC-PVTZ
  Basis Set:
  @DF-RHF Final Energy:  -208.04354010644150
    Total Energy =                       -208.0435401064414691
  Basis Set: CC-PVTZ
  Basis Set:
  Basis Set: CC-PVTZ
  Basis Set:
  @DF-RHF Final Energy:  -208.04364612643823
    Total Energy =                       -208.0436461264382046
  Basis Set: CC-PVTZ
  Basis Set:
  Basis Set: CC-PVTZ
  Basis Set:
  @DF-RHF Final Energy:  -208.04367074008240
    Total Energy =                       -208.0436707400824048
  Basis Set: CC-PVTZ
  Basis Set:
  Basis Set: CC-PVTZ
  Basis Set:
  @DF-RHF Final Energy:  -208.04367620254209
    Total Energy =                       -208.0436762025420876
  Basis Set: CC-PVTZ
  Basis Set:
  Charge       = 0
  Multiplicity = 1
  Basis Set: CC-PVTZ
  Basis Set:

    Orbital Energies (a.u.)
    -----------------------

    Doubly Occupied:

       1A    -20.516844     2A    -15.584586     3A    -11.336643
       4A    -11.260011     5A     -1.394141     6A     -1.239552
       7A     -0.969848     8A     -0.808714     9A     -0.748872
      10A     -0.646177    11A     -0.629878    12A     -0.596276
      13A     -0.557995    14A     -0.538788    15A     -0.428638
      16A     -0.396696

  @DF-RHF Final Energy:  -208.04367626999490

   => Energetics <=

    Nuclear Repulsion Energy =            122.8533453326698179
    One-Electron Energy =                -526.4867234504005182
    Two-Electron Energy =                 195.5897018477355687
    DFT Exchange-Correlation Energy =       0.0000000000000000
    Empirical Dispersion Energy =           0.0000000000000000
    PCM Polarization Energy =               0.0000000000000000
    EFP Energy =                            0.0000000000000000
    Total Energy =                       -208.0436762699951032
    Molecular point group: c1
  Basis Set: CC-PVTZ
  Basis Set:

  -Total Gradient:
     Atom            X                  Y                   Z
    ------   -----------------  -----------------  -----------------
       1        0.000000600892    -0.000002850896     0.000008048290
       2        0.000011683457    -0.000013328115    -0.000054130187
       3       -0.000063827752    -0.000060943997     0.000024367590
       4       -0.000011312060     0.000012940200     0.000024434887
       5        0.000043284892     0.000053579581    -0.000027513498
       6        0.000048519856     0.000038955711     0.000003953666
       7       -0.000035626625    -0.000027575452     0.000021348874
       8        0.000004092275    -0.000000375650    -0.000001432310
       9        0.000002585065    -0.000000401383     0.000000922691

  **** Optimization is complete! (in 8 steps) ****
    Final optimized geometry and variables:
    Molecular point group: c1

    Geometry (in Angstrom), charge = 0, multiplicity = 1:

    H            1.296655063518    -1.424138208660     0.083042648947
    C            0.580874720342    -0.624832439473     0.284305289741
    N            0.026714332217    -0.132209092641    -0.835284192995
    O            0.333307108998    -0.262910208993     1.390765395647
    C           -0.906237845909     0.972189875781    -0.821208199709
    H            0.376787189854    -0.455272338354    -1.702754236586
    H           -1.483262665414     0.959144287815    -1.735012269739
    H           -0.401623534535     1.927606150073    -0.737175289295
    H           -1.575517041124     0.866269870780     0.017985184015

  Mulliken Charges: (a.u.)
   Center  Symbol    Alpha    Beta     Spin     Total
       1     H     0.46388  0.46388  0.00000  0.07225
       2     C     2.88034  2.88034  0.00000  0.23931
       3     N     3.60621  3.60621  0.00000 -0.21241
       4     O     4.21398  4.21398  0.00000 -0.42797
       5     C     3.07739  3.07739  0.00000 -0.15478
       6     H     0.41048  0.41048  0.00000  0.17904
       7     H     0.45394  0.45394  0.00000  0.09212
       8     H     0.45468  0.45468  0.00000  0.09065
       9     H     0.43910  0.43910  0.00000  0.12180

   Total alpha = 16.00000, Total beta = 16.00000, Total charge = -0.00000
