                              Psi4 1.0.54 Driver

  ==> Input File <==

--------------------------------------------------------------------------
set {
	reference rhf
	basis cc-pvtz
}

set_num_threads( 4 )
memory 2 gb

molecule MOL {
0 1

O	 0.623971	 1.347241	 -0.000777
C	 0.485107	 0.171416	 -0.000134
C	 1.606966	 -0.836201	 0.000174
O	 -0.695554	 -0.422406	 0.000602
C	 2.988788	 -0.202529	 -0.000115
H	 1.465110	 -1.474645	 -0.864821
H	 1.465209	 -1.474077	 0.865596
H	 3.131767	 0.419673	 -0.873407
H	 3.750876	 -0.972315	 0.000098
H	 3.131883	 0.420264	 0.872742
C	 -1.776919	 0.251461	 -0.627760
C	 -3.003216	 -0.621249	 -0.497143
H	 -1.526479	 0.431544	 -1.663713
H	 -1.919950	 1.210917	 -0.150990
H	 -2.847920	 -1.579266	 -0.977204
H	 -3.849645	 -0.135164	 -0.967794
H	 -3.243687	 -0.795411	 0.544112

	symmetry c1
}
set optking {
	frozen_dihedral = ("
		11 4 2 3
	")
}

ee,wfn = optimize('scf', return_wfn=True)
oeprop( wfn, 'DIPOLE', 'QUADRUPOLE', 'MULLIKEN_CHARGES')
f=open( 'psi4out.xyz', 'w' )
f.write( "17  " )
f.write( str(ee) + "\n" )
f.write( MOL.save_string_xyz() )
f.close()
--------------------------------------------------------------------------

    Molecular point group: c1
  Charge       = 0
  Multiplicity = 1
  Basis Set: CC-PVTZ
  Basis Set:
  @DF-RHF Final Energy:  -345.03579432772767
    Total Energy =                       -345.0357943277272739
    Molecular point group: c1
  Basis Set: CC-PVTZ
  Basis Set:
  Basis Set: CC-PVTZ
  Basis Set:
  @DF-RHF Final Energy:  -345.03279922166388
    Total Energy =                       -345.0327992216639359
  Basis Set: CC-PVTZ
  Basis Set:
  Basis Set: CC-PVTZ
  Basis Set:
  @DF-RHF Final Energy:  -345.03618401252447
    Total Energy =                       -345.0361840125240178
  Basis Set: CC-PVTZ
  Basis Set:
  Basis Set: CC-PVTZ
  Basis Set:
  @DF-RHF Final Energy:  -345.03634549089986
    Total Energy =                       -345.0363454909000893
  Basis Set: CC-PVTZ
  Basis Set:
  Basis Set: CC-PVTZ
  Basis Set:
  @DF-RHF Final Energy:  -345.03639317776384
    Total Energy =                       -345.0363931777633297
  Basis Set: CC-PVTZ
  Basis Set:
  Basis Set: CC-PVTZ
  Basis Set:
  @DF-RHF Final Energy:  -345.03641001222013
    Total Energy =                       -345.0364100122205286
  Basis Set: CC-PVTZ
  Basis Set:
  Basis Set: CC-PVTZ
  Basis Set:
  @DF-RHF Final Energy:  -345.03641140660301
    Total Energy =                       -345.0364114066027241
  Basis Set: CC-PVTZ
  Basis Set:
  Charge       = 0
  Multiplicity = 1
  Basis Set: CC-PVTZ
  Basis Set:

    Orbital Energies (a.u.)
    -----------------------

    Doubly Occupied:

       1A    -20.589431     2A    -20.534716     3A    -11.364245
       4A    -11.284331     5A    -11.236758     6A    -11.220773
       7A    -11.214413     8A     -1.467947     9A     -1.365244
      10A     -1.070141    11A     -1.033294    12A     -0.911047
      13A     -0.850466    14A     -0.773893    15A     -0.699331
      16A     -0.688623    17A     -0.667925    18A     -0.630477
      19A     -0.587989    20A     -0.573491    21A     -0.557912
      22A     -0.526235    23A     -0.522330    24A     -0.515033
      25A     -0.504800    26A     -0.494526    27A     -0.455359
      28A     -0.437950

  @DF-RHF Final Energy:  -345.03641208117011

   => Energetics <=

    Nuclear Repulsion Energy =            315.0815996964686860
    One-Electron Energy =               -1094.6786655237319792
    Two-Electron Energy =                 434.5606537460932941
    DFT Exchange-Correlation Energy =       0.0000000000000000
    Empirical Dispersion Energy =           0.0000000000000000
    PCM Polarization Energy =               0.0000000000000000
    EFP Energy =                            0.0000000000000000
    Total Energy =                       -345.0364120811700559
    Molecular point group: c1
  Basis Set: CC-PVTZ
  Basis Set:

  -Total Gradient:
     Atom            X                  Y                   Z
    ------   -----------------  -----------------  -----------------
       1        0.000000228744     0.000041755244     0.000076614123
       2        0.001075091720    -0.000914882029     0.005277432777
       3       -0.000307208923    -0.000663753827    -0.005642809244
       4       -0.001846592277     0.004947269499     0.005575444232
       5       -0.000017414304     0.000033858588     0.000003481778
       6        0.000000874815     0.000033614957     0.000035395388
       7        0.000008341980     0.000057313124    -0.000058932816
       8       -0.000013021677    -0.000033975375     0.000041009973
       9       -0.000006573501     0.000012058390     0.000001183321
      10        0.000007649124    -0.000022588894    -0.000039019756
      11        0.001099673376    -0.003485585893    -0.005266800242
      12       -0.000001979365     0.000008543942     0.000004123404
      13       -0.000006056161    -0.000002378038     0.000005748202
      14       -0.000002526434    -0.000024044214    -0.000006661341
      15        0.000003001830     0.000014713354     0.000006268534
      16        0.000001335515    -0.000003021090     0.000001865720
      17        0.000005175539     0.000001102257    -0.000014344055

  **** Optimization is complete! (in 8 steps) ****
    Final optimized geometry and variables:
    Molecular point group: c1

    Geometry (in Angstrom), charge = 0, multiplicity = 1:

    O            0.628280063082     1.380749636172    -0.092295526795
    C            0.474745647264     0.225762903190     0.111128789123
    C            1.580484376665    -0.797033099471     0.159121875811
    O           -0.719403923576    -0.338382890162     0.236930261569
    C            2.969900918859    -0.190301467735     0.270177422688
    H            1.479538149367    -1.378027479546    -0.752574481211
    H            1.376432415512    -1.483042083693     0.972317538692
    H            3.169216438577     0.477726717825    -0.556063253616
    H            3.719568663686    -0.972111098775     0.269650344516
    H            3.074125979644     0.378498579738     1.185278922466
    C           -1.819583937849     0.293738375621    -0.403468065764
    C           -3.023028414811    -0.606511554330    -0.251851102887
    H           -1.571262251537     0.450029871660    -1.445243856388
    H           -1.991676152194     1.261098350812     0.045467489301
    H           -2.842822823402    -1.573019740977    -0.705316156481
    H           -3.881296535235    -0.154465603143    -0.734899010912
    H           -3.258839675674    -0.757764210463     0.793912683023

  Mulliken Charges: (a.u.)
   Center  Symbol    Alpha    Beta     Spin     Total
       1     O     4.19243  4.19243  0.00000 -0.38486
       2     C     2.80976  2.80976  0.00000  0.38048
       3     C     3.09136  3.09136  0.00000 -0.18273
       4     O     4.15560  4.15560  0.00000 -0.31120
       5     C     3.14072  3.14072  0.00000 -0.28144
       6     H     0.44578  0.44578  0.00000  0.10845
       7     H     0.43925  0.43925  0.00000  0.12150
       8     H     0.44570  0.44570  0.00000  0.10860
       9     H     0.45044  0.45044  0.00000  0.09911
      10     H     0.45039  0.45039  0.00000  0.09923
      11     C     2.97904  2.97904  0.00000  0.04192
      12     C     3.13335  3.13335  0.00000 -0.26669
      13     H     0.46028  0.46028  0.00000  0.07945
      14     H     0.44879  0.44879  0.00000  0.10243
      15     H     0.45223  0.45223  0.00000  0.09554
      16     H     0.45493  0.45493  0.00000  0.09013
      17     H     0.44996  0.44996  0.00000  0.10009

   Total alpha = 28.00000, Total beta = 28.00000, Total charge =  0.00000

*** Psi4 exiting successfully. Buy a developer a beer!
