                              Psi4 1.0.54 Driver

  ==> Input File <==

--------------------------------------------------------------------------
set {
	reference rhf
	basis cc-pvtz
}

set_num_threads( 4 )
memory 2 gb

molecule MOL {
0 1

H	 -2.266619	 1.169943	 0.000098
O	 -1.438073	 1.611259	 0.000041
C	 -0.408657	 0.734701	 0.000005
C	 0.759336	 1.143074	 -0.616787
C	 -0.505035	 -0.521039	 0.588173
H	 0.793948	 2.119397	 -1.058970
C	 1.849571	 0.299895	 -0.654245
C	 0.605848	 -1.347293	 0.535545
C	 -1.780336	 -0.965190	 1.260885
H	 2.752985	 0.623724	 -1.134826
C	 1.778710	 -0.953112	 -0.076851
H	 0.547385	 -2.320989	 0.985508
H	 -2.616879	 -0.982054	 0.567898
H	 -1.673619	 -1.963610	 1.659896
H	 -2.047742	 -0.313669	 2.088133
H	 2.622788	 -1.614370	 -0.102141

	symmetry c1
}
set optking {
	frozen_dihedral = ("
		4 3 2 1
	")
}

ee,wfn = optimize('scf', return_wfn=True)
oeprop( wfn, 'DIPOLE', 'QUADRUPOLE', 'MULLIKEN_CHARGES')
f=open( 'psi4out.xyz', 'w' )
f.write( "16  " )
f.write( str(ee) + "\n" )
f.write( MOL.save_string_xyz() )
f.close()
--------------------------------------------------------------------------

    Molecular point group: c1
  Charge       = 0
  Multiplicity = 1
  Basis Set: CC-PVTZ
  Basis Set:
  @DF-RHF Final Energy:  -344.71840203757870
    Total Energy =                       -344.7184020375785849
    Molecular point group: c1
  Basis Set: CC-PVTZ
  Basis Set:
  Basis Set: CC-PVTZ
  Basis Set:
  @DF-RHF Final Energy:  -344.71850920343337
    Total Energy =                       -344.7185092034332001
  Basis Set: CC-PVTZ
  Basis Set:
  Basis Set: CC-PVTZ
  Basis Set:
  @DF-RHF Final Energy:  -344.71852930634861
    Total Energy =                       -344.7185293063491827
  Basis Set: CC-PVTZ
  Basis Set:
  Basis Set: CC-PVTZ
  Basis Set:
  @DF-RHF Final Energy:  -344.71853183740416
    Total Energy =                       -344.7185318374043277
  Basis Set: CC-PVTZ
  Basis Set:
  Charge       = 0
  Multiplicity = 1
  Basis Set: CC-PVTZ
  Basis Set:

    Orbital Energies (a.u.)
    -----------------------

    Doubly Occupied:

       1A    -20.578817     2A    -11.288968     3A    -11.233779
       4A    -11.230114     5A    -11.228192     6A    -11.227193
       7A    -11.218596     8A    -11.218327     9A     -1.408157
      10A     -1.153580    11A     -1.051312    12A     -1.007807
      13A     -0.942561    14A     -0.828431    15A     -0.821742
      16A     -0.733598    17A     -0.679328    18A     -0.648688
      19A     -0.618957    20A     -0.600165    21A     -0.576942
      22A     -0.572554    23A     -0.554830    24A     -0.546393
      25A     -0.505014    26A     -0.486913    27A     -0.475968
      28A     -0.333586    29A     -0.312509

  @DF-RHF Final Energy:  -344.71853218727296

   => Energetics <=

    Nuclear Repulsion Energy =            350.9373748460150750
    One-Electron Energy =               -1163.1457736979511992
    Two-Electron Energy =                 467.4898666646631114
    DFT Exchange-Correlation Energy =       0.0000000000000000
    Empirical Dispersion Energy =           0.0000000000000000
    PCM Polarization Energy =               0.0000000000000000
    EFP Energy =                            0.0000000000000000
    Total Energy =                       -344.7185321872730697
    Molecular point group: c1
  Basis Set: CC-PVTZ
  Basis Set:

  -Total Gradient:
     Atom            X                  Y                   Z
    ------   -----------------  -----------------  -----------------
       1       -0.000049583853     0.000020078568    -0.001669796714
       2       -0.000190829543    -0.000179131754     0.001606279973
       3        0.000687188073     0.000546478949     0.001104954480
       4       -0.000433839600    -0.000437321115    -0.001043330159
       5       -0.000033843288     0.000037236850    -0.000014047268
       6        0.000003489389     0.000001524754     0.000010424440
       7        0.000002187704     0.000013062512    -0.000007725899
       8        0.000022769609    -0.000013777827    -0.000031465513
       9        0.000025279938     0.000007358378     0.000042452269
      10        0.000002437422    -0.000009124144     0.000004799265
      11       -0.000014094643     0.000001991684     0.000027975226
      12       -0.000000226875     0.000010413587     0.000000499962
      13       -0.000017486627    -0.000005479904    -0.000013391088
      14       -0.000003947930     0.000007054722    -0.000012072347
      15       -0.000008756095    -0.000002473013     0.000001960113
      16        0.000009256316     0.000002107754    -0.000007516739

  **** Optimization is complete! (in 5 steps) ****
    Final optimized geometry and variables:
    Molecular point group: c1

    Geometry (in Angstrom), charge = 0, multiplicity = 1:

    H           -2.286396395789     1.154435487852    -0.079254855820
    O           -1.455874093401     1.593369480085    -0.099683164518
    C           -0.430364665400     0.705839566260    -0.141950950202
    C            0.724405382109     1.102748475133    -0.786811961871
    C           -0.524191568565    -0.546670925704     0.453746212472
    H            0.754574630345     2.075530434137    -1.237026440092
    C            1.811877605441     0.254395536682    -0.837829887823
    C            0.577142070499    -1.382796820309     0.378441186477
    C           -1.786089100283    -0.969968385377     1.162532700851
    H            2.708150294940     0.569889627966    -1.336853036332
    C            1.741391825524    -0.995947951548    -0.256983807245
    H            0.522223964297    -2.354444809648     0.833111477538
    H           -2.629039466701    -1.044684240066     0.479730807318
    H           -1.660579334535    -1.941214231532     1.619519268648
    H           -2.056885686669    -0.266466204298     1.942106262551
    H            2.580651912429    -1.662897101786    -0.295699835316

  Mulliken Charges: (a.u.)
   Center  Symbol    Alpha    Beta     Spin     Total
       1     H     0.38564  0.38564  0.00000  0.22871
       2     O     4.17841  4.17841  0.00000 -0.35681
       3     C     2.87757  2.87757  0.00000  0.24485
       4     C     3.11135  3.11135  0.00000 -0.22270
       5     C     3.00668  3.00668  0.00000 -0.01337
       6     H     0.41906  0.41906  0.00000  0.16189
       7     C     3.06776  3.06776  0.00000 -0.13552
       8     C     3.08651  3.08651  0.00000 -0.17303
       9     C     3.15916  3.15916  0.00000 -0.31832
      10     H     0.42244  0.42244  0.00000  0.15513
      11     C     3.08838  3.08838  0.00000 -0.17677
      12     H     0.42542  0.42542  0.00000  0.14915
      13     H     0.45720  0.45720  0.00000  0.08561
      14     H     0.44721  0.44721  0.00000  0.10557
      15     H     0.44241  0.44241  0.00000  0.11518
      16     H     0.42478  0.42478  0.00000  0.15043

   Total alpha = 29.00000, Total beta = 29.00000, Total charge = -0.00000

*** Psi4 exiting successfully. Buy a developer a beer!
