  ==> Input File <==

--------------------------------------------------------------------------
set {
	reference rhf
	basis 6-31G*
}

set_num_threads( 1 )
memory 2 gb

molecule MOL {
0 1

H	 3.622375	 0.015710	 -0.877809
N	 3.092854	 -0.246221	 -0.068770
C	 1.865559	 0.531981	 0.018834
H	 3.676281	 -0.072527	 0.727643
C	 0.645745	 -0.382037	 -0.029944
H	 1.841966	 1.207024	 -0.831236
H	 1.815756	 1.155410	 0.915079
C	 -0.679275	 0.379305	 0.025956
H	 0.698998	 -0.976915	 -0.937203
H	 0.693479	 -1.083846	 0.802235
C	 -1.903357	 -0.536963	 -0.023547
H	 -0.726309	 1.082987	 -0.803784
H	 -0.717680	 0.977832	 0.934877
C	 -3.225172	 0.228290	 0.028445
H	 -1.867824	 -1.134999	 -0.931459
H	 -1.860449	 -1.239604	 0.805977
H	 -3.313397	 0.915643	 -0.808262
H	 -4.073500	 -0.448134	 -0.008893
H	 -3.306061	 0.809945	 0.942516

	symmetry c1
}
set optking {
	frozen_dihedral = ("
		6 3 5 9,
		12 8 5 9,
		12 8 11 15
	")
}

ee = energy('scf')
oeprop('DIPOLE', 'QUADRUPOLE', 'MULLIKEN_CHARGES')
f=open( 'psi4out.xyz', 'w' )
f.write( "19  " )
f.write( str(ee) + "\n" )
f.write( MOL.save_string_xyz() )
f.close()
--------------------------------------------------------------------------

    Molecular point group: c1

    Geometry (in Angstrom), charge = 0, multiplicity = 1:

       Center              X                  Y                   Z               Mass
    ------------   -----------------  -----------------  -----------------  -----------------
           H          3.619991861752     0.010922159686    -0.868659875577     1.007825032070
           N          3.090470861752    -0.251008840314    -0.059620875577    14.003074004780
           C          1.863175861752     0.527193159686     0.027983124423    12.000000000000
           H          3.673897861752    -0.077314840314     0.736792124423     1.007825032070
           C          0.643361861752    -0.386824840314    -0.020794875577    12.000000000000
           H          1.839582861752     1.202236159686    -0.822086875577     1.007825032070
           H          1.813372861752     1.150622159686     0.924228124423     1.007825032070
           C         -0.681658138248     0.374517159686     0.035105124423    12.000000000000
           H          0.696614861752    -0.981702840314    -0.928053875577     1.007825032070
           H          0.691095861752    -1.088633840314     0.811384124423     1.007825032070
           C         -1.905740138248    -0.541750840314    -0.014397875577    12.000000000000
           H         -0.728692138248     1.078199159686    -0.794634875577     1.007825032070
           H         -0.720063138248     0.973044159686     0.944026124423     1.007825032070
           C         -3.227555138248     0.223502159686     0.037594124423    12.000000000000
           H         -1.870207138248    -1.139786840314    -0.922309875577     1.007825032070
           H         -1.862832138248    -1.244391840314     0.815126124423     1.007825032070
           H         -3.315780138248     0.910855159686    -0.799112875577     1.007825032070
           H         -4.075883138248    -0.452921840314     0.000256124423     1.007825032070
           H         -3.308444138248     0.805157159686     0.951665124423     1.007825032070

  Charge       = 0
  Multiplicity = 1
  Basis Set: 6-31G*
  Basis Set:

    Orbital Energies (a.u.)
    -----------------------

    Doubly Occupied:

       1A    -15.531694     2A    -11.240107     3A    -11.211268
       4A    -11.208753     5A    -11.205535     6A    -11.201936
       7A     -1.176204     8A     -1.069935     9A     -0.995957
      10A     -0.898717    11A     -0.809073    12A     -0.784261
      13A     -0.676764    14A     -0.633947    15A     -0.614330
      16A     -0.575847    17A     -0.569715    18A     -0.553211
      19A     -0.515974    20A     -0.505207    21A     -0.471688
      22A     -0.461721    23A     -0.457213    24A     -0.454155
      25A     -0.377618

  @DF-RHF Final Energy:  -251.34764427185164

   => Energetics <=

    Nuclear Repulsion Energy =            245.4373493500709458
    One-Electron Energy =                -825.1683900372775042
    Two-Electron Energy =                 328.3833964153542411
    DFT Exchange-Correlation Energy =       0.0000000000000000
    Empirical Dispersion Energy =           0.0000000000000000
    PCM Polarization Energy =               0.0000000000000000
    EFP Energy =                            0.0000000000000000
    Total Energy =                       -251.3476442718523458

  Mulliken Charges: (a.u.)
   Center  Symbol    Alpha    Beta     Spin     Total
       1     H     0.33161  0.33161  0.00000  0.33678
       2     N     3.92338  3.92338  0.00000 -0.84676
       3     C     3.07044  3.07044  0.00000 -0.14088
       4     H     0.33241  0.33241  0.00000  0.33517
       5     C     3.13789  3.13789  0.00000 -0.27577
       6     H     0.42710  0.42710  0.00000  0.14580
       7     H     0.42562  0.42562  0.00000  0.14875
       8     C     3.15705  3.15705  0.00000 -0.31411
       9     H     0.42085  0.42085  0.00000  0.15830
      10     H     0.42173  0.42173  0.00000  0.15653
      11     C     3.15016  3.15016  0.00000 -0.30032
      12     H     0.42615  0.42615  0.00000  0.14769
      13     H     0.42620  0.42620  0.00000  0.14760
      14     C     3.23899  3.23899  0.00000 -0.47798
      15     H     0.42271  0.42271  0.00000  0.15459
      16     H     0.42280  0.42280  0.00000  0.15441
      17     H     0.42250  0.42250  0.00000  0.15499
      18     H     0.41985  0.41985  0.00000  0.16030
      19     H     0.42255  0.42255  0.00000  0.15491

   Total alpha = 25.00000, Total beta = 25.00000, Total charge =  0.00000
