                              Psi4 1.0.54 Driver

  ==> Input File <==

--------------------------------------------------------------------------
set {
	reference rhf
	basis cc-pvtz
}

set_num_threads( 4 )
memory 2 gb

molecule MOL {
0 1

H	 -0.366580	 2.045936	 -0.305741
C	 0.351829	 1.335402	 0.083179
N	 -0.000018	 0.000080	 -0.334836
H	 1.327156	 1.599860	 -0.305475
H	 0.380566	 1.445403	 1.171445
C	 0.785846	 -0.436826	 -1.463512
C	 0.055918	 -0.940287	 0.758243
H	 0.448803	 -1.411268	 -1.793599
H	 0.665787	 0.254950	 -2.287660
H	 1.853417	 -0.508013	 -1.234834
H	 -0.597834	 -0.616744	 1.558312
H	 -0.280114	 -1.914274	 0.425742
H	 1.063385	 -1.052657	 1.169940

	symmetry c1
}
set optking {
	frozen_dihedral = ("
		6 3 2 1
	")
}

ee,wfn = optimize('scf', return_wfn=True)
oeprop( wfn, 'DIPOLE', 'QUADRUPOLE', 'MULLIKEN_CHARGES')
f=open( 'psi4out.xyz', 'w' )
f.write( "13  " )
f.write( str(ee) + "\n" )
f.write( MOL.save_string_xyz() )
f.close()
--------------------------------------------------------------------------

    Molecular point group: c1
  Charge       = 0
  Multiplicity = 1
  Basis Set: CC-PVTZ
  Basis Set:
  @DF-RHF Final Energy:  -173.32780197606027
    Total Energy =                       -173.3278019760603001
    Molecular point group: c1
  Basis Set: CC-PVTZ
  Basis Set:
  Basis Set: CC-PVTZ
  Basis Set:
  @DF-RHF Final Energy:  -173.32859194134474
    Total Energy =                       -173.3285919413447118
  Basis Set: CC-PVTZ
  Basis Set:
  Basis Set: CC-PVTZ
  Basis Set:
  @DF-RHF Final Energy:  -173.32872340238981
    Total Energy =                       -173.3287234023898407
  Basis Set: CC-PVTZ
  Basis Set:
  Basis Set: CC-PVTZ
  Basis Set:
  @DF-RHF Final Energy:  -173.32872789018870
    Total Energy =                       -173.3287278901888158
  Basis Set: CC-PVTZ
  Basis Set:
  Charge       = 0
  Multiplicity = 1
  Basis Set: CC-PVTZ
  Basis Set:

    Orbital Energies (a.u.)
    -----------------------

    Doubly Occupied:

       1A    -15.537507     2A    -11.233937     3A    -11.233853
       4A    -11.233686     5A     -1.222731     6A     -0.951866
       7A     -0.950817     8A     -0.807658     9A     -0.640361
      10A     -0.629874    11A     -0.627107    12A     -0.551796
      13A     -0.545554    14A     -0.513783    15A     -0.501229
      16A     -0.498279    17A     -0.346326

  @DF-RHF Final Energy:  -173.32872844145396

   => Energetics <=

    Nuclear Repulsion Energy =            139.1246040057453683
    One-Electron Energy =                -508.8539356123492894
    Two-Electron Energy =                 196.4006031651499598
    DFT Exchange-Correlation Energy =       0.0000000000000000
    Empirical Dispersion Energy =           0.0000000000000000
    PCM Polarization Energy =               0.0000000000000000
    EFP Energy =                            0.0000000000000000
    Total Energy =                       -173.3287284414539613
    Molecular point group: c1
  Basis Set: CC-PVTZ
  Basis Set:

  -Total Gradient:
     Atom            X                  Y                   Z
    ------   -----------------  -----------------  -----------------
       1       -0.002313458443    -0.000555234382     0.003568728088
       2        0.003769752864     0.000200836724    -0.003809933912
       3       -0.003657962432     0.001501407254    -0.001755718180
       4       -0.000009670818    -0.000006818706    -0.000000924931
       5        0.000006038647     0.000015132772     0.000018429500
       6        0.002209049497    -0.001156015831     0.002025707142
       7       -0.000046636168     0.000046117925    -0.000060592746
       8        0.000007139056    -0.000002771163    -0.000005665598
       9        0.000014555224    -0.000004496818    -0.000018189073
      10        0.000009978433    -0.000003091790     0.000000867132
      11        0.000004202910    -0.000013703888     0.000016643062
      12        0.000002740350    -0.000020615966     0.000018505675
      13        0.000004270880    -0.000000746131     0.000002143842

  **** Optimization is complete! (in 5 steps) ****
    Final optimized geometry and variables:
    Molecular point group: c1

    Geometry (in Angstrom), charge = 0, multiplicity = 1:

    H           -0.705854922583     2.075396442725    -0.031683072657
    C            0.021752126306     1.358450640382     0.332549597753
    N           -0.317525741752     0.010694805373    -0.095024524113
    H            1.013630604492     1.663472975337     0.006847538667
    H            0.004690822736     1.426507408841     1.413333381281
    C            0.455553808379    -0.408738329961    -1.239577110383
    C           -0.240235903282    -0.956855284403     0.975105673353
    H            0.104671075736    -1.369961058663    -1.593828348430
    H            0.339569038144     0.303245701198    -2.047621116685
    H            1.523561875993    -0.496754799073    -1.019396430444
    H           -0.898683487155    -0.670345413703     1.784841229324
    H           -0.562034777603    -1.926332346955     0.615453304888
    H            0.769511395406    -1.068776114102     1.381762539329

  Mulliken Charges: (a.u.)
   Center  Symbol    Alpha    Beta     Spin     Total
       1     H     0.45055  0.45055  0.00000  0.09890
       2     C     3.08634  3.08634  0.00000 -0.17268
       3     N     3.59938  3.59938  0.00000 -0.19876
       4     H     0.46622  0.46622  0.00000  0.06755
       5     H     0.45893  0.45893  0.00000  0.08214
       6     C     3.09111  3.09111  0.00000 -0.18223
       7     C     3.08973  3.08973  0.00000 -0.17946
       8     H     0.45338  0.45338  0.00000  0.09324
       9     H     0.45189  0.45189  0.00000  0.09622
      10     H     0.47337  0.47337  0.00000  0.05326
      11     H     0.45218  0.45218  0.00000  0.09564
      12     H     0.45330  0.45330  0.00000  0.09339
      13     H     0.47361  0.47361  0.00000  0.05278

   Total alpha = 17.00000, Total beta = 17.00000, Total charge =  0.00000

*** Psi4 exiting successfully. Buy a developer a beer!
