  ==> Input File <==

--------------------------------------------------------------------------
set {
	reference rhf
	basis 6-31G*
}

set_num_threads( 1 )
memory 2 gb

molecule MOL {
0 1

H	 -2.936728	 0.775458	 -1.200727
C	 -2.160118	 0.062423	 -1.470167
O	 -1.392607	 -0.295399	 -0.366433
H	 -2.626488	 -0.836787	 -1.848403
H	 -1.548830	 0.499641	 -2.258580
C	 -0.719715	 0.768384	 0.229244
C	 0.719720	 0.768376	 -0.229267
H	 -1.185038	 1.714362	 -0.050570
H	 -0.750528	 0.687237	 1.313896
O	 1.392611	 -0.295398	 0.366430
H	 0.750534	 0.687200	 -1.313918
H	 1.185043	 1.714359	 0.050526
C	 2.706965	 -0.449871	 -0.062409
H	 2.756559	 -0.644779	 -1.131878
H	 3.305899	 0.433456	 0.155466
H	 3.125548	 -1.294566	 0.467107

	symmetry c1
}
set optking {
	frozen_dihedral = ("
		3 6 7 11,
		7 10 13 14
	")
}

ee = energy('scf')
oeprop('DIPOLE', 'QUADRUPOLE', 'MULLIKEN_CHARGES')
f=open( 'psi4out.xyz', 'w' )
f.write( "16  " )
f.write( str(ee) + "\n" )
f.write( MOL.save_string_xyz() )
f.close()
--------------------------------------------------------------------------

    Molecular point group: c1

    Geometry (in Angstrom), charge = 0, multiplicity = 1:

       Center              X                  Y                   Z               Mass
    ------------   -----------------  -----------------  -----------------  -----------------
           H         -3.032816465099     0.685450435630    -0.931443631812     1.007825032070
           C         -2.256206465099    -0.027584564370    -1.200883631812    12.000000000000
           O         -1.488695465099    -0.385406564370    -0.097149631812    15.994914619560
           H         -2.722576465099    -0.926794564370    -1.579119631812     1.007825032070
           H         -1.644918465099     0.409633435630    -1.989296631812     1.007825032070
           C         -0.815803465099     0.678376435630     0.498527368188    12.000000000000
           C          0.623631534901     0.678368435630     0.040016368188    12.000000000000
           H         -1.281126465099     1.624354435630     0.218713368188     1.007825032070
           H         -0.846616465099     0.597229435630     1.583179368188     1.007825032070
           O          1.296522534901    -0.385405564370     0.635713368188    15.994914619560
           H          0.654445534901     0.597192435630    -1.044634631812     1.007825032070
           H          1.088954534901     1.624351435630     0.319809368188     1.007825032070
           C          2.610876534901    -0.539878564370     0.206874368188    12.000000000000
           H          2.660470534901    -0.734786564370    -0.862594631812     1.007825032070
           H          3.209810534901     0.343448435630     0.424749368188     1.007825032070
           H          3.029459534901    -1.384573564370     0.736390368188     1.007825032070

  Charge       = 0
  Multiplicity = 1
  Basis Set: 6-31G*
  Basis Set:

    Orbital Energies (a.u.)
    -----------------------

    Doubly Occupied:

       1A    -20.554126     2A    -20.552534     3A    -11.268961
       4A    -11.267266     5A    -11.266680     6A    -11.264046
       7A     -1.389341     8A     -1.371056     9A     -1.028668
      10A     -0.940008    11A     -0.897493    12A     -0.820899
      13A     -0.689183    14A     -0.678581    15A     -0.658130
      16A     -0.637916    17A     -0.622188    18A     -0.604837
      19A     -0.555408    20A     -0.526891    21A     -0.513709
      22A     -0.483413    23A     -0.468504    24A     -0.415786
      25A     -0.407772

  @DF-RHF Final Energy:  -306.97303111335822

   => Energetics <=

    Nuclear Repulsion Energy =            261.0065872864352627
    One-Electron Energy =                -936.1923534014533743
    Two-Electron Energy =                 368.2127350016595528
    DFT Exchange-Correlation Energy =       0.0000000000000000
    Empirical Dispersion Energy =           0.0000000000000000
    PCM Polarization Energy =               0.0000000000000000
    EFP Energy =                            0.0000000000000000
    Total Energy =                       -306.9730311133586156

  Mulliken Charges: (a.u.)
   Center  Symbol    Alpha    Beta     Spin     Total
       1     H     0.42877  0.42877  0.00000  0.14246
       2     C     3.08132  3.08132  0.00000 -0.16265
       3     O     4.29802  4.29802  0.00000 -0.59604
       4     H     0.41043  0.41043  0.00000  0.17913
       5     H     0.43300  0.43300  0.00000  0.13401
       6     C     3.00462  3.00462  0.00000 -0.00923
       7     C     2.98865  2.98865  0.00000  0.02270
       8     H     0.43082  0.43082  0.00000  0.13836
       9     H     0.40820  0.40820  0.00000  0.18360
      10     O     4.29995  4.29995  0.00000 -0.59991
      11     H     0.43011  0.43011  0.00000  0.13979
      12     H     0.43523  0.43523  0.00000  0.12955
      13     C     3.07907  3.07907  0.00000 -0.15814
      14     H     0.42929  0.42929  0.00000  0.14141
      15     H     0.43167  0.43167  0.00000  0.13666
      16     H     0.41085  0.41085  0.00000  0.17830

   Total alpha = 25.00000, Total beta = 25.00000, Total charge =  0.00000
