  ==> Input File <==

--------------------------------------------------------------------------
set {
	reference rhf
	basis 6-31G*
}

set_num_threads( 4 )
memory 2 gb

molecule MOL {
0 1

H	 -2.273092	 1.173159	 0.000295
O	 -1.438904	 1.618192	 0.000114
C	 -0.409536	 0.736003	 0.000030
C	 -0.455495	 -0.273106	 0.949128
C	 0.648665	 0.825187	 -0.901745
H	 -1.289629	 -0.305094	 1.625284
C	 0.559026	 -1.209386	 1.009434
C	 1.654805	 -0.129636	 -0.818171
C	 0.697043	 1.927037	 -1.936439
H	 0.517445	 -1.989828	 1.748133
C	 1.622540	 -1.142573	 0.123743
H	 2.479320	 -0.074565	 -1.507728
H	 0.718843	 2.914007	 -1.478883
H	 1.586481	 1.839310	 -2.547325
H	 -0.157952	 1.891699	 -2.608549
H	 2.415092	 -1.867397	 0.164886

	symmetry c1
}
set optking {
	frozen_dihedral = ("
		4 3 2 1
	")
}

ee = optimize('scf')
oeprop('DIPOLE', 'QUADRUPOLE', 'MULLIKEN_CHARGES')
f=open( 'psi4out.xyz', 'w' )
f.write( "16  " )
f.write( str(ee) + "\n" )
f.write( MOL.save_string_xyz() )
f.close()
--------------------------------------------------------------------------

    Molecular point group: c1
  Charge       = 0
  Multiplicity = 1
  Basis Set: 6-31G*
  Basis Set:
  @DF-RHF Final Energy:  -344.59038403853356
    Total Energy =                       -344.5903840385335570
    Molecular point group: c1
  Basis Set: 6-31G*
  Basis Set:
  Basis Set: 6-31G*
  Basis Set:
  @DF-RHF Final Energy:  -344.59228874856353
    Total Energy =                       -344.5922887485636465
  Basis Set: 6-31G*
  Basis Set:
  Basis Set: 6-31G*
  Basis Set:
  @DF-RHF Final Energy:  -344.59241807908342
    Total Energy =                       -344.5924180790833589
  Basis Set: 6-31G*
  Basis Set:
  Basis Set: 6-31G*
  Basis Set:
  @DF-RHF Final Energy:  -344.59242914445275
    Total Energy =                       -344.5924291444526943
  Basis Set: 6-31G*
  Basis Set:
  Basis Set: 6-31G*
  Basis Set:
  @DF-RHF Final Energy:  -344.59243156987770
    Total Energy =                       -344.5924315698777036
  Basis Set: 6-31G*
  Basis Set:
  Charge       = 0
  Multiplicity = 1
  Basis Set: 6-31G*
  Basis Set:

    Orbital Energies (a.u.)
    -----------------------

    Doubly Occupied:

       1A    -20.581242     2A    -11.287116     3A    -11.231666
       4A    -11.230431     5A    -11.227838     6A    -11.225803
       7A    -11.222673     8A    -11.213912     9A     -1.397088
      10A     -1.148082    11A     -1.043283    12A     -1.002612
      13A     -0.929259    14A     -0.836764    15A     -0.799958
      16A     -0.727765    17A     -0.667651    18A     -0.651929
      19A     -0.616547    20A     -0.591621    21A     -0.571794
      22A     -0.559879    23A     -0.540791    24A     -0.526851
      25A     -0.499166    26A     -0.481563    27A     -0.466999
      28A     -0.328743    29A     -0.310935

  @DF-RHF Final Energy:  -344.59243175727744

   => Energetics <=

    Nuclear Repulsion Energy =            349.8440186712512627
    One-Electron Energy =               -1161.0329803329093465
    Two-Electron Energy =                 466.5965299043805317
    DFT Exchange-Correlation Energy =       0.0000000000000000
    Empirical Dispersion Energy =           0.0000000000000000
    PCM Polarization Energy =               0.0000000000000000
    EFP Energy =                            0.0000000000000000
    Total Energy =                       -344.5924317572776090
    Molecular point group: c1
  Basis Set: 6-31G*
  Basis Set:

  -Total Gradient:
     Atom            X                  Y                   Z
    ------   -----------------  -----------------  -----------------
       1        0.000031177484    -0.000114210326    -0.002434948999
       2        0.000407141669     0.000735778525     0.003627148768
       3       -0.001399712765    -0.001686492984    -0.002319170073
       4        0.000931358899     0.001088490517     0.001158772051
       5       -0.000014156724    -0.000031671173    -0.000031315994
       6        0.000004478341     0.000000363211    -0.000002586953
       7       -0.000000085708    -0.000019615156    -0.000006075335
       8        0.000009606230     0.000023409929     0.000007490683
       9        0.000017983063     0.000008554656     0.000016344636
      10        0.000005467251    -0.000000404045    -0.000001272042
      11        0.000000282405     0.000005790247    -0.000011221036
      12        0.000003972112     0.000000839570    -0.000003291133
      13       -0.000001786503    -0.000003692092    -0.000002492569
      14        0.000004568306     0.000003233830    -0.000003763567
      15        0.000000548757    -0.000010506420     0.000003548673
      16       -0.000000842814     0.000000131710     0.000002832889

  **** Optimization is complete! (in 6 steps) ****
    Final optimized geometry and variables:
    Molecular point group: c1

    Geometry (in Angstrom), charge = 0, multiplicity = 1:

    H           -2.560428948569     0.904989186912     0.169486294200
    O           -1.703960594867     1.309197842998     0.159377095091
    C           -0.726246956119     0.355949728171     0.214934264163
    C           -0.762339257238    -0.641350247733     1.173067049816
    C            0.337572108475     0.460777220786    -0.677900605671
    H           -1.584758241771    -0.677056916216     1.866480289101
    C            0.256700745330    -1.578490392186     1.237312208623
    C            1.352319975324    -0.480938283201    -0.585431036523
    C            0.368356103335     1.569946242451    -1.700740127727
    H            0.220706154023    -2.356258895920     1.978968640938
    C            1.319177240918    -1.498686097020     0.356571588437
    H            2.182415724153    -0.419536399923    -1.267478682560
    H            0.383134173868     2.543678780921    -1.223192699927
    H            1.247038471273     1.486720187818    -2.329676673971
    H           -0.509567045269     1.540998993832    -2.337132887438
    H            2.117974148524    -2.216853023347     0.401015162491

  Mulliken Charges: (a.u.)
   Center  Symbol    Alpha    Beta     Spin     Total
       1     H     0.27227  0.27227  0.00000  0.45546
       2     O     4.38481  4.38481  0.00000 -0.76962
       3     C     2.82203  2.82203  0.00000  0.35594
       4     C     3.12557  3.12557  0.00000 -0.25114
       5     C     3.00422  3.00422  0.00000 -0.00844
       6     H     0.40055  0.40055  0.00000  0.19890
       7     C     3.09912  3.09912  0.00000 -0.19824
       8     C     3.11053  3.11053  0.00000 -0.22106
       9     C     3.24048  3.24048  0.00000 -0.48096
      10     H     0.39922  0.39922  0.00000  0.20157
      11     C     3.10370  3.10370  0.00000 -0.20740
      12     H     0.40092  0.40092  0.00000  0.19816
      13     H     0.40645  0.40645  0.00000  0.18711
      14     H     0.41798  0.41798  0.00000  0.16405
      15     H     0.41155  0.41155  0.00000  0.17689
      16     H     0.40061  0.40061  0.00000  0.19878

   Total alpha = 29.00000, Total beta = 29.00000, Total charge =  0.00000
