  ==> Input File <==

--------------------------------------------------------------------------
set {
	reference rhf
	basis 6-31G*
}

set_num_threads( 1 )
memory 2 gb

molecule MOL {
0 1

O	 3.225979	 0.970355	 -0.599647
C	 2.701189	 0.057885	 -0.047330
C	 1.245376	 -0.013843	 0.345420
O	 3.347903	 -1.046386	 0.304773
C	 0.664603	 1.340628	 0.745700
H	 0.711645	 -0.454427	 -0.490170
H	 1.165307	 -0.729791	 1.159487
C	 -0.781706	 1.268113	 1.247124
H	 0.727726	 2.021346	 -0.097958
H	 1.288864	 1.768455	 1.522671
C	 -1.810958	 0.855263	 0.191044
H	 -1.053870	 2.247752	 1.633077
H	 -0.838309	 0.584608	 2.093071
C	 -3.249166	 0.904393	 0.710797
H	 -1.718667	 1.510585	 -0.673741
H	 -1.600281	 -0.150895	 -0.164250
C	 -4.285924	 0.488793	 -0.334449
H	 -3.472587	 1.912329	 1.056314
H	 -3.339477	 0.257548	 1.582081
C	 -5.719840	 0.544276	 0.191392
H	 -4.196392	 1.133519	 -1.206203
H	 -4.066829	 -0.520095	 -0.677847
H	 -6.431082	 0.244299	 -0.571993
H	 -5.981677	 1.549103	 0.510704
H	 -5.850845	 -0.116809	 1.043495
C	 4.728119	 -1.109107	 -0.004993
H	 4.882018	 -1.033965	 -1.071845
H	 5.068212	 -2.067527	 0.355250
H	 5.265056	 -0.311663	 0.488280

	symmetry c1
}
set optking {
	frozen_dihedral = ("
		21 17 14 11,
		17 14 11 15,
		15 11 8 5,
		6 3 5 9,
		11 8 5 9,
		2 4 26 27,
		1 2 4 26
	")
}

ee = energy('scf')
oeprop('DIPOLE', 'QUADRUPOLE', 'MULLIKEN_CHARGES')
f=open( 'psi4out.xyz', 'w' )
f.write( "29  " )
f.write( str(ee) + "\n" )
f.write( MOL.save_string_xyz() )
f.close()
--------------------------------------------------------------------------

    Molecular point group: c1

    Geometry (in Angstrom), charge = 0, multiplicity = 1:

       Center              X                  Y                   Z               Mass
    ------------   -----------------  -----------------  -----------------  -----------------
           O          3.178830139335     0.598975725736    -0.842238673919    15.994914619560
           C          2.654040139335    -0.313494274264    -0.289921673919    12.000000000000
           C          1.198227139335    -0.385222274264     0.102828326081    12.000000000000
           O          3.300754139335    -1.417765274264     0.062181326081    15.994914619560
           C          0.617454139335     0.969248725736     0.503108326081    12.000000000000
           H          0.664496139335    -0.825806274264    -0.732761673919     1.007825032070
           H          1.118158139335    -1.101170274264     0.916895326081     1.007825032070
           C         -0.828854860665     0.896733725736     1.004532326081    12.000000000000
           H          0.680577139335     1.649966725736    -0.340549673919     1.007825032070
           H          1.241715139335     1.397075725736     1.280079326081     1.007825032070
           C         -1.858106860665     0.483883725736    -0.051547673919    12.000000000000
           H         -1.101018860665     1.876372725736     1.390485326081     1.007825032070
           H         -0.885457860665     0.213228725736     1.850479326081     1.007825032070
           C         -3.296314860665     0.533013725736     0.468205326081    12.000000000000
           H         -1.765815860665     1.139205725736    -0.916332673919     1.007825032070
           H         -1.647429860665    -0.522274274264    -0.406841673919     1.007825032070
           C         -4.333072860665     0.117413725736    -0.577040673919    12.000000000000
           H         -3.519735860665     1.540949725736     0.813722326081     1.007825032070
           H         -3.386625860665    -0.113831274264     1.339489326081     1.007825032070
           C         -5.766988860665     0.172896725736    -0.051199673919    12.000000000000
           H         -4.243540860665     0.762139725736    -1.448794673919     1.007825032070
           H         -4.113977860665    -0.891474274264    -0.920438673919     1.007825032070
           H         -6.478230860665    -0.127080274264    -0.814584673919     1.007825032070
           H         -6.028825860665     1.177723725736     0.268112326081     1.007825032070
           H         -5.897993860665    -0.488188274264     0.800903326081     1.007825032070
           C          4.680970139335    -1.480486274264    -0.247584673919    12.000000000000
           H          4.834869139335    -1.405344274264    -1.314436673919     1.007825032070
           H          5.021063139335    -2.438906274264     0.112658326081     1.007825032070
           H          5.217907139335    -0.683042274264     0.245688326081     1.007825032070

  Charge       = 0
  Multiplicity = 1
  Basis Set: 6-31G*
  Basis Set:

    Orbital Energies (a.u.)
    -----------------------

    Doubly Occupied:

       1A    -20.604268     2A    -20.543953     3A    -11.371692
       4A    -11.280385     5A    -11.233734     6A    -11.222113
       7A    -11.218876     8A    -11.216497     9A    -11.216019
      10A    -11.214809    11A    -11.209165    12A     -1.469014
      13A     -1.361999    14A     -1.098895    15A     -1.067257
      16A     -1.019634    17A     -0.977211    18A     -0.928955
      19A     -0.862448    20A     -0.799571    21A     -0.790818
      22A     -0.765714    23A     -0.699621    24A     -0.681490
      25A     -0.671912    26A     -0.651504    27A     -0.628361
      28A     -0.604330    29A     -0.593641    30A     -0.580424
      31A     -0.571356    32A     -0.544439    33A     -0.537650
      34A     -0.530738    35A     -0.517524    36A     -0.511312
      37A     -0.496030    38A     -0.477787    39A     -0.470286
      40A     -0.462460    41A     -0.459975    42A     -0.455398
      43A     -0.444517    44A     -0.431641

  @DF-RHF Final Energy:  -501.04303461654695

   => Energetics <=

    Nuclear Repulsion Energy =            609.9296096804951048
    One-Electron Energy =               -1890.9544599023524825
    Two-Electron Energy =                 779.9818156053113398
    DFT Exchange-Correlation Energy =       0.0000000000000000
    Empirical Dispersion Energy =           0.0000000000000000
    PCM Polarization Energy =               0.0000000000000000
    EFP Energy =                            0.0000000000000000
    Total Energy =                       -501.0430346165460378

  Mulliken Charges: (a.u.)
   Center  Symbol    Alpha    Beta     Spin     Total
       1     O     4.28622  4.28622  0.00000 -0.57244
       2     C     2.60447  2.60447  0.00000  0.79106
       3     C     3.21069  3.21069  0.00000 -0.42138
       4     O     4.30608  4.30608  0.00000 -0.61217
       5     C     3.15727  3.15727  0.00000 -0.31454
       6     H     0.39813  0.39813  0.00000  0.20373
       7     H     0.40135  0.40135  0.00000  0.19731
       8     C     3.15590  3.15590  0.00000 -0.31181
       9     H     0.40709  0.40709  0.00000  0.18582
      10     H     0.41441  0.41441  0.00000  0.17119
      11     C     3.15515  3.15515  0.00000 -0.31030
      12     H     0.41822  0.41822  0.00000  0.16356
      13     H     0.42326  0.42326  0.00000  0.15347
      14     C     3.15041  3.15041  0.00000 -0.30082
      15     H     0.42163  0.42163  0.00000  0.15674
      16     H     0.42362  0.42362  0.00000  0.15276
      17     C     3.15153  3.15153  0.00000 -0.30306
      18     H     0.42332  0.42332  0.00000  0.15336
      19     H     0.42394  0.42394  0.00000  0.15212
      20     C     3.23939  3.23939  0.00000 -0.47877
      21     H     0.42253  0.42253  0.00000  0.15494
      22     H     0.42338  0.42338  0.00000  0.15325
      23     H     0.41912  0.41912  0.00000  0.16176
      24     H     0.42154  0.42154  0.00000  0.15692
      25     H     0.42185  0.42185  0.00000  0.15630
      26     C     3.09306  3.09306  0.00000 -0.18612
      27     H     0.40906  0.40906  0.00000  0.18189
      28     H     0.40852  0.40852  0.00000  0.18295
      29     H     0.40887  0.40887  0.00000  0.18227

   Total alpha = 44.00000, Total beta = 44.00000, Total charge = -0.00000
