  ==> Input File <==

--------------------------------------------------------------------------
set {
	reference rhf
	basis 6-31G*
}

set_num_threads( 4 )
memory 2 gb

molecule MOL {
0 1

O	 0.041880	 -0.087557	 2.426465
C	 0.867907	 -0.547703	 1.706045
C	 1.245376	 -0.013843	 0.345420
O	 1.584289	 -1.621278	 2.015662
C	 0.455112	 1.231400	 -0.050772
H	 2.314421	 0.170763	 0.361331
H	 1.093583	 -0.817674	 -0.370481
C	 -0.998893	 1.219485	 0.433193
H	 0.482531	 1.345121	 -1.130325
H	 0.957290	 2.103070	 0.354729
C	 -1.883438	 0.145884	 -0.207175
H	 -1.431207	 2.195402	 0.224832
H	 -1.019646	 1.105716	 1.516076
C	 -3.347647	 0.245583	 0.225435
H	 -1.822183	 0.231698	 -1.291012
H	 -1.510341	 -0.844814	 0.042401
C	 -4.239992	 -0.825570	 -0.404234
H	 -3.732888	 1.230466	 -0.033079
H	 -3.408585	 0.170602	 1.310038
C	 -5.701275	 -0.716658	 0.029921
H	 -4.179496	 -0.752714	 -1.488058
H	 -3.859041	 -1.810759	 -0.143352
H	 -6.308102	 -1.488908	 -0.432678
H	 -6.122175	 0.245478	 -0.248167
H	 -5.799072	 -0.820114	 1.106957
C	 1.327565	 -2.225069	 3.270418
H	 1.521821	 -1.529240	 4.073905
H	 1.998196	 -3.067721	 3.335216
H	 0.301267	 -2.557917	 3.329257

	symmetry c1
}
set optking {
	frozen_dihedral = ("
		6 3 5 9
	")
}

ee = optimize('scf')
oeprop('DIPOLE', 'QUADRUPOLE', 'MULLIKEN_CHARGES')
f=open( 'psi4out.xyz', 'w' )
f.write( "29  " )
f.write( str(ee) + "\n" )
f.write( MOL.save_string_xyz() )
f.close()
--------------------------------------------------------------------------

    Molecular point group: c1
  Charge       = 0
  Multiplicity = 1
  Basis Set: 6-31G*
  Basis Set:
  @DF-RHF Final Energy:  -501.02580625938117
    Total Energy =                       -501.0258062593816248
    Molecular point group: c1
  Basis Set: 6-31G*
  Basis Set:
  Basis Set: 6-31G*
  Basis Set:
  @DF-RHF Final Energy:  -501.03581606097930
    Total Energy =                       -501.0358160609796414
  Basis Set: 6-31G*
  Basis Set:
  Basis Set: 6-31G*
  Basis Set:
  @DF-RHF Final Energy:  -501.03769131094430
    Total Energy =                       -501.0376913109439556
  Basis Set: 6-31G*
  Basis Set:
  Basis Set: 6-31G*
  Basis Set:
  @DF-RHF Final Energy:  -501.03815903490852
    Total Energy =                       -501.0381590349094267
  Basis Set: 6-31G*
  Basis Set:
  @DF-RHF Final Energy:  -501.03843677127463
    Total Energy =                       -501.0384367712745188
  @DF-RHF Final Energy:  -501.03864466736127
    Total Energy =                       -501.0386446673610408
  @DF-RHF Final Energy:  -501.03881436933602
    Total Energy =                       -501.0388143693360234
  @DF-RHF Final Energy:  -501.03897953945318
    Total Energy =                       -501.0389795394527255
  @DF-RHF Final Energy:  -501.03944574586785
    Total Energy =                       -501.0394457458677380
  @DF-RHF Final Energy:  -501.04014268533012
    Total Energy =                       -501.0401426853302382
  @DF-RHF Final Energy:  -501.04042296169007
    Total Energy =                       -501.0404229616895009
  @DF-RHF Final Energy:  -501.04054413508993
    Total Energy =                       -501.0405441350899309
  @DF-RHF Final Energy:  -501.04056154775105
    Total Energy =                       -501.0405615477513948
  Basis Set: 6-31G*
  Basis Set:
  @DF-RHF Final Energy:  -501.04058453720711
    Total Energy =                       -501.0405845372074509
  Basis Set: 6-31G*
  Basis Set:
  Basis Set: 6-31G*
  Basis Set:
  @DF-RHF Final Energy:  -501.04059539362811
    Total Energy =                       -501.0405953936281094
  Basis Set: 6-31G*
  Basis Set:
  Basis Set: 6-31G*
  Basis Set:
  @DF-RHF Final Energy:  -501.04059806466546
    Total Energy =                       -501.0405980646653461
  Basis Set: 6-31G*
  Basis Set:
  Charge       = 0
  Multiplicity = 1
  Basis Set: 6-31G*
  Basis Set:

    Orbital Energies (a.u.)
    -----------------------

    Doubly Occupied:

       1A    -20.606795     2A    -20.542720     3A    -11.372145
       4A    -11.281596     5A    -11.234540     6A    -11.224884
       7A    -11.214478     8A    -11.214015     9A    -11.212723
      10A    -11.212530    11A    -11.207971    12A     -1.470239
      13A     -1.361978    14A     -1.096719    15A     -1.065022
      16A     -1.016549    17A     -0.977427    18A     -0.928976
      19A     -0.862364    20A     -0.801809    21A     -0.789363
      22A     -0.763957    23A     -0.692342    24A     -0.682566
      25A     -0.670609    26A     -0.650894    27A     -0.626987
      28A     -0.615462    29A     -0.588676    30A     -0.578543
      31A     -0.563224    32A     -0.553188    33A     -0.535767
      34A     -0.524728    35A     -0.522768    36A     -0.503345
      37A     -0.498276    38A     -0.480284    39A     -0.470946
      40A     -0.462993    41A     -0.458056    42A     -0.452695
      43A     -0.438073    44A     -0.429780

  @DF-RHF Final Energy:  -501.04059794889235

   => Energetics <=

    Nuclear Repulsion Energy =            641.0653691936354335
    One-Electron Energy =               -1953.2939299312381536
    Two-Electron Energy =                 811.1879627887112747
    DFT Exchange-Correlation Energy =       0.0000000000000000
    Empirical Dispersion Energy =           0.0000000000000000
    PCM Polarization Energy =               0.0000000000000000
    EFP Energy =                            0.0000000000000000
    Total Energy =                       -501.0405979488914454
    Molecular point group: c1
  Basis Set: 6-31G*
  Basis Set:

  -Total Gradient:
     Atom            X                  Y                   Z
    ------   -----------------  -----------------  -----------------
       1        0.000016974528     0.000019658418     0.000050363845
       2       -0.000059219682    -0.000017051400    -0.000064006054
       3       -0.000846007015    -0.002387384012    -0.006745244391
       4        0.000004489992     0.000035819203     0.000003649340
       5        0.005519671914     0.004093585145     0.001602733980
       6       -0.000091653295     0.001401530268     0.005429361016
       7        0.000016401672     0.000006331153    -0.000011512408
       8        0.000030542742     0.000007061967     0.000026038094
       9       -0.004585482326    -0.003135451220    -0.000265605929
      10       -0.000002101639     0.000004142885    -0.000002138869
      11       -0.000024274110    -0.000016324237    -0.000014662487
      12       -0.000004948439    -0.000004434105     0.000001056315
      13        0.000022603479     0.000010129331     0.000003184257
      14       -0.000002352140     0.000009341810    -0.000018993814
      15        0.000002834701     0.000001286940     0.000000181297
      16       -0.000009089682    -0.000016577299    -0.000007485036
      17        0.000004191138    -0.000007128433     0.000003963648
      18        0.000003245802     0.000001623742    -0.000013086366
      19       -0.000007808908     0.000011733747    -0.000003682049
      20        0.000005681376    -0.000007014050     0.000015608947
      21       -0.000005276222     0.000009613674     0.000004622104
      22        0.000004386609    -0.000007585845    -0.000009152614
      23        0.000002941907    -0.000001944429     0.000002714782
      24        0.000004149733    -0.000001668314    -0.000002076357
      25       -0.000004752018     0.000001767470     0.000002405226
      26        0.000006814119    -0.000010291125     0.000004507081
      27       -0.000001044251    -0.000000285370    -0.000000845124
      28       -0.000000273094    -0.000001739580     0.000007233899
      29       -0.000000646892     0.000001253668     0.000000867662

  **** Optimization is complete! (in 17 steps) ****
    Final optimized geometry and variables:
    Molecular point group: c1

    Geometry (in Angstrom), charge = 0, multiplicity = 1:

    O            2.022487763684     0.588694891518     1.770098008337
    C            2.016150984306    -0.114013584315     0.809476185713
    C            2.199882022841     0.374942204705    -0.609348865883
    O            1.884627615943    -1.431289607355     0.878144645795
    C            1.366212732446     1.625470573778    -0.944871444113
    H            3.254459009852     0.634719932461    -0.657944527260
    H            2.016172936059    -0.436987747037    -1.298249533305
    C           -0.099805181885     1.588956266142    -0.490024704116
    H            1.361903482820     1.725717316454    -2.027226738552
    H            1.846445498195     2.501885276145    -0.527030849976
    C           -0.914658013811     0.436891973503    -1.085864986988
    H           -0.558706916893     2.531014401100    -0.781892620267
    H           -0.148244538413     1.552005278470     0.593386776032
    C           -2.392533035872     0.488869437664    -0.693466954256
    H           -0.830593025094     0.458690242824    -2.171749041633
    H           -0.499049645629    -0.517016806018    -0.767910087362
    C           -3.214302029990    -0.664236637338    -1.272364489197
    H           -2.819434885774     1.434544637584    -1.023295617915
    H           -2.476714245329     0.479987861011     0.391968457836
    C           -4.688741109871    -0.605981166879    -0.874361469016
    H           -3.133168844745    -0.655033715841    -2.357318320743
    H           -2.789104773971    -1.610099250462    -0.943273873469
    H           -5.244577546931    -1.436226627250    -1.299175900755
    H           -5.152153341772     0.313679568668    -1.220345997960
    H           -4.805407493196    -0.647603859167     0.204948118624
    C            1.761825826629    -1.997513590331     2.170853164274
    H            2.635860766262    -1.776550786950     2.766268984318
    H            1.670933986677    -3.061726546882     2.019166946515
    H            0.884722401054    -1.613436285248     2.671244112822

  Mulliken Charges: (a.u.)
   Center  Symbol    Alpha    Beta     Spin     Total
       1     O     4.28856  4.28856  0.00000 -0.57713
       2     C     2.60619  2.60619  0.00000  0.78763
       3     C     3.21172  3.21172  0.00000 -0.42344
       4     O     4.30497  4.30497  0.00000 -0.60995
       5     C     3.15099  3.15099  0.00000 -0.30199
       6     H     0.39839  0.39839  0.00000  0.20321
       7     H     0.39852  0.39852  0.00000  0.20296
       8     C     3.16744  3.16744  0.00000 -0.33488
       9     H     0.41841  0.41841  0.00000  0.16319
      10     H     0.40826  0.40826  0.00000  0.18347
      11     C     3.15755  3.15755  0.00000 -0.31510
      12     H     0.42004  0.42004  0.00000  0.15991
      13     H     0.40734  0.40734  0.00000  0.18531
      14     C     3.15002  3.15002  0.00000 -0.30004
      15     H     0.42492  0.42492  0.00000  0.15016
      16     H     0.42072  0.42072  0.00000  0.15856
      17     C     3.15140  3.15140  0.00000 -0.30280
      18     H     0.42374  0.42374  0.00000  0.15252
      19     H     0.42291  0.42291  0.00000  0.15419
      20     C     3.23929  3.23929  0.00000 -0.47859
      21     H     0.42343  0.42343  0.00000  0.15313
      22     H     0.42327  0.42327  0.00000  0.15346
      23     H     0.41963  0.41963  0.00000  0.16073
      24     H     0.42172  0.42172  0.00000  0.15656
      25     H     0.42172  0.42172  0.00000  0.15656
      26     C     3.09333  3.09333  0.00000 -0.18666
      27     H     0.40851  0.40851  0.00000  0.18297
      28     H     0.40827  0.40827  0.00000  0.18346
      29     H     0.40870  0.40870  0.00000  0.18259

   Total alpha = 44.00000, Total beta = 44.00000, Total charge =  0.00000
