  ==> Input File <==

--------------------------------------------------------------------------
set {
	reference rhf
	basis cc-pvtz
}

set_num_threads( 4 )
memory 2 gb

molecule MOL {
0 1

H	 -3.801279	 1.193572	 -0.209218
C	 -3.157821	 0.484949	 0.270494
C	 -2.032804	 0.141256	 -0.307051
H	 -3.452572	 0.075078	 1.216499
O	 -1.189946	 -0.765863	 0.237511
H	 -1.723657	 0.552104	 -1.250852
C	 0.026572	 -0.995256	 -0.379403
C	 1.057223	 0.049888	 -0.004615
H	 -0.054361	 -1.010670	 -1.459674
H	 0.397526	 -1.952058	 -0.044198
F	 2.203233	 -0.234060	 -0.590375
F	 0.698147	 1.254887	 -0.392621
F	 1.266440	 0.094219	 1.288722

	symmetry c1
}
set optking {
	frozen_dihedral = ("
		3 5 7 9
	")
}

ee = optimize('scf')
oeprop('DIPOLE', 'QUADRUPOLE', 'MULLIKEN_CHARGES')
f=open( 'psi4out.xyz', 'w' )
f.write( "13  " )
f.write( str(ee) + "\n" )
f.write( MOL.save_string_xyz() )
f.close()
--------------------------------------------------------------------------

    Molecular point group: c1
  Charge       = 0
  Multiplicity = 1
  Basis Set: CC-PVTZ
  Basis Set:
  @DF-RHF Final Energy:  -527.74179312974798
    Total Energy =                       -527.7417931297477480
    Molecular point group: c1
  Basis Set: CC-PVTZ
  Basis Set:
  Basis Set: CC-PVTZ
  Basis Set:
  @DF-RHF Final Energy:  -527.74188371237756
    Total Energy =                       -527.7418837123773301
  Basis Set: CC-PVTZ
  Basis Set:
  Basis Set: CC-PVTZ
  Basis Set:
  @DF-RHF Final Energy:  -527.74191071292114
    Total Energy =                       -527.7419107129212534
  Basis Set: CC-PVTZ
  Basis Set:
  Basis Set: CC-PVTZ
  Basis Set:
  @DF-RHF Final Energy:  -527.74191811383207
    Total Energy =                       -527.7419181138320710
  Basis Set: CC-PVTZ
  Basis Set:
  Basis Set: CC-PVTZ
  Basis Set:
  @DF-RHF Final Energy:  -527.74191914642768
    Total Energy =                       -527.7419191464275627
  Basis Set: CC-PVTZ
  Basis Set:
  Charge       = 0
  Multiplicity = 1
  Basis Set: CC-PVTZ
  Basis Set:

    Orbital Energies (a.u.)
    -----------------------

    Doubly Occupied:

       1A    -26.342149     2A    -26.341249     3A    -26.338507
       4A    -20.603921     5A    -11.498493     6A    -11.319952
       7A    -11.297874     8A    -11.213863     9A     -1.751015
      10A     -1.647421    11A     -1.645921    12A     -1.444206
      13A     -1.087551    14A     -1.021008    15A     -0.932700
      16A     -0.844002    17A     -0.839915    18A     -0.829533
      19A     -0.795740    20A     -0.728744    21A     -0.719341
      22A     -0.703219    23A     -0.681594    24A     -0.668736
      25A     -0.662019    26A     -0.651414    27A     -0.642195
      28A     -0.588525    29A     -0.566222    30A     -0.528331
      31A     -0.516642    32A     -0.357076

  @DF-RHF Final Energy:  -527.74191958077824

   => Energetics <=

    Nuclear Repulsion Energy =            414.4932884208518544
    One-Electron Energy =               -1552.8522606294745856
    Two-Electron Energy =                 610.6170526278446005
    DFT Exchange-Correlation Energy =       0.0000000000000000
    Empirical Dispersion Energy =           0.0000000000000000
    PCM Polarization Energy =               0.0000000000000000
    EFP Energy =                            0.0000000000000000
    Total Energy =                       -527.7419195807780170
    Molecular point group: c1
  Basis Set: CC-PVTZ
  Basis Set:

  -Total Gradient:
     Atom            X                  Y                   Z
    ------   -----------------  -----------------  -----------------
       1        0.000012458201     0.000013810294     0.000007495866
       2       -0.000001128515    -0.000013431038    -0.000007770767
       3        0.000329342258     0.000664510915     0.000566233722
       4        0.000002508443    -0.000000473432    -0.000001862040
       5       -0.000585527706    -0.001398841190    -0.000866092369
       6        0.000008041987     0.000017954588     0.000002867001
       7        0.000371287884     0.001806910632     0.000276841002
       8       -0.000007488430     0.000089212212     0.000007811272
       9       -0.000186796790    -0.001165310399     0.000021182282
      10       -0.000014742669     0.000010684410     0.000005099658
      11        0.000021542319    -0.000035367033     0.000029453814
      12        0.000007693155     0.000065894095    -0.000045936369
      13        0.000042809861    -0.000055554053     0.000004676926

  **** Optimization is complete! (in 6 steps) ****
    Final optimized geometry and variables:
    Molecular point group: c1

    Geometry (in Angstrom), charge = 0, multiplicity = 1:

    H           -3.822384571373     1.158984077808    -0.230674388604
    C           -3.161724557486     0.468265686290     0.251841909555
    C           -2.069499146816     0.084063989289    -0.361714333745
    H           -3.413532036290     0.107610202110     1.229787679847
    O           -1.214910687613    -0.813585147004     0.182216839433
    H           -1.802096457010     0.444881984259    -1.338146953018
    C            0.012142013946    -1.011042071502    -0.424136484845
    C            1.041318864985     0.024612685012    -0.017586896560
    H           -0.058393728722    -1.014502906974    -1.505805321627
    H            0.383327836291    -1.972004867325    -0.102012993737
    F            2.195561091474    -0.262410377125    -0.585147001347
    F            0.702500086545     1.238594429134    -0.396621609840
    F            1.225801484480     0.050609091372     1.280040680037

  Mulliken Charges: (a.u.)
   Center  Symbol    Alpha    Beta     Spin     Total
       1     H     0.42527  0.42527  0.00000  0.14946
       2     C     3.19601  3.19601  0.00000 -0.39201
       3     C     2.95953  2.95953  0.00000  0.08094
       4     H     0.42464  0.42464  0.00000  0.15072
       5     O     4.14445  4.14445  0.00000 -0.28889
       6     H     0.43383  0.43383  0.00000  0.13234
       7     C     3.02141  3.02141  0.00000 -0.04282
       8     C     2.67576  2.67576  0.00000  0.64847
       9     H     0.45453  0.45453  0.00000  0.09094
      10     H     0.43485  0.43485  0.00000  0.13030
      11     F     4.61229  4.61229  0.00000 -0.22458
      12     F     4.61058  4.61058  0.00000 -0.22117
      13     F     4.60685  4.60685  0.00000 -0.21370

   Total alpha = 32.00000, Total beta = 32.00000, Total charge =  0.00000
