                              Psi4 1.0.54 Driver

  ==> Input File <==

--------------------------------------------------------------------------
set {
	reference rhf
	basis cc-pvtz
}

set_num_threads( 4 )
memory 2 gb

molecule MOL {
0 1

H	 -2.230928	 0.828079	 2.265870
C	 -1.638909	 0.402589	 3.072936
O	 -0.398198	 -0.026795	 2.621486
H	 -1.473212	 1.163919	 3.821140
H	 -2.204842	 -0.411523	 3.522185
C	 -0.453127	 -1.022455	 1.653354
C	 0.938459	 -1.335386	 1.163552
H	 -0.893172	 -1.928923	 2.068860
H	 -1.066060	 -0.707495	 0.811603
O	 1.401606	 -0.295166	 0.366636
H	 1.593272	 -1.485776	 2.019142
H	 0.911499	 -2.264106	 0.593707
C	 2.714315	 -0.441627	 -0.061017
H	 2.765292	 -0.641548	 -1.128869
H	 3.305661	 0.447341	 0.150952
H	 3.143725	 -1.278506	 0.470147

	symmetry c1
}
set optking {
	frozen_dihedral = ("
		7 10 13 14
	")
}

ee,wfn = optimize('scf', return_wfn=True)
oeprop( wfn, 'DIPOLE', 'QUADRUPOLE', 'MULLIKEN_CHARGES')
f=open( 'psi4out.xyz', 'w' )
f.write( "16  " )
f.write( str(ee) + "\n" )
f.write( MOL.save_string_xyz() )
f.close()
--------------------------------------------------------------------------

    Molecular point group: c1
  Charge       = 0
  Multiplicity = 1
  Basis Set: CC-PVTZ
  Basis Set:
  @DF-RHF Final Energy:  -307.09333308118397
    Total Energy =                       -307.0933330811840278
    Molecular point group: c1
  Basis Set: CC-PVTZ
  Basis Set:
  Basis Set: CC-PVTZ
  Basis Set:
  @DF-RHF Final Energy:  -307.09417818702701
    Total Energy =                       -307.0941781870270688
  Basis Set: CC-PVTZ
  Basis Set:
  Basis Set: CC-PVTZ
  Basis Set:
  @DF-RHF Final Energy:  -307.09454176729997
    Total Energy =                       -307.0945417672999156
  Basis Set: CC-PVTZ
  Basis Set:
  Basis Set: CC-PVTZ
  Basis Set:
  @DF-RHF Final Energy:  -307.09454569769645
    Total Energy =                       -307.0945456976966170
  Basis Set: CC-PVTZ
  Basis Set:
  Charge       = 0
  Multiplicity = 1
  Basis Set: CC-PVTZ
  Basis Set:

    Orbital Energies (a.u.)
    -----------------------

    Doubly Occupied:

       1A    -20.547429     2A    -20.544398     3A    -11.267805
       4A    -11.266575     5A    -11.261344     6A    -11.261059
       7A     -1.389616     8A     -1.371624     9A     -1.031773
      10A     -0.937309    11A     -0.892111    12A     -0.823947
      13A     -0.684835    14A     -0.681107    15A     -0.658817
      16A     -0.636542    17A     -0.630251    18A     -0.597585
      19A     -0.554289    20A     -0.537712    21A     -0.509062
      22A     -0.479205    23A     -0.463853    24A     -0.421077
      25A     -0.410207

  @DF-RHF Final Energy:  -307.09454602749815

   => Energetics <=

    Nuclear Repulsion Energy =            258.6441929626892033
    One-Electron Energy =                -931.7584159549094238
    Two-Electron Energy =                 366.0196769647220663
    DFT Exchange-Correlation Energy =       0.0000000000000000
    Empirical Dispersion Energy =           0.0000000000000000
    PCM Polarization Energy =               0.0000000000000000
    EFP Energy =                            0.0000000000000000
    Total Energy =                       -307.0945460274981542
    Molecular point group: c1
  Basis Set: CC-PVTZ
  Basis Set:

  -Total Gradient:
     Atom            X                  Y                   Z
    ------   -----------------  -----------------  -----------------
       1        0.000000663001    -0.000000438627    -0.000000854936
       2       -0.000002620445     0.000004224825     0.000005838752
       3        0.000004385626    -0.000005891319    -0.000002979427
       4       -0.000002392445     0.000001494337     0.000000874561
       5        0.000000266001    -0.000001021649    -0.000000514931
       6       -0.000002087824    -0.000002260936    -0.000002663377
       7        0.000382451400     0.000571901091     0.001040586239
       8       -0.000003051643    -0.000001781228     0.000003143733
       9        0.000002418978    -0.000003186834    -0.000003000416
      10       -0.000526775464    -0.000436200671    -0.001555194620
      11        0.000005253519    -0.000000397160     0.000002381921
      12        0.000002690733     0.000011877066    -0.000002849965
      13        0.000033424197    -0.001631341985     0.000777181267
      14        0.000070181521     0.001499862185    -0.000280406408
      15        0.000024919836     0.000019340632    -0.000001160302
      16        0.000010273011    -0.000026179727     0.000019617906

  **** Optimization is complete! (in 5 steps) ****
    Final optimized geometry and variables:
    Molecular point group: c1

    Geometry (in Angstrom), charge = 0, multiplicity = 1:

    H           -2.629560622874     1.325087276137     0.797301151268
    C           -2.044917045465     0.890651941226     1.604970962092
    O           -0.815226462526     0.431806813804     1.152520379885
    H           -1.860587210622     1.651823454408     2.348985038402
    H           -2.627517022489     0.091444353858     2.059720999152
    C           -0.894609646701    -0.567033065359     0.189366754662
    C            0.488306297397    -0.912184698599    -0.303493161881
    H           -1.351781351705    -1.462249989012     0.610996099903
    H           -1.504026711481    -0.243415552050    -0.651548380849
    O            0.969955226067     0.120584477204    -1.100714929739
    H            1.139626219375    -1.075798438310     0.551245852177
    H            0.435004731982    -1.841296311144    -0.870479819622
    C            2.284424180746    -0.009155258727    -1.546112375882
    H            2.305071513708    -0.198445759884    -2.614621236542
    H            2.814720829886     0.915760281563    -1.355458596235
    H            2.809405808386    -0.812797446796    -1.040266719286

  Mulliken Charges: (a.u.)
   Center  Symbol    Alpha    Beta     Spin     Total
       1     H     0.47017  0.47017  0.00000  0.05966
       2     C     3.03201  3.03201  0.00000 -0.06402
       3     O     4.17033  4.17033  0.00000 -0.34067
       4     H     0.44646  0.44646  0.00000  0.10707
       5     H     0.47375  0.47375  0.00000  0.05251
       6     C     2.96334  2.96334  0.00000  0.07332
       7     C     2.95875  2.95875  0.00000  0.08251
       8     H     0.47624  0.47624  0.00000  0.04753
       9     H     0.47109  0.47109  0.00000  0.05782
      10     O     4.17479  4.17479  0.00000 -0.34957
      11     H     0.47003  0.47003  0.00000  0.05995
      12     H     0.47663  0.47663  0.00000  0.04675
      13     C     3.02741  3.02741  0.00000 -0.05481
      14     H     0.46186  0.46186  0.00000  0.07628
      15     H     0.45363  0.45363  0.00000  0.09274
      16     H     0.47353  0.47353  0.00000  0.05293

   Total alpha = 25.00000, Total beta = 25.00000, Total charge = -0.00000

*** Psi4 exiting successfully. Buy a developer a beer!
