  ==> Input File <==

--------------------------------------------------------------------------
set {
	reference rhf
	basis 6-31G*
}

set_num_threads( 4 )
memory 2 gb

molecule MOL {
0 1

H	 0.964557	 -1.197168	 2.214902
O	 0.744602	 -0.855049	 1.360347
C	 0.399977	 0.503113	 1.468963
C	 0.031547	 1.023609	 0.088541
H	 1.238369	 1.078781	 1.857028
H	 -0.428844	 0.632268	 2.161405
C	 -1.134819	 0.293262	 -0.585751
H	 0.910908	 0.944996	 -0.544574
H	 -0.199275	 2.083777	 0.177891
C	 -1.917817	 -0.639439	 0.339494
H	 -0.758119	 -0.268455	 -1.433105
H	 -1.813832	 1.041889	 -0.986690
H	 -2.777680	 -1.057197	 -0.174994
H	 -1.310268	 -1.471279	 0.680599
H	 -2.283753	 -0.111424	 1.216626

	symmetry c1
}
set optking {
	frozen_dihedral = ("
		8 4 7 11
	")
}

ee = optimize('scf')
oeprop('DIPOLE', 'QUADRUPOLE', 'MULLIKEN_CHARGES')
f=open( 'psi4out.xyz', 'w' )
f.write( "15  " )
f.write( str(ee) + "\n" )
f.write( MOL.save_string_xyz() )
f.close()
--------------------------------------------------------------------------

    Molecular point group: c1
  Charge       = 0
  Multiplicity = 1
  Basis Set: 6-31G*
  Basis Set:
  @DF-RHF Final Energy:  -232.13328001316330
    Total Energy =                       -232.1332800131631302
    Molecular point group: c1
  Basis Set: 6-31G*
  Basis Set:
  Basis Set: 6-31G*
  Basis Set:
  @DF-RHF Final Energy:  -232.13580356457481
    Total Energy =                       -232.1358035645749283
  Basis Set: 6-31G*
  Basis Set:
  Basis Set: 6-31G*
  Basis Set:
  @DF-RHF Final Energy:  -232.13637585777070
    Total Energy =                       -232.1363758577707017
  Basis Set: 6-31G*
  Basis Set:
  Basis Set: 6-31G*
  Basis Set:
  @DF-RHF Final Energy:  -232.13663394764620
    Total Energy =                       -232.1366339476460894
  Basis Set: 6-31G*
  Basis Set:
  @DF-RHF Final Energy:  -232.13680013917016
    Total Energy =                       -232.1368001391700773
  Basis Set: 6-31G*
  Basis Set:
  @DF-RHF Final Energy:  -232.13688448216340
    Total Energy =                       -232.1368844821632820
  Basis Set: 6-31G*
  Basis Set:
  Basis Set: 6-31G*
  Basis Set:
  @DF-RHF Final Energy:  -232.13692456563217
    Total Energy =                       -232.1369245656321141
  Basis Set: 6-31G*
  Basis Set:
  Basis Set: 6-31G*
  Basis Set:
  @DF-RHF Final Energy:  -232.13693097379047
    Total Energy =                       -232.1369309737906974
  Basis Set: 6-31G*
  Basis Set:
  Charge       = 0
  Multiplicity = 1
  Basis Set: 6-31G*
  Basis Set:

    Orbital Energies (a.u.)
    -----------------------

    Doubly Occupied:

       1A    -20.553832     2A    -11.267483     3A    -11.212823
       4A    -11.210900     5A    -11.200790     6A     -1.360017
       7A     -1.059276     8A     -0.969827     9A     -0.869792
      10A     -0.770228    11A     -0.705395    12A     -0.648488
      13A     -0.608010    14A     -0.568791    15A     -0.558400
      16A     -0.530197    17A     -0.514720    18A     -0.474472
      19A     -0.458111    20A     -0.452153    21A     -0.429185

  @DF-RHF Final Energy:  -232.13693118250177

   => Energetics <=

    Nuclear Repulsion Energy =            193.0153119767407475
    One-Electron Energy =                -697.4587098563275731
    Two-Electron Energy =                 272.3064666970848862
    DFT Exchange-Correlation Energy =       0.0000000000000000
    Empirical Dispersion Energy =           0.0000000000000000
    PCM Polarization Energy =               0.0000000000000000
    EFP Energy =                            0.0000000000000000
    Total Energy =                       -232.1369311825019395
    Molecular point group: c1
  Basis Set: 6-31G*
  Basis Set:

  -Total Gradient:
     Atom            X                  Y                   Z
    ------   -----------------  -----------------  -----------------
       1        0.000004187411    -0.000008497038     0.000001052150
       2       -0.000027666175    -0.000007957239     0.000021220512
       3        0.000040230527     0.000019754380    -0.000014489759
       4       -0.001683171417     0.006150054637    -0.003694066775
       5       -0.000003103034     0.000002575408     0.000015852699
       6        0.000012195982    -0.000017720063    -0.000003918292
       7        0.001116871823    -0.005839375617     0.004303541544
       8        0.001222348503    -0.004251059799     0.002435059376
       9       -0.000005346233     0.000001800198    -0.000006780079
      10        0.000002737920     0.000007375623    -0.000007692962
      11       -0.000686866149     0.003954254569    -0.003055505401
      12        0.000005196512     0.000006852673     0.000000143252
      13       -0.000003372380    -0.000005030149     0.000000483935
      14        0.000000590359    -0.000012550525     0.000009541220
      15        0.000005166345    -0.000000477059    -0.000004441420

  **** Optimization is complete! (in 9 steps) ****
    Final optimized geometry and variables:
    Molecular point group: c1

    Geometry (in Angstrom), charge = 0, multiplicity = 1:

    H            1.537965294596    -1.182961473874     1.611190527027
    O            1.292113898878    -0.840978530909     0.763337626548
    C            0.764084991835     0.454464736427     0.910009203064
    C            0.350055470886     0.967062802172    -0.461879598281
    H            1.518549661877     1.122835466673     1.321328262652
    H           -0.075903708824     0.450388177759     1.599941099403
    C           -0.832241167115     0.234035460772    -1.147876268291
    H            1.236129610155     0.869299781827    -1.080646152976
    H            0.129136628911     2.026119440207    -0.365630790492
    C           -1.716497029244    -0.645714840275    -0.263606183486
    H           -0.453526033902    -0.345362215043    -1.983418232824
    H           -1.466349608111     0.988448294967    -1.608316083045
    H           -2.508435960267    -1.089719058655    -0.859163319220
    H           -1.151086305744    -1.446828330794     0.194960421272
    H           -2.191755373396    -0.069369541371     0.525509505536

  Mulliken Charges: (a.u.)
   Center  Symbol    Alpha    Beta     Spin     Total
       1     H     0.28087  0.28087  0.00000  0.43827
       2     O     4.36958  4.36958  0.00000 -0.73915
       3     C     3.00152  3.00152  0.00000 -0.00304
       4     C     3.16273  3.16273  0.00000 -0.32546
       5     H     0.42863  0.42863  0.00000  0.14274
       6     H     0.42983  0.42983  0.00000  0.14035
       7     C     3.15170  3.15170  0.00000 -0.30340
       8     H     0.41141  0.41141  0.00000  0.17718
       9     H     0.42177  0.42177  0.00000  0.15646
      10     C     3.24739  3.24739  0.00000 -0.49478
      11     H     0.41648  0.41648  0.00000  0.16703
      12     H     0.42373  0.42373  0.00000  0.15253
      13     H     0.42083  0.42083  0.00000  0.15834
      14     H     0.40726  0.40726  0.00000  0.18548
      15     H     0.42627  0.42627  0.00000  0.14746

   Total alpha = 21.00000, Total beta = 21.00000, Total charge = -0.00000
