  ==> Input File <==

--------------------------------------------------------------------------
set {
	reference rhf
	basis 6-31G*
}

set_num_threads( 4 )
memory 2 gb

molecule MOL {
0 1

H	 3.673563	 -0.962552	 -0.385346
O	 2.767240	 -1.194934	 -0.208337
C	 2.077727	 -0.067559	 -0.035091
C	 0.624473	 -0.343591	 0.253101
O	 2.588415	 1.002433	 -0.108098
C	 -0.265902	 0.883932	 0.072916
H	 0.324016	 -1.163849	 -0.390541
H	 0.565024	 -0.726111	 1.268924
C	 -1.728698	 0.646073	 0.462102
H	 -0.209144	 1.219470	 -0.958188
H	 0.135059	 1.692851	 0.673903
C	 -2.482460	 -0.343073	 -0.431425
H	 -2.245265	 1.602650	 0.432430
H	 -1.779332	 0.308348	 1.496285
C	 -3.960546	 -0.461025	 -0.060175
H	 -2.395034	 -0.026811	 -1.468912
H	 -2.024850	 -1.327147	 -0.371646
H	 -4.472726	 -1.168004	 -0.705284
H	 -4.465146	 0.496508	 -0.151489
H	 -4.081218	 -0.800940	 0.964585

	symmetry c1
}
set optking {
	frozen_dihedral = ("
		5 3 4 7
	")
}

ee = optimize('scf')
oeprop('DIPOLE', 'QUADRUPOLE', 'MULLIKEN_CHARGES')
f=open( 'psi4out.xyz', 'w' )
f.write( "20  " )
f.write( str(ee) + "\n" )
f.write( MOL.save_string_xyz() )
f.close()
--------------------------------------------------------------------------

    Molecular point group: c1
  Charge       = 0
  Multiplicity = 1
  Basis Set: 6-31G*
  Basis Set:
  @DF-RHF Final Energy:  -383.94848157448217
    Total Energy =                       -383.9484815744820594
    Molecular point group: c1
  Basis Set: 6-31G*
  Basis Set:
  Basis Set: 6-31G*
  Basis Set:
  @DF-RHF Final Energy:  -383.94782984290941
    Total Energy =                       -383.9478298429095275
  Basis Set: 6-31G*
  Basis Set:
  Basis Set: 6-31G*
  Basis Set:
  @DF-RHF Final Energy:  -383.94856015751606
    Total Energy =                       -383.9485601575165674
  Basis Set: 6-31G*
  Basis Set:
  Basis Set: 6-31G*
  Basis Set:
  @DF-RHF Final Energy:  -383.94858099960385
    Total Energy =                       -383.9485809996037347
  Basis Set: 6-31G*
  Basis Set:
  Basis Set: 6-31G*
  Basis Set:
  @DF-RHF Final Energy:  -383.94856791154700
    Total Energy =                       -383.9485679115467178
  Basis Set: 6-31G*
  Basis Set:
  Basis Set: 6-31G*
  Basis Set:
  @DF-RHF Final Energy:  -383.94858208965667
    Total Energy =                       -383.9485820896564974
  Basis Set: 6-31G*
  Basis Set:
  Charge       = 0
  Multiplicity = 1
  Basis Set: 6-31G*
  Basis Set:

    Orbital Energies (a.u.)
    -----------------------

    Doubly Occupied:

       1A    -20.612962     2A    -20.551279     3A    -11.381282
       4A    -11.240143     5A    -11.223345     6A    -11.220798
       7A    -11.220198     8A    -11.212454     9A     -1.474788
      10A     -1.365566    11A     -1.096296    12A     -1.040952
      13A     -0.961242    14A     -0.868886    15A     -0.816250
      16A     -0.777899    17A     -0.700216    18A     -0.689985
      19A     -0.660984    20A     -0.637343    21A     -0.603421
      22A     -0.593853    23A     -0.575539    24A     -0.555131
      25A     -0.541377    26A     -0.512992    27A     -0.496016
      28A     -0.478475    29A     -0.470708    30A     -0.467832
      31A     -0.457125    32A     -0.443533

  @DF-RHF Final Energy:  -383.94858203556714

   => Energetics <=

    Nuclear Repulsion Energy =            375.8540657878643287
    One-Electron Energy =               -1267.7075521768172166
    Two-Electron Energy =                 507.9049043533859162
    DFT Exchange-Correlation Energy =       0.0000000000000000
    Empirical Dispersion Energy =           0.0000000000000000
    PCM Polarization Energy =               0.0000000000000000
    EFP Energy =                            0.0000000000000000
    Total Energy =                       -383.9485820355669716
    Molecular point group: c1
  Basis Set: 6-31G*
  Basis Set:

  -Total Gradient:
     Atom            X                  Y                   Z
    ------   -----------------  -----------------  -----------------
       1        0.000002754469    -0.000001460215     0.000003634986
       2        0.000001055564     0.000000974507    -0.000007331935
       3       -0.000158968635    -0.000051390708    -0.000899612053
       4       -0.000145498475     0.000507617852    -0.000255308042
       5        0.000130901996    -0.000029178089     0.000685981207
       6        0.000003134687     0.000006301936    -0.000000942126
       7        0.000171871158    -0.000434701903     0.000466505884
       8       -0.000001340443     0.000005649099    -0.000005009871
       9       -0.000007282062     0.000003946906    -0.000007173762
      10        0.000005778847    -0.000000713179     0.000002070272
      11        0.000000182254     0.000003576172    -0.000000075666
      12        0.000006908464    -0.000014614552     0.000017611283
      13       -0.000012156729    -0.000003847790     0.000004401504
      14        0.000004462694    -0.000003364011    -0.000002833357
      15       -0.000003341961     0.000012570088    -0.000008140106
      16        0.000008701323    -0.000003576065     0.000006676600
      17       -0.000004965340    -0.000001706788     0.000001836053
      18       -0.000001306148     0.000004910542    -0.000003620593
      19       -0.000003177690     0.000002237450     0.000004860926
      20        0.000002286019    -0.000003231253    -0.000003531203

  **** Optimization is complete! (in 7 steps) ****
    Final optimized geometry and variables:
    Molecular point group: c1

    Geometry (in Angstrom), charge = 0, multiplicity = 1:

    H            3.698415924559    -0.948384783963    -0.303619967385
    O            2.786781825385    -1.187934903028    -0.167920732953
    C            2.080995015153    -0.066166068318    -0.030482139869
    C            0.624493076600    -0.350642362183     0.234597151167
    O            2.584986916037     1.007921953665    -0.091849890269
    C           -0.265047371847     0.880630918694     0.073519139692
    H            0.324277949325    -1.168597791320    -0.409480175287
    H            0.566616430602    -0.735931741800     1.250914583533
    C           -1.724845197934     0.643292345611     0.473594992003
    H           -0.219061981243     1.223876354983    -0.956461099294
    H            0.145315087001     1.682178750274     0.676732146297
    C           -2.488010887138    -0.340250518371    -0.418055566712
    H           -2.239985518299     1.600890888248     0.453514015355
    H           -1.766410360395     0.300442311482     1.506501373382
    C           -3.963532340225    -0.455852710816    -0.036105041814
    H           -2.407710272790    -0.019965834214    -1.454915279821
    H           -2.032264221514    -1.325587456955    -0.365912001220
    H           -4.482631816027    -1.158247941467    -0.680681666029
    H           -4.466135043408     0.503522380892    -0.118871030087
    H           -4.077347633995    -0.800420892413     0.987883254784

  Mulliken Charges: (a.u.)
   Center  Symbol    Alpha    Beta     Spin     Total
       1     H     0.26794  0.26794  0.00000  0.46412
       2     O     4.35135  4.35135  0.00000 -0.70270
       3     C     2.62144  2.62144  0.00000  0.75712
       4     C     3.21379  3.21379  0.00000 -0.42757
       5     O     4.27947  4.27947  0.00000 -0.55894
       6     C     3.15568  3.15568  0.00000 -0.31137
       7     H     0.39709  0.39709  0.00000  0.20582
       8     H     0.39864  0.39864  0.00000  0.20272
       9     C     3.15554  3.15554  0.00000 -0.31107
      10     H     0.41493  0.41493  0.00000  0.17013
      11     H     0.40427  0.40427  0.00000  0.19145
      12     C     3.15476  3.15476  0.00000 -0.30951
      13     H     0.41786  0.41786  0.00000  0.16429
      14     H     0.42349  0.42349  0.00000  0.15302
      15     C     3.23926  3.23926  0.00000 -0.47851
      16     H     0.42174  0.42174  0.00000  0.15652
      17     H     0.42248  0.42248  0.00000  0.15504
      18     H     0.41833  0.41833  0.00000  0.16335
      19     H     0.42067  0.42067  0.00000  0.15866
      20     H     0.42129  0.42129  0.00000  0.15742

   Total alpha = 32.00000, Total beta = 32.00000, Total charge = -0.00000
