  ==> Input File <==

--------------------------------------------------------------------------
set {
	reference rhf
	basis 6-31G*
}

set_num_threads( 1 )
memory 2 gb

molecule MOL {
0 1

H	 0.037977	 2.200062	 2.474583
C	 -0.519990	 1.269784	 2.638527
C	 -1.656322	 1.030386	 1.677251
O	 -0.213552	 0.537472	 3.522588
C	 -1.220012	 1.144545	 0.209990
H	 -2.086102	 0.058593	 1.890827
H	 -2.415049	 1.783960	 1.884895
C	 -0.252658	 0.041456	 -0.226725
H	 -2.107010	 1.115064	 -0.415830
H	 -0.764482	 2.119473	 0.043362
C	 1.180775	 0.282413	 0.250794
H	 -0.266029	 -0.034465	 -1.312038
H	 -0.597733	 -0.921000	 0.146291
C	 2.148627	 -0.814315	 -0.201312
H	 1.516199	 1.249228	 -0.115937
H	 1.192670	 0.346017	 1.338083
C	 3.580890	 -0.659131	 0.322722
H	 2.166869	 -0.852443	 -1.289387
H	 1.762857	 -1.776509	 0.128956
C	 4.324889	 0.564933	 -0.213704
H	 4.142010	 -1.551473	 0.056605
H	 3.564836	 -0.624694	 1.410140
H	 4.342616	 0.565491	 -1.300421
H	 3.866655	 1.493402	 0.110242
H	 5.353900	 0.572371	 0.132816

	symmetry c1
}
set optking {
	frozen_dihedral = ("
		6 3 5 8,
		6 3 2 4,
		12 8 11 14,
		8 11 14 18,
		20 17 14 18
	")
}

ee = energy('scf')
oeprop('DIPOLE', 'QUADRUPOLE', 'MULLIKEN_CHARGES')
f=open( 'psi4out.xyz', 'w' )
f.write( "25  " )
f.write( str(ee) + "\n" )
f.write( MOL.save_string_xyz() )
f.close()
--------------------------------------------------------------------------

    Molecular point group: c1

    Geometry (in Angstrom), charge = 0, multiplicity = 1:

       Center              X                  Y                   Z               Mass
    ------------   -----------------  -----------------  -----------------  -----------------
           H         -0.800947151011     1.819905554920     1.576537007884     1.007825032070
           C         -1.358914151011     0.889627554920     1.740481007884    12.000000000000
           C         -2.495246151011     0.650229554920     0.779205007884    12.000000000000
           O         -1.052476151011     0.157315554920     2.624542007884    15.994914619560
           C         -2.058936151011     0.764388554920    -0.688055992116    12.000000000000
           H         -2.925026151011    -0.321563445080     0.992781007884     1.007825032070
           H         -3.253973151011     1.403803554920     0.986849007884     1.007825032070
           C         -1.091582151011    -0.338700445080    -1.124770992116    12.000000000000
           H         -2.945934151011     0.734907554920    -1.313875992116     1.007825032070
           H         -1.603406151011     1.739316554920    -0.854683992116     1.007825032070
           C          0.341850848989    -0.097743445080    -0.647251992116    12.000000000000
           H         -1.104953151011    -0.414621445080    -2.210083992116     1.007825032070
           H         -1.436657151011    -1.301156445080    -0.751754992116     1.007825032070
           C          1.309702848989    -1.194471445080    -1.099357992116    12.000000000000
           H          0.677274848989     0.869071554920    -1.013982992116     1.007825032070
           H          0.353745848989    -0.034139445080     0.440037007884     1.007825032070
           C          2.741965848989    -1.039287445080    -0.575323992116    12.000000000000
           H          1.327944848989    -1.232599445080    -2.187432992116     1.007825032070
           H          0.923932848989    -2.156665445080    -0.769089992116     1.007825032070
           C          3.485964848989     0.184776554920    -1.111749992116    12.000000000000
           H          3.303085848989    -1.931629445080    -0.841440992116     1.007825032070
           H          2.725911848989    -1.004850445080     0.512094007884     1.007825032070
           H          3.503691848989     0.185334554920    -2.198466992116     1.007825032070
           H          3.027730848989     1.113245554920    -0.787803992116     1.007825032070
           H          4.514975848989     0.192214554920    -0.765229992116     1.007825032070

  Charge       = 0
  Multiplicity = 1
  Basis Set: 6-31G*
  Basis Set:

    Orbital Energies (a.u.)
    -----------------------

    Doubly Occupied:

       1A    -20.560440     2A    -11.326907     3A    -11.235317
       4A    -11.234590     5A    -11.222607     6A    -11.216652
       7A    -11.214849     8A    -11.214193     9A    -11.208151
      10A     -1.402340    11A     -1.104991    12A     -1.066860
      13A     -1.009432    14A     -0.943220    15A     -0.879529
      16A     -0.813246    17A     -0.791174    18A     -0.777768
      19A     -0.664170    20A     -0.656019    21A     -0.644286
      22A     -0.619243    23A     -0.611526    24A     -0.575044
      25A     -0.570251    26A     -0.561079    27A     -0.533913
      28A     -0.521262    29A     -0.512327    30A     -0.507129
      31A     -0.485792    32A     -0.471687    33A     -0.457429
      34A     -0.453367    35A     -0.442206    36A     -0.408394

  @DF-RHF Final Energy:  -387.11699929029959

   => Energetics <=

    Nuclear Repulsion Energy =            457.9524123773849738
    One-Electron Energy =               -1432.3040597346321192
    Two-Electron Energy =                 587.2346480669448283
    DFT Exchange-Correlation Energy =       0.0000000000000000
    Empirical Dispersion Energy =           0.0000000000000000
    PCM Polarization Energy =               0.0000000000000000
    EFP Energy =                            0.0000000000000000
    Total Energy =                       -387.1169992903023740

  Mulliken Charges: (a.u.)
   Center  Symbol    Alpha    Beta     Spin     Total
       1     H     0.43040  0.43040  0.00000  0.13919
       2     C     2.83065  2.83065  0.00000  0.33871
       3     C     3.20556  3.20556  0.00000 -0.41112
       4     O     4.24237  4.24237  0.00000 -0.48473
       5     C     3.16902  3.16902  0.00000 -0.33805
       6     H     0.39935  0.39935  0.00000  0.20131
       7     H     0.40655  0.40655  0.00000  0.18689
       8     C     3.15511  3.15511  0.00000 -0.31022
       9     H     0.41111  0.41111  0.00000  0.17779
      10     H     0.41890  0.41890  0.00000  0.16221
      11     C     3.16839  3.16839  0.00000 -0.33677
      12     H     0.41788  0.41788  0.00000  0.16425
      13     H     0.41732  0.41732  0.00000  0.16535
      14     C     3.15144  3.15144  0.00000 -0.30287
      15     H     0.42220  0.42220  0.00000  0.15560
      16     H     0.41175  0.41175  0.00000  0.17650
      17     C     3.15369  3.15369  0.00000 -0.30737
      18     H     0.42473  0.42473  0.00000  0.15054
      19     H     0.41998  0.41998  0.00000  0.16005
      20     C     3.24102  3.24102  0.00000 -0.48203
      21     H     0.42075  0.42075  0.00000  0.15850
      22     H     0.41908  0.41908  0.00000  0.16184
      23     H     0.42296  0.42296  0.00000  0.15408
      24     H     0.42125  0.42125  0.00000  0.15749
      25     H     0.41856  0.41856  0.00000  0.16288

   Total alpha = 36.00000, Total beta = 36.00000, Total charge =  0.00000
