  ==> Input File <==

--------------------------------------------------------------------------
set {
	reference rhf
	basis 6-31G*
}

set_num_threads( 4 )
memory 2 gb

molecule MOL {
0 1

O	 -2.752079	 1.214911	 -0.710276
C	 -2.631748	 0.079797	 -0.376130
C	 -3.768858	 -0.908399	 -0.334681
O	 -1.481751	 -0.454642	 0.000584
H	 -4.203031	 -0.980931	 -1.324678
H	 -3.443328	 -1.883665	 -0.004039
H	 -4.534506	 -0.529986	 0.332003
C	 -0.334255	 0.388708	 0.000906
C	 0.891947	 -0.504646	 0.000751
H	 -0.365390	 1.025305	 -0.873475
H	 -0.365484	 1.024911	 0.875569
C	 2.191998	 0.301789	 0.000897
H	 0.855148	 -1.151283	 -0.871571
H	 0.855132	 -1.151660	 0.872805
C	 3.441114	 -0.581407	 0.000108
H	 2.215074	 0.954890	 -0.869742
H	 2.215465	 0.953923	 0.872248
C	 4.739576	 0.224112	 -0.001102
H	 3.419457	 -1.233487	 -0.870178
H	 3.420834	 -1.233096	 0.870717
H	 4.804918	 0.861552	 -0.878265
H	 5.606527	 -0.429058	 -0.001824
H	 4.806469	 0.861674	 0.875853

	symmetry c1
}
set optking {
	frozen_dihedral = ("
		2 4 8 10
	")
}

ee = optimize('scf')
oeprop('DIPOLE', 'QUADRUPOLE', 'MULLIKEN_CHARGES')
f=open( 'psi4out.xyz', 'w' )
f.write( "23  " )
f.write( str(ee) + "\n" )
f.write( MOL.save_string_xyz() )
f.close()
--------------------------------------------------------------------------

    Molecular point group: c1
  Charge       = 0
  Multiplicity = 1
  Basis Set: 6-31G*
  Basis Set:
  @DF-RHF Final Energy:  -422.97891967088657
    Total Energy =                       -422.9789196708866257
    Molecular point group: c1
  Basis Set: 6-31G*
  Basis Set:
  Basis Set: 6-31G*
  Basis Set:
  @DF-RHF Final Energy:  -422.97894557111925
    Total Energy =                       -422.9789455711195387
  Basis Set: 6-31G*
  Basis Set:
  Basis Set: 6-31G*
  Basis Set:
  @DF-RHF Final Energy:  -422.97876644601445
    Total Energy =                       -422.9787664460149017
  Basis Set: 6-31G*
  Basis Set:
  Basis Set: 6-31G*
  Basis Set:
  @DF-RHF Final Energy:  -422.97900662737749
    Total Energy =                       -422.9790066273768616
  Basis Set: 6-31G*
  Basis Set:
  Basis Set: 6-31G*
  Basis Set:
  @DF-RHF Final Energy:  -422.97901792866935
    Total Energy =                       -422.9790179286699185
  Basis Set: 6-31G*
  Basis Set:
  Charge       = 0
  Multiplicity = 1
  Basis Set: 6-31G*
  Basis Set:

    Orbital Energies (a.u.)
    -----------------------

    Doubly Occupied:

       1A    -20.602833     2A    -20.540386     3A    -11.374428
       4A    -11.281189     5A    -11.232216     6A    -11.224579
       7A    -11.223940     8A    -11.221784     9A    -11.213030
      10A     -1.467310    11A     -1.360879    12A     -1.094315
      13A     -1.042297    14A     -1.003387    15A     -0.931160
      16A     -0.842402    17A     -0.802574    18A     -0.774378
      19A     -0.693478    20A     -0.683396    21A     -0.667064
      22A     -0.646903    23A     -0.605857    24A     -0.588474
      25A     -0.582728    26A     -0.567649    27A     -0.557894
      28A     -0.536957    29A     -0.523357    30A     -0.505381
      31A     -0.490910    32A     -0.478075    33A     -0.471387
      34A     -0.467496    35A     -0.449389    36A     -0.434688

  @DF-RHF Final Energy:  -422.97901795514269

   => Energetics <=

    Nuclear Repulsion Energy =            449.6494905413004517
    One-Electron Energy =               -1466.8886770423810049
    Two-Electron Energy =                 594.2601685459380860
    DFT Exchange-Correlation Energy =       0.0000000000000000
    Empirical Dispersion Energy =           0.0000000000000000
    PCM Polarization Energy =               0.0000000000000000
    EFP Energy =                            0.0000000000000000
    Total Energy =                       -422.9790179551424671
    Molecular point group: c1
  Basis Set: 6-31G*
  Basis Set:

  -Total Gradient:
     Atom            X                  Y                   Z
    ------   -----------------  -----------------  -----------------
       1       -0.000017498822    -0.000005251924     0.000006165555
       2        0.000210881104    -0.000316518501    -0.001206896083
       3        0.000001471736     0.000013991425     0.000028749325
       4       -0.000486875457     0.000689321833     0.001892089918
       5        0.000005200438    -0.000009126208    -0.000009488317
       6        0.000004831749     0.000004214553    -0.000002726206
       7       -0.000003576318     0.000003759128    -0.000011609245
       8        0.000980688805    -0.001397665526    -0.001457975099
       9       -0.000002621661     0.000004549312    -0.000006779354
      10       -0.000708415493     0.001007571784     0.000756186004
      11        0.000015923819     0.000005406495    -0.000002448249
      12       -0.000003692739    -0.000002612155     0.000007039275
      13        0.000003566660    -0.000008915090     0.000003399903
      14       -0.000005249025     0.000011849949     0.000001892019
      15        0.000001953971     0.000002355331    -0.000005764547
      16       -0.000003284334     0.000003361903     0.000009709788
      17        0.000001759184    -0.000004423406     0.000007585456
      18        0.000002918703    -0.000002591591    -0.000009476327
      19       -0.000000502264    -0.000005742308     0.000001342116
      20        0.000001147198     0.000006158776     0.000000769950
      21        0.000001647434     0.000001414565     0.000000113360
      22        0.000002039174     0.000000816066    -0.000001453943
      23       -0.000002313863    -0.000001924413    -0.000000425300

  **** Optimization is complete! (in 6 steps) ****
    Final optimized geometry and variables:
    Molecular point group: c1

    Geometry (in Angstrom), charge = 0, multiplicity = 1:

    O           -2.794344274696     1.243297158692    -0.522187173649
    C           -2.654783301343     0.105232996231    -0.206122063794
    C           -3.779302334222    -0.897554190815    -0.168605151629
    O           -1.496367839026    -0.422231435947     0.155029306954
    H           -4.225362650948    -0.956761192198    -1.154200338138
    H           -3.437975577321    -1.874682598626     0.139764107686
    H           -4.540717760437    -0.540800272585     0.514667267831
    C           -0.342961475711     0.413676075143     0.132990777124
    C            0.880856589801    -0.482644398882     0.146435615076
    H           -0.377755133127     1.046033070803    -0.742040769570
    H           -0.370776778911     1.057830355098     1.003858021397
    C            2.182795064676     0.320680746525     0.154181148536
    H            0.848777506339    -1.131641529791    -0.724433460721
    H            0.836004417346    -1.127062627388     1.019937067857
    C            3.429800172869    -0.565436897283     0.161563914359
    H            2.212665009528     0.973397665992    -0.716505310323
    H            2.202468337978     0.973028616068     1.025505286788
    C            4.730108903193     0.237090884308     0.168176573595
    H            3.412052313523    -1.217746090714    -0.708628649002
    H            3.402457981574    -1.216776195250     1.032252073028
    H            4.802453842278     0.874024234073    -0.708792484764
    H            5.595503228033    -0.418107131750     0.173143467565
    H            4.793044297699     0.874850599752     1.045294058213

  Mulliken Charges: (a.u.)
   Center  Symbol    Alpha    Beta     Spin     Total
       1     O     4.28380  4.28380  0.00000 -0.56760
       2     C     2.61541  2.61541  0.00000  0.76918
       3     C     3.28788  3.28788  0.00000 -0.57576
       4     O     4.31295  4.31295  0.00000 -0.62590
       5     H     0.39765  0.39765  0.00000  0.20471
       6     H     0.39990  0.39990  0.00000  0.20020
       7     H     0.39746  0.39746  0.00000  0.20507
       8     C     2.99763  2.99763  0.00000  0.00475
       9     C     3.16431  3.16431  0.00000 -0.32862
      10     H     0.40437  0.40437  0.00000  0.19127
      11     H     0.41459  0.41459  0.00000  0.17083
      12     C     3.16022  3.16022  0.00000 -0.32044
      13     H     0.41482  0.41482  0.00000  0.17037
      14     H     0.41392  0.41392  0.00000  0.17217
      15     C     3.15143  3.15143  0.00000 -0.30286
      16     H     0.42042  0.42042  0.00000  0.15916
      17     H     0.42102  0.42102  0.00000  0.15796
      18     C     3.23988  3.23988  0.00000 -0.47976
      19     H     0.42133  0.42133  0.00000  0.15734
      20     H     0.42139  0.42139  0.00000  0.15721
      21     H     0.42073  0.42073  0.00000  0.15853
      22     H     0.41797  0.41797  0.00000  0.16405
      23     H     0.42093  0.42093  0.00000  0.15814

   Total alpha = 36.00000, Total beta = 36.00000, Total charge =  0.00000
