  ==> Input File <==

--------------------------------------------------------------------------
set {
	reference rhf
	basis cc-pvtz
}

set_num_threads( 4 )
memory 2 gb

molecule MOL {
0 1

H	 -1.109763	 0.806858	 0.338343
N	 -0.712187	 0.000026	 -0.093397
C	 0.734067	 -0.000020	 0.038424
H	 -0.982927	 0.016900	 -1.053532
H	 1.140372	 -0.872115	 -0.458226
H	 1.140363	 0.872301	 -0.457869
H	 1.095085	 -0.000244	 1.065614

	symmetry c1
}
set optking {
	frozen_dihedral = ("
		1 2 3 7
	")
}

ee = optimize('scf')
oeprop('DIPOLE', 'QUADRUPOLE', 'MULLIKEN_CHARGES')
f=open( 'psi4out.xyz', 'w' )
f.write( "7  " )
f.write( str(ee) + "\n" )
f.write( MOL.save_string_xyz() )
f.close()
--------------------------------------------------------------------------

    Molecular point group: c1
  Charge       = 0
  Multiplicity = 1
  Basis Set: CC-PVTZ
  Basis Set:
  @DF-RHF Final Energy:   -95.25191381483921
    Total Energy =                        -95.2519138148391988
    Molecular point group: c1
  Basis Set: CC-PVTZ
  Basis Set:
  Basis Set: CC-PVTZ
  Basis Set:
  @DF-RHF Final Energy:   -95.25357263342154
    Total Energy =                        -95.2535726334215553
  Basis Set: CC-PVTZ
  Basis Set:
  Basis Set: CC-PVTZ
  Basis Set:
  @DF-RHF Final Energy:   -95.25375535291765
    Total Energy =                        -95.2537553529176222
  Basis Set: CC-PVTZ
  Basis Set:
  Charge       = 0
  Multiplicity = 1
  Basis Set: CC-PVTZ
  Basis Set:

    Orbital Energies (a.u.)
    -----------------------

    Doubly Occupied:

       1A    -15.528493     2A    -11.235520     3A     -1.172242
       4A     -0.897055     5A     -0.666085     6A     -0.603279
       7A     -0.558694     8A     -0.517522     9A     -0.386597

  @DF-RHF Final Energy:   -95.25375631853932

   => Energetics <=

    Nuclear Repulsion Energy =             42.3936601130071864
    One-Electron Energy =                -212.1638581789756586
    Two-Electron Energy =                  74.5164417474291838
    DFT Exchange-Correlation Energy =       0.0000000000000000
    Empirical Dispersion Energy =           0.0000000000000000
    PCM Polarization Energy =               0.0000000000000000
    EFP Energy =                            0.0000000000000000
    Total Energy =                        -95.2537563185393026
    Molecular point group: c1
  Basis Set: CC-PVTZ
  Basis Set:

  -Total Gradient:
     Atom            X                  Y                   Z
    ------   -----------------  -----------------  -----------------
       1        0.000011909936    -0.000120392085     0.000214635672
       2        0.000074878971     0.000205235883    -0.000211059057
       3       -0.000012718022    -0.000334592362    -0.000035317745
       4        0.000070667536     0.000000317661     0.000019116456
       5       -0.000030752112    -0.000002025247    -0.000000954642
       6       -0.000038985208     0.000024855930    -0.000009498657
       7       -0.000075001100     0.000226600221     0.000023077974

  **** Optimization is complete! (in 4 steps) ****
    Final optimized geometry and variables:
    Molecular point group: c1

    Geometry (in Angstrom), charge = 0, multiplicity = 1:

    H           -1.117346003692     0.757522442194     0.417680002082
    N           -0.716333576305    -0.036687693760    -0.033705708641
    C            0.732241544321    -0.012818147099     0.061838188969
    H           -1.012653650262    -0.016532280744    -0.986117939543
    H            1.138752948122    -0.906512825578    -0.394788115991
    H            1.202389381935     0.848881528456    -0.409540752644
    H            1.023172318737    -0.020983715131     1.104789005836

  Mulliken Charges: (a.u.)
   Center  Symbol    Alpha    Beta     Spin     Total
       1     H     0.42844  0.42844  0.00000  0.14312
       2     N     3.68705  3.68705  0.00000 -0.37411
       3     C     3.07140  3.07140  0.00000 -0.14280
       4     H     0.42857  0.42857  0.00000  0.14285
       5     H     0.45601  0.45601  0.00000  0.08799
       6     H     0.47246  0.47246  0.00000  0.05509
       7     H     0.45607  0.45607  0.00000  0.08786

   Total alpha =  9.00000, Total beta =  9.00000, Total charge =  0.00000
