                              Psi4 1.0.54 Driver

  ==> Input File <==

--------------------------------------------------------------------------
set {
	reference rhf
	basis cc-pvtz
}

set_num_threads( 4 )
memory 2 gb

molecule MOL {
0 1

H	 4.838833	 -1.738511	 0.570550
C	 4.261752	 -1.506148	 -0.317060
C	 2.793270	 -1.277441	 0.024372
H	 4.696654	 -0.623205	 -0.772567
H	 4.379904	 -2.330021	 -1.013532
C	 1.946056	 -0.957784	 -1.205270
H	 2.714402	 -0.465882	 0.738579
H	 2.395849	 -2.164490	 0.512250
C	 0.470026	 -0.730080	 -0.894829
H	 2.341954	 -0.079336	 -1.699662
H	 2.022805	 -1.779542	 -1.911391
C	 0.166485	 0.574257	 -0.177158
H	 -0.101649	 -0.706198	 -1.819158
H	 0.062123	 -1.555151	 -0.318295
C	 -1.180025	 0.697761	 0.509157
O	 0.941074	 1.476026	 -0.167150
C	 -2.285431	 -0.137488	 -0.145671
H	 -1.447360	 1.745713	 0.496200
H	 -1.065514	 0.394096	 1.546399
C	 -3.646545	 0.082747	 0.508954
H	 -2.348635	 0.118247	 -1.199806
H	 -2.034895	 -1.192387	 -0.096473
C	 -4.757412	 -0.737227	 -0.138149
H	 -3.900211	 1.137405	 0.459735
H	 -3.580878	 -0.166775	 1.564416
H	 -4.867876	 -0.486707	 -1.187777
H	 -4.549650	 -1.800049	 -0.072540
H	 -5.709585	 -0.556397	 0.346597

	symmetry c1
}
set optking {
	frozen_dihedral = ("
		16 12 15 17
	")
}

ee,wfn = optimize('scf', return_wfn=True)
oeprop( wfn, 'DIPOLE', 'QUADRUPOLE', 'MULLIKEN_CHARGES')
f=open( 'psi4out.xyz', 'w' )
f.write( "28  " )
f.write( str(ee) + "\n" )
f.write( MOL.save_string_xyz() )
f.close()
--------------------------------------------------------------------------

    Molecular point group: c1
  Charge       = 0
  Multiplicity = 1
  Basis Set: CC-PVTZ
  Basis Set:
  @DF-RHF Final Energy:  -426.31707854416220
    Total Energy =                       -426.3170785441624275
    Molecular point group: c1
  Basis Set: CC-PVTZ
  Basis Set:
  Basis Set: CC-PVTZ
  Basis Set:
  @DF-RHF Final Energy:  -426.31695691309710
    Total Energy =                       -426.3169569130973287
  Basis Set: CC-PVTZ
  Basis Set:
  Basis Set: CC-PVTZ
  Basis Set:
  @DF-RHF Final Energy:  -426.31763458438513
    Total Energy =                       -426.3176345843844501
  Basis Set: CC-PVTZ
  Basis Set:
  Basis Set: CC-PVTZ
  Basis Set:
  @DF-RHF Final Energy:  -426.31860617762300
    Total Energy =                       -426.3186061776229963
  Basis Set: CC-PVTZ
  Basis Set:
  @DF-RHF Final Energy:  -426.31867758606404
    Total Energy =                       -426.3186775860640410
  Basis Set: CC-PVTZ
  Basis Set:
  @DF-RHF Final Energy:  -426.31871726089287
    Total Energy =                       -426.3187172608925266
  Basis Set: CC-PVTZ
  Basis Set:
  Basis Set: CC-PVTZ
  Basis Set:
  @DF-RHF Final Energy:  -426.31872452614584
    Total Energy =                       -426.3187245261456155
  Basis Set: CC-PVTZ
  Basis Set:
  Basis Set: CC-PVTZ
  Basis Set:
  @DF-RHF Final Energy:  -426.31872693256685
    Total Energy =                       -426.3187269325665056
  Basis Set: CC-PVTZ
  Basis Set:
  Charge       = 0
  Multiplicity = 1
  Basis Set: CC-PVTZ
  Basis Set:

    Orbital Energies (a.u.)
    -----------------------

    Doubly Occupied:

       1A    -20.535084     2A    -11.317688     3A    -11.228903
       4A    -11.228545     5A    -11.227831     6A    -11.224005
       7A    -11.214711     8A    -11.214208     9A    -11.209558
      10A    -11.203204    11A     -1.396206    12A     -1.096568
      13A     -1.078282    14A     -1.023174    15A     -0.991634
      16A     -0.907611    17A     -0.876121    18A     -0.809900
      19A     -0.800500    20A     -0.722644    21A     -0.667419
      22A     -0.659130    23A     -0.631351    24A     -0.619538
      25A     -0.610114    26A     -0.587441    27A     -0.582052
      28A     -0.573991    29A     -0.541298    30A     -0.533835
      31A     -0.519998    32A     -0.514371    33A     -0.493478
      34A     -0.487977    35A     -0.481227    36A     -0.475748
      37A     -0.470076    38A     -0.465681    39A     -0.457063
      40A     -0.394171

  @DF-RHF Final Energy:  -426.31872717766248

   => Energetics <=

    Nuclear Repulsion Energy =            532.3233026864513704
    One-Electron Energy =               -1633.1393894217233083
    Two-Electron Energy =                 674.4973595576088883
    DFT Exchange-Correlation Energy =       0.0000000000000000
    Empirical Dispersion Energy =           0.0000000000000000
    PCM Polarization Energy =               0.0000000000000000
    EFP Energy =                            0.0000000000000000
    Total Energy =                       -426.3187271776630496
    Molecular point group: c1
  Basis Set: CC-PVTZ
  Basis Set:

  -Total Gradient:
     Atom            X                  Y                   Z
    ------   -----------------  -----------------  -----------------
       1       -0.000002702979    -0.000000063569     0.000000585222
       2       -0.000002878256    -0.000001334836    -0.000002102615
       3        0.000008396956    -0.000002591998     0.000003526263
       4       -0.000000312043     0.000001070822     0.000000817356
       5        0.000002385671    -0.000003342324    -0.000003167391
       6        0.000000713105     0.000000810660    -0.000001110975
       7       -0.000002398453     0.000004923790     0.000004507154
       8       -0.000001695312     0.000000318396    -0.000001399138
       9        0.000003192239    -0.000005878714     0.000002096754
      10        0.000001751298     0.000002130358     0.000000992343
      11       -0.000004309154    -0.000000596825    -0.000000761155
      12       -0.000731819419     0.000459605267    -0.001925113176
      13       -0.000002080101     0.000000209101    -0.000003323829
      14       -0.000000676864    -0.000000456694     0.000000541800
      15       -0.000134633927     0.001416017420    -0.000646726859
      16        0.000617182330    -0.000707951404     0.001678896445
      17        0.000252175401    -0.001166661681     0.000890898418
      18        0.000003875743     0.000000731811     0.000003526760
      19       -0.000004817643    -0.000002094202    -0.000000966949
      20        0.000001897356     0.000006017235    -0.000006549157
      21        0.000002793220     0.000003698532     0.000005496622
      22        0.000000238344    -0.000007302260    -0.000003389015
      23       -0.000001556533     0.000000771463     0.000001857034
      24       -0.000004729211     0.000002495347     0.000001916833
      25       -0.000000181481    -0.000000787652    -0.000000377067
      26        0.000000053026     0.000000720549    -0.000000585085
      27        0.000001014937     0.000000173964    -0.000000048705
      28       -0.000000878238    -0.000000632558    -0.000000037885

  **** Optimization is complete! (in 9 steps) ****
    Final optimized geometry and variables:
    Molecular point group: c1

    Geometry (in Angstrom), charge = 0, multiplicity = 1:

    H            5.109798825301    -1.242429519141     0.855066058675
    C            4.513370528886    -1.065094504863    -0.032464324987
    C            3.034354516224    -0.934214738519     0.314793756022
    H            4.883022778582    -0.161015276912    -0.503894522724
    H            4.685744772460    -1.889497034544    -0.717003647136
    C            2.160606455084    -0.698062022643    -0.915304743886
    H            2.901062429041    -0.118014534818     1.014495557734
    H            2.703210836209    -1.838988272801     0.819467483881
    C            0.673596878955    -0.565343557740    -0.602850015090
    H            2.495189206630     0.193548429548    -1.431374318400
    H            2.289653724801    -1.528358553207    -1.603703674385
    C            0.274476710585     0.744509764696     0.050180029373
    H            0.089072427609    -0.648571485511    -1.515250961275
    H            0.338088044073    -1.381954928724     0.030582021626
    C           -1.128120539926     0.872252185692     0.622502856392
    O            1.038744357209     1.649051389697     0.155578252544
    C           -2.249194934444     0.100582529411    -0.072036483141
    H           -1.352297116602     1.930197812997     0.659591316033
    H           -1.050944200317     0.537366392184     1.655624461043
    C           -3.608135529310     0.349250197141     0.577924049299
    H           -2.299428568049     0.390006569562    -1.118544582975
    H           -2.040754850964    -0.963738899710    -0.056888295982
    C           -4.742003056564    -0.409318683993    -0.103066160980
    H           -3.824284195388     1.413391400389     0.561035391229
    H           -3.561173247874     0.064650044974     1.625457997087
    H           -4.835993537978    -0.120751579755    -1.144579762096
    H           -4.571813722163    -1.480343008048    -0.071531701562
    H           -5.690983748776    -0.211454677396     0.381226532933

  Mulliken Charges: (a.u.)
   Center  Symbol    Alpha    Beta     Spin     Total
       1     H     0.44874  0.44874  0.00000  0.10252
       2     C     3.15201  3.15201  0.00000 -0.30403
       3     C     3.08415  3.08415  0.00000 -0.16831
       4     H     0.45186  0.45186  0.00000  0.09629
       5     H     0.45721  0.45721  0.00000  0.08559
       6     C     3.08727  3.08727  0.00000 -0.17454
       7     H     0.44436  0.44436  0.00000  0.11129
       8     H     0.45919  0.45919  0.00000  0.08162
       9     C     3.13172  3.13172  0.00000 -0.26345
      10     H     0.44544  0.44544  0.00000  0.10913
      11     H     0.44790  0.44790  0.00000  0.10419
      12     C     2.86996  2.86996  0.00000  0.26009
      13     H     0.43162  0.43162  0.00000  0.13675
      14     H     0.44197  0.44197  0.00000  0.11607
      15     C     3.08876  3.08876  0.00000 -0.17751
      16     O     4.17970  4.17970  0.00000 -0.35940
      17     C     3.10200  3.10200  0.00000 -0.20401
      18     H     0.43651  0.43651  0.00000  0.12697
      19     H     0.44633  0.44633  0.00000  0.10734
      20     C     3.08687  3.08687  0.00000 -0.17373
      21     H     0.44876  0.44876  0.00000  0.10249
      22     H     0.44920  0.44920  0.00000  0.10159
      23     C     3.14918  3.14918  0.00000 -0.29837
      24     H     0.45031  0.45031  0.00000  0.09937
      25     H     0.45322  0.45322  0.00000  0.09357
      26     H     0.45413  0.45413  0.00000  0.09174
      27     H     0.45508  0.45508  0.00000  0.08985
      28     H     0.44656  0.44656  0.00000  0.10688

   Total alpha = 40.00000, Total beta = 40.00000, Total charge =  0.00000

*** Psi4 exiting successfully. Buy a developer a beer!
