  ==> Input File <==

--------------------------------------------------------------------------
set {
	reference rhf
	basis 6-31G*
}

set_num_threads( 4 )
memory 2 gb

molecule MOL {
0 1

H	 2.881044	 0.861082	 -1.167196
N	 2.068506	 0.275179	 -1.170846
C	 1.267428	 0.496480	 0.024474
H	 2.394865	 -0.672068	 -1.204420
C	 -0.016086	 -0.325158	 -0.029487
H	 1.015941	 1.552118	 0.062103
H	 1.804241	 0.269441	 0.948955
C	 -1.282277	 0.529072	 0.046735
H	 -0.012495	 -0.908639	 -0.945788
H	 -0.015903	 -1.041248	 0.791956
C	 -2.563920	 -0.301775	 -0.006060
H	 -1.284084	 1.244622	 -0.773004
H	 -1.271387	 1.115393	 0.963286
H	 -2.621848	 -0.873522	 -0.927727
H	 -3.445135	 0.329952	 0.047812
H	 -2.609542	 -1.004582	 0.821105

	symmetry c1
}
set optking {
	frozen_dihedral = ("
		6 3 5 9
	")
}

ee = optimize('scf')
oeprop('DIPOLE', 'QUADRUPOLE', 'MULLIKEN_CHARGES')
f=open( 'psi4out.xyz', 'w' )
f.write( "16  " )
f.write( str(ee) + "\n" )
f.write( MOL.save_string_xyz() )
f.close()
--------------------------------------------------------------------------

    Molecular point group: c1
  Charge       = 0
  Multiplicity = 1
  Basis Set: 6-31G*
  Basis Set:
  @DF-RHF Final Energy:  -212.31092305862316
    Total Energy =                       -212.3109230586231320
    Molecular point group: c1
  Basis Set: 6-31G*
  Basis Set:
  Basis Set: 6-31G*
  Basis Set:
  @DF-RHF Final Energy:  -212.31119146571012
    Total Energy =                       -212.3111914657101238
  Basis Set: 6-31G*
  Basis Set:
  Basis Set: 6-31G*
  Basis Set:
  @DF-RHF Final Energy:  -212.31129062405432
    Total Energy =                       -212.3112906240541520
  Basis Set: 6-31G*
  Basis Set:
  Charge       = 0
  Multiplicity = 1
  Basis Set: 6-31G*
  Basis Set:

    Orbital Energies (a.u.)
    -----------------------

    Doubly Occupied:

       1A    -15.532949     2A    -11.239887     3A    -11.212850
       4A    -11.209437     5A    -11.205973     6A     -1.175637
       7A     -1.056734     8A     -0.955805     9A     -0.844393
      10A     -0.791603    11A     -0.655495    12A     -0.644528
      13A     -0.596112    14A     -0.574933    15A     -0.570308
      16A     -0.515258    17A     -0.503959    18A     -0.466273
      19A     -0.464011    20A     -0.461889    21A     -0.379125

  @DF-RHF Final Energy:  -212.31129142342590

   => Energetics <=

    Nuclear Repulsion Energy =            186.5341577975982830
    One-Electron Energy =                -655.5765833644859413
    Two-Electron Energy =                 256.7311341434617589
    DFT Exchange-Correlation Energy =       0.0000000000000000
    Empirical Dispersion Energy =           0.0000000000000000
    PCM Polarization Energy =               0.0000000000000000
    EFP Energy =                            0.0000000000000000
    Total Energy =                       -212.3112914234259279
    Molecular point group: c1
  Basis Set: 6-31G*
  Basis Set:

  -Total Gradient:
     Atom            X                  Y                   Z
    ------   -----------------  -----------------  -----------------
       1        0.000020823661     0.000006239648    -0.000022715084
       2       -0.000016373402     0.000068323809     0.000068584672
       3        0.000072836215    -0.000145916773    -0.000382716755
       4       -0.000032456678     0.000017469554     0.000037777658
       5       -0.000210009512     0.000292976084    -0.000093714878
       6        0.000014484754    -0.000011301951     0.000229335523
       7        0.000014514632     0.000009478328     0.000022374809
       8        0.000035936708    -0.000037678902     0.000025132477
       9        0.000132034202    -0.000213515746     0.000109818697
      10        0.000005083324     0.000008839576    -0.000001497855
      11       -0.000030271550    -0.000003411198    -0.000001962347
      12        0.000006642912    -0.000005878624     0.000007669977
      13       -0.000006482037     0.000012185977     0.000007114430
      14        0.000001962258    -0.000000209673     0.000004052463
      15       -0.000008737822    -0.000001872696    -0.000001372550
      16        0.000000012332     0.000004272588    -0.000007881241

  **** Optimization is complete! (in 4 steps) ****
    Final optimized geometry and variables:
    Molecular point group: c1

    Geometry (in Angstrom), charge = 0, multiplicity = 1:

    H            2.967725064542     0.733868386731    -0.925866099848
    N            2.147842040170     0.157641755826    -0.940759561918
    C            1.352745874147     0.365808461312     0.263542383106
    H            2.464926140647    -0.792200563082    -0.989902552805
    C            0.052298973979    -0.460058846691     0.220546588318
    H            1.113552020068     1.423231238175     0.309429465807
    H            1.904218853408     0.138318449716     1.177416440228
    C           -1.215807047126     0.394053226956     0.282838261028
    H            0.042443998941    -1.039200889381    -0.698314166859
    H            0.037639629861    -1.176735468348     1.038507052381
    C           -2.497377713300    -0.435600363832     0.229305428574
    H           -1.204839936333     1.101149121015    -0.543150779798
    H           -1.207496681614     0.987000469103     1.195514096054
    H           -2.550677127200    -1.013822541935    -0.688815790205
    H           -3.378340896651     0.197428784860     0.273056414327
    H           -2.549394179099    -1.132448926061     1.061397168344

  Mulliken Charges: (a.u.)
   Center  Symbol    Alpha    Beta     Spin     Total
       1     H     0.33352  0.33352  0.00000  0.33295
       2     N     3.92072  3.92072  0.00000 -0.84144
       3     C     3.06581  3.06581  0.00000 -0.13163
       4     H     0.33545  0.33545  0.00000  0.32910
       5     C     3.15575  3.15575  0.00000 -0.31150
       6     H     0.41777  0.41777  0.00000  0.16445
       7     H     0.43224  0.43224  0.00000  0.13552
       8     C     3.15568  3.15568  0.00000 -0.31136
       9     H     0.41372  0.41372  0.00000  0.17255
      10     H     0.42418  0.42418  0.00000  0.15163
      11     C     3.24015  3.24015  0.00000 -0.48031
      12     H     0.41749  0.41749  0.00000  0.16503
      13     H     0.42448  0.42448  0.00000  0.15104
      14     H     0.42070  0.42070  0.00000  0.15861
      15     H     0.41955  0.41955  0.00000  0.16090
      16     H     0.42278  0.42278  0.00000  0.15444

   Total alpha = 21.00000, Total beta = 21.00000, Total charge = -0.00000
