                              Psi4 1.0.54 Driver

  ==> Input File <==

--------------------------------------------------------------------------
set {
	reference rhf
	basis cc-pvtz
}

set_num_threads( 4 )
memory 2 gb

molecule MOL {
0 1

H	 -2.123894	 -0.667238	 -0.609809
O	 -2.041679	 -0.058866	 0.103463
C	 -0.959304	 0.780994	 -0.094939
C	 0.354905	 0.037902	 -0.006215
H	 -0.985899	 1.279578	 -1.057596
H	 -0.969809	 1.529522	 0.682889
F	 0.374267	 -0.765612	 1.042489
F	 0.534282	 -0.703796	 -1.079204
F	 1.382367	 0.845958	 0.100277

	symmetry c1
}
set optking {
	frozen_dihedral = ("
		7 4 3 5
	")
}

ee,wfn = optimize('scf', return_wfn=True)
oeprop( wfn, 'DIPOLE', 'QUADRUPOLE', 'MULLIKEN_CHARGES')
f=open( 'psi4out.xyz', 'w' )
f.write( "9  " )
f.write( str(ee) + "\n" )
f.write( MOL.save_string_xyz() )
f.close()
--------------------------------------------------------------------------

    Molecular point group: c1
  Charge       = 0
  Multiplicity = 1
  Basis Set: CC-PVTZ
  Basis Set:
  @DF-RHF Final Energy:  -450.84564277147467
    Total Energy =                       -450.8456427714746724
    Molecular point group: c1
  Basis Set: CC-PVTZ
  Basis Set:
  Basis Set: CC-PVTZ
  Basis Set:
  @DF-RHF Final Energy:  -450.84609118100991
    Total Energy =                       -450.8460911810098537
  Basis Set: CC-PVTZ
  Basis Set:
  Basis Set: CC-PVTZ
  Basis Set:
  @DF-RHF Final Energy:  -450.84617016763832
    Total Energy =                       -450.8461701676383200
  Basis Set: CC-PVTZ
  Basis Set:
  Basis Set: CC-PVTZ
  Basis Set:
  @DF-RHF Final Energy:  -450.84617832022997
    Total Energy =                       -450.8461783202299102
  Basis Set: CC-PVTZ
  Basis Set:
  Basis Set: CC-PVTZ
  Basis Set:
  @DF-RHF Final Energy:  -450.84617972617781
    Total Energy =                       -450.8461797261778656
  Basis Set: CC-PVTZ
  Basis Set:
  Charge       = 0
  Multiplicity = 1
  Basis Set: CC-PVTZ
  Basis Set:

    Orbital Energies (a.u.)
    -----------------------

    Doubly Occupied:

       1A    -26.340053     2A    -26.337041     3A    -26.335242
       4A    -20.583216     5A    -11.493211     6A    -11.310268
       7A     -1.747155     8A     -1.645124     9A     -1.641000
      10A     -1.406453    11A     -1.049616    12A     -0.929300
      13A     -0.836686    14A     -0.836070    15A     -0.809684
      16A     -0.733601    17A     -0.718750    18A     -0.702672
      19A     -0.671189    20A     -0.664672    21A     -0.648462
      22A     -0.632893    23A     -0.617034    24A     -0.534459
      25A     -0.484415

  @DF-RHF Final Energy:  -450.84617979123726

   => Energetics <=

    Nuclear Repulsion Energy =            277.6036499773950368
    One-Electron Energy =               -1177.4831262958437037
    Two-Electron Energy =                 449.0332965272110073
    DFT Exchange-Correlation Energy =       0.0000000000000000
    Empirical Dispersion Energy =           0.0000000000000000
    PCM Polarization Energy =               0.0000000000000000
    EFP Energy =                            0.0000000000000000
    Total Energy =                       -450.8461797912377165
    Molecular point group: c1
  Basis Set: CC-PVTZ
  Basis Set:

  -Total Gradient:
     Atom            X                  Y                   Z
    ------   -----------------  -----------------  -----------------
       1        0.000009985737    -0.000003324377    -0.000002195132
       2       -0.000000480516     0.000019189420     0.000013301963
       3        0.001567570159     0.002972741777     0.001344233260
       4        0.001287551586     0.002619016837     0.002264918730
       5       -0.001641989541    -0.003140629924    -0.001654117724
       6       -0.000008558835    -0.000002732737     0.000002205929
       7       -0.001234315980    -0.002444162508    -0.001975811873
       8       -0.000005267174    -0.000036748033    -0.000004591600
       9        0.000025504571     0.000016649543     0.000012056445

  **** Optimization is complete! (in 6 steps) ****
    Final optimized geometry and variables:
    Molecular point group: c1

    Geometry (in Angstrom), charge = 0, multiplicity = 1:

    H           -2.121847283757    -0.645171392134    -0.691468655536
    O           -2.042495991895    -0.089777413798     0.063988718784
    C           -0.968567679885     0.775374139095    -0.074677061653
    C            0.356045705757     0.045200126440     0.006068607594
    H           -0.991643965626     1.290263636008    -1.028365437601
    H           -1.011673022215     1.494268990460     0.728649243930
    F            0.414534810734    -0.781509497139     1.020778497814
    F            0.559245360142    -0.673623080562    -1.086728958758
    F            1.351534013908     0.898927364138     0.107993376245

  Mulliken Charges: (a.u.)
   Center  Symbol    Alpha    Beta     Spin     Total
       1     H     0.38763  0.38763  0.00000  0.22474
       2     O     4.19153  4.19153  0.00000 -0.38306
       3     C     2.99161  2.99161  0.00000  0.01677
       4     C     2.68572  2.68572  0.00000  0.62857
       5     H     0.46105  0.46105  0.00000  0.07790
       6     H     0.44669  0.44669  0.00000  0.10662
       7     F     4.60591  4.60591  0.00000 -0.21182
       8     F     4.61846  4.61846  0.00000 -0.23692
       9     F     4.61140  4.61140  0.00000 -0.22280

   Total alpha = 25.00000, Total beta = 25.00000, Total charge = -0.00000

*** Psi4 exiting successfully. Buy a developer a beer!
