  ==> Input File <==

--------------------------------------------------------------------------
set {
	reference rhf
	basis 6-31G*
}

set_num_threads( 4 )
memory 2 gb

molecule MOL {
0 1

H	 -2.829228	 -0.107664	 2.050633
O	 -1.981620	 0.172419	 1.736167
C	 -2.026376	 0.340750	 0.341611
C	 -0.673256	 0.843270	 -0.132153
H	 -2.258742	 -0.603776	 -0.147075
H	 -2.804175	 1.052405	 0.067331
C	 0.486613	 -0.083066	 0.235839
H	 -0.715586	 0.970948	 -1.210718
H	 -0.508072	 1.829858	 0.297090
C	 1.840406	 0.433480	 -0.254303
H	 0.300215	 -1.068318	 -0.178947
H	 0.519509	 -0.203625	 1.318070
C	 3.000220	 -0.489290	 0.118523
H	 1.809207	 0.553576	 -1.335192
H	 2.021860	 1.424500	 0.157276
H	 2.864959	 -1.479103	 -0.307933
H	 3.946603	 -0.099227	 -0.243630
H	 3.080049	 -0.602997	 1.196117

	symmetry c1
}
set optking {
	frozen_dihedral = ("
		2 3 4 8
	")
}

ee = optimize('scf')
oeprop('DIPOLE', 'QUADRUPOLE', 'MULLIKEN_CHARGES')
f=open( 'psi4out.xyz', 'w' )
f.write( "18  " )
f.write( str(ee) + "\n" )
f.write( MOL.save_string_xyz() )
f.close()
--------------------------------------------------------------------------

    Molecular point group: c1
  Charge       = 0
  Multiplicity = 1
  Basis Set: 6-31G*
  Basis Set:
  @DF-RHF Final Energy:  -271.17971057930936
    Total Energy =                       -271.1797105793090168
    Molecular point group: c1
  Basis Set: 6-31G*
  Basis Set:
  Basis Set: 6-31G*
  Basis Set:
  @DF-RHF Final Energy:  -271.17979416927551
    Total Energy =                       -271.1797941692754534
  Basis Set: 6-31G*
  Basis Set:
  Basis Set: 6-31G*
  Basis Set:
  @DF-RHF Final Energy:  -271.17980517777715
    Total Energy =                       -271.1798051777771548
  Basis Set: 6-31G*
  Basis Set:
  Basis Set: 6-31G*
  Basis Set:
  @DF-RHF Final Energy:  -271.17980887622400
    Total Energy =                       -271.1798088762241150
  Basis Set: 6-31G*
  Basis Set:
  Charge       = 0
  Multiplicity = 1
  Basis Set: 6-31G*
  Basis Set:

    Orbital Energies (a.u.)
    -----------------------

    Doubly Occupied:

       1A    -20.553149     2A    -11.268172     3A    -11.212181
       4A    -11.210382     5A    -11.205679     6A    -11.204201
       7A     -1.359978     8A     -1.074361     9A     -1.008493
      10A     -0.912941    11A     -0.817401    12A     -0.783104
      13A     -0.704505    14A     -0.644100    15A     -0.623698
      16A     -0.579472    17A     -0.570943    18A     -0.557570
      19A     -0.521698    20A     -0.500941    21A     -0.488297
      22A     -0.466536    23A     -0.457699    24A     -0.446852
      25A     -0.429261

  @DF-RHF Final Energy:  -271.17980965175309

   => Energetics <=

    Nuclear Repulsion Energy =            249.2640012469785518
    One-Electron Energy =                -861.6843903333917751
    Two-Electron Energy =                 341.2405794346600487
    DFT Exchange-Correlation Energy =       0.0000000000000000
    Empirical Dispersion Energy =           0.0000000000000000
    PCM Polarization Energy =               0.0000000000000000
    EFP Energy =                            0.0000000000000000
    Total Energy =                       -271.1798096517532031
    Molecular point group: c1
  Basis Set: 6-31G*
  Basis Set:

  -Total Gradient:
     Atom            X                  Y                   Z
    ------   -----------------  -----------------  -----------------
       1       -0.000002535592    -0.000001412541     0.000001149979
       2        0.000356198050    -0.001072479378    -0.000145690126
       3       -0.000359962271     0.001110447452     0.000132259827
       4       -0.000462609447     0.001326291276     0.000114647966
       5        0.000016841121     0.000014654187     0.000000811349
       6       -0.000020747550     0.000003883190     0.000021796915
       7        0.000012637422    -0.000027251392    -0.000067282228
       8        0.000470156301    -0.001373101687    -0.000141090179
       9       -0.000019859707    -0.000006019152     0.000012456934
      10        0.000005240710    -0.000011196590    -0.000011498433
      11       -0.000032278820     0.000020880811    -0.000003339810
      12        0.000035847532     0.000000548539     0.000051742174
      13        0.000006006690     0.000020461508     0.000032125185
      14       -0.000022574920    -0.000018119650     0.000008552339
      15        0.000016599461     0.000010103132    -0.000014330149
      16       -0.000002292595     0.000012617666    -0.000011508041
      17        0.000000158896     0.000005497971     0.000010787869
      18        0.000003174719    -0.000015805341     0.000008408426

  **** Optimization is complete! (in 5 steps) ****
    Final optimized geometry and variables:
    Molecular point group: c1

    Geometry (in Angstrom), charge = 0, multiplicity = 1:

    H           -2.891378929416    -0.338588324441     1.660062667648
    O           -2.056375264701    -0.008505687292     1.360736357820
    C           -2.083424927830     0.147932796960    -0.035382156232
    C           -0.728530336026     0.654104256515    -0.501352100529
    H           -2.306989571212    -0.802426043570    -0.518741547276
    H           -2.859374137676     0.854018532693    -0.325638994561
    C            0.430152814494    -0.274645350716    -0.133284210389
    H           -0.767968612288     0.769171512250    -1.583046144635
    H           -0.559382811437     1.640649069693    -0.078080045827
    C            1.782110343401     0.234666773568    -0.636141262161
    H            0.242123182651    -1.263908404349    -0.549018282585
    H            0.463340755777    -0.394806342801     0.944301853599
    C            2.941673402082    -0.688728202712    -0.264039768509
    H            1.747451507436     0.351653891411    -1.717627131463
    H            1.967130630925     1.226305240494    -0.228391682943
    H            2.805216161018    -1.679665624496    -0.688145561749
    H            3.887753503882    -0.300479697916    -0.628908707413
    H            3.022675972574    -0.800063384488     0.813456536330

  Mulliken Charges: (a.u.)
   Center  Symbol    Alpha    Beta     Spin     Total
       1     H     0.28050  0.28050  0.00000  0.43901
       2     O     4.36953  4.36953  0.00000 -0.73906
       3     C     2.99688  2.99688  0.00000  0.00623
       4     C     3.16076  3.16076  0.00000 -0.32152
       5     H     0.43265  0.43265  0.00000  0.13471
       6     H     0.42925  0.42925  0.00000  0.14150
       7     C     3.15229  3.15229  0.00000 -0.30459
       8     H     0.42425  0.42425  0.00000  0.15150
       9     H     0.41603  0.41603  0.00000  0.16794
      10     C     3.15184  3.15184  0.00000 -0.30367
      11     H     0.42761  0.42761  0.00000  0.14477
      12     H     0.40721  0.40721  0.00000  0.18558
      13     C     3.23882  3.23882  0.00000 -0.47764
      14     H     0.42550  0.42550  0.00000  0.14900
      15     H     0.42287  0.42287  0.00000  0.15426
      16     H     0.42264  0.42264  0.00000  0.15471
      17     H     0.42050  0.42050  0.00000  0.15900
      18     H     0.42087  0.42087  0.00000  0.15826

   Total alpha = 25.00000, Total beta = 25.00000, Total charge =  0.00000
