                              Psi4 1.0.54 Driver

  ==> Input File <==

--------------------------------------------------------------------------
set {
	reference rhf
	basis cc-pvtz
}

set_num_threads( 4 )
memory 2 gb

molecule MOL {
0 1

H	 -3.443064	 -0.651503	 -0.670102
O	 -3.109186	 -0.183451	 0.074081
C	 -1.773801	 -0.070712	 0.020832
C	 -1.029736	 -0.599045	 -1.026864
C	 -1.146141	 0.599053	 1.057963
H	 -1.523866	 -1.117340	 -1.827884
C	 0.337345	 -0.454974	 -1.032028
H	 -1.738501	 0.998880	 1.856253
C	 0.223611	 0.734704	 1.037804
H	 0.922692	 -0.858012	 -1.834549
C	 0.981121	 0.213562	 0.000000
H	 0.711602	 1.254129	 1.841906
C	 2.447402	 0.371303	 0.000000
O	 3.227427	 -0.521847	 0.000000
H	 2.796538	 1.409525	 0.000000

	symmetry c1
}
set optking {
	frozen_dihedral = ("
		7 11 13 14
	")
}

ee,wfn = optimize('scf', return_wfn=True)
oeprop( wfn, 'DIPOLE', 'QUADRUPOLE', 'MULLIKEN_CHARGES')
f=open( 'psi4out.xyz', 'w' )
f.write( "15  " )
f.write( str(ee) + "\n" )
f.write( MOL.save_string_xyz() )
f.close()
--------------------------------------------------------------------------

    Molecular point group: c1
  Charge       = 0
  Multiplicity = 1
  Basis Set: CC-PVTZ
  Basis Set:
  @DF-RHF Final Energy:  -418.43078309669437
    Total Energy =                       -418.4307830966941992
    Molecular point group: c1
  Basis Set: CC-PVTZ
  Basis Set:
  Basis Set: CC-PVTZ
  Basis Set:
  @DF-RHF Final Energy:  -418.43032310095498
    Total Energy =                       -418.4303231009554338
  Basis Set: CC-PVTZ
  Basis Set:
  Basis Set: CC-PVTZ
  Basis Set:
  @DF-RHF Final Energy:  -418.43129545991786
    Total Energy =                       -418.4312954599174645
  Basis Set: CC-PVTZ
  Basis Set:
  Basis Set: CC-PVTZ
  Basis Set:
  @DF-RHF Final Energy:  -418.43177786499916
    Total Energy =                       -418.4317778649991624
  Basis Set: CC-PVTZ
  Basis Set:
  Basis Set: CC-PVTZ
  Basis Set:
  @DF-RHF Final Energy:  -418.43178245656065
    Total Energy =                       -418.4317824565606543
  Basis Set: CC-PVTZ
  Basis Set:
  Basis Set: CC-PVTZ
  Basis Set:
  @DF-RHF Final Energy:  -418.43178421490842
    Total Energy =                       -418.4317842149084754
  Basis Set: CC-PVTZ
  Basis Set:
  Charge       = 0
  Multiplicity = 1
  Basis Set: CC-PVTZ
  Basis Set:

    Orbital Energies (a.u.)
    -----------------------

    Doubly Occupied:

       1A    -20.599209     2A    -20.556610     3A    -11.328106
       4A    -11.315077     5A    -11.253807     6A    -11.253600
       7A    -11.240918     8A    -11.240613     9A    -11.236353
      10A     -1.431392    11A     -1.411092    12A     -1.173779
      13A     -1.042322    14A     -1.040689    15A     -0.890340
      16A     -0.867285    17A     -0.800556    18A     -0.758481
      19A     -0.715080    20A     -0.675089    21A     -0.656162
      22A     -0.631537    23A     -0.610299    24A     -0.608769
      25A     -0.593453    26A     -0.565727    27A     -0.538965
      28A     -0.507033    29A     -0.495848    30A     -0.424631
      31A     -0.359753    32A     -0.329400

  @DF-RHF Final Energy:  -418.43178441686229

   => Energetics <=

    Nuclear Repulsion Energy =            401.3363473466508253
    One-Electron Energy =               -1365.2323104667495954
    Two-Electron Energy =                 545.4641787032367120
    DFT Exchange-Correlation Energy =       0.0000000000000000
    Empirical Dispersion Energy =           0.0000000000000000
    PCM Polarization Energy =               0.0000000000000000
    EFP Energy =                            0.0000000000000000
    Total Energy =                       -418.4317844168620013
    Molecular point group: c1
  Basis Set: CC-PVTZ
  Basis Set:

  -Total Gradient:
     Atom            X                  Y                   Z
    ------   -----------------  -----------------  -----------------
       1        0.000008377699     0.000002477858    -0.000001432244
       2        0.000001046568    -0.000006492973     0.000002479855
       3       -0.000000349137     0.000030740470     0.000041909827
       4        0.000060642460    -0.000024610089    -0.000026528958
       5       -0.000049402942    -0.000000506137    -0.000027825357
       6        0.000003003415     0.000000858585    -0.000003576106
       7       -0.000923981922     0.005760342680    -0.002991427991
       8        0.000016574834     0.000008513341     0.000003242727
       9        0.000081088369    -0.000018604220     0.000010231548
      10       -0.000002859078    -0.000013569144    -0.000010904696
      11        0.001340878174    -0.008708122375     0.007962387957
      12       -0.000003606883    -0.000003234225     0.000029221277
      13       -0.000744882349     0.003400126491    -0.012977632261
      14        0.000206296241    -0.000445876042     0.007990555030
      15        0.000007174550     0.000017955780    -0.000000700607

  **** Optimization is complete! (in 7 steps) ****
    Final optimized geometry and variables:
    Molecular point group: c1

    Geometry (in Angstrom), charge = 0, multiplicity = 1:

    H           -3.459835234620    -0.627469946026    -0.675193110668
    O           -3.122590034404    -0.165204709158     0.070979950177
    C           -1.782562258178    -0.066937387581     0.017197867515
    C           -1.042151927860    -0.577675114708    -1.033607844256
    C           -1.146929133287     0.586036067523     1.061929236283
    H           -1.535171837771    -1.067982656004    -1.852851333066
    C            0.333272143883    -0.454471672053    -1.027168469359
    H           -1.735801747716     0.985149748996     1.863560054875
    C            0.221563212524     0.724058696970     1.042759628277
    H            0.906273116065    -0.860724834923    -1.838367247249
    C            0.980457357318     0.173363739086     0.019900962263
    H            0.705121596808     1.254480648874     1.842552703605
    C            2.455219596744     0.385240469526    -0.012584209607
    O            3.255819496865    -0.482053790497    -0.086980533471
    H            2.780296010759     1.425337571237     0.099489196942

  Mulliken Charges: (a.u.)
   Center  Symbol    Alpha    Beta     Spin     Total
       1     H     0.38614  0.38614  0.00000  0.22772
       2     O     4.16928  4.16928  0.00000 -0.33856
       3     C     2.85383  2.85383  0.00000  0.29235
       4     C     3.12501  3.12501  0.00000 -0.25002
       5     C     3.10019  3.10019  0.00000 -0.20038
       6     H     0.43197  0.43197  0.00000  0.13606
       7     C     3.08711  3.08711  0.00000 -0.17422
       8     H     0.41675  0.41675  0.00000  0.16651
       9     C     3.07691  3.07691  0.00000 -0.15383
      10     H     0.41466  0.41466  0.00000  0.17068
      11     C     2.96367  2.96367  0.00000  0.07265
      12     H     0.42245  0.42245  0.00000  0.15510
      13     C     2.92700  2.92700  0.00000  0.14601
      14     O     4.16399  4.16399  0.00000 -0.32798
      15     H     0.46105  0.46105  0.00000  0.07791

   Total alpha = 32.00000, Total beta = 32.00000, Total charge = -0.00000

*** Psi4 exiting successfully. Buy a developer a beer!
