  ==> Input File <==

--------------------------------------------------------------------------
set {
	reference rhf
	basis 6-31G*
}

set_num_threads( 4 )
memory 2 gb

molecule MOL {
0 1

H	 2.332611	 0.720374	 1.175775
O	 1.467935	 0.326028	 1.235900
C	 1.050492	 0.053836	 0.000068
C	 -0.318135	 -0.576402	 0.000164
O	 1.710068	 0.295636	 -0.957789
C	 -1.454360	 0.441875	 -0.000474
H	 -0.374042	 -1.230163	 -0.866135
H	 -0.374274	 -1.229227	 0.867154
C	 -2.826123	 -0.230780	 0.000056
H	 -1.357605	 1.085198	 -0.868380
H	 -1.357504	 1.086451	 0.866496
H	 -2.959731	 -0.858053	 -0.876869
H	 -3.619374	 0.509403	 -0.000080
H	 -2.959371	 -0.857318	 0.877556

	symmetry c1
}
set optking {
	frozen_dihedral = ("
		2 3 4 7
	")
}

ee = optimize('scf')
oeprop('DIPOLE', 'QUADRUPOLE', 'MULLIKEN_CHARGES')
f=open( 'psi4out.xyz', 'w' )
f.write( "14  " )
f.write( str(ee) + "\n" )
f.write( MOL.save_string_xyz() )
f.close()
--------------------------------------------------------------------------

    Molecular point group: c1
  Charge       = 0
  Multiplicity = 1
  Basis Set: 6-31G*
  Basis Set:
  @DF-RHF Final Energy:  -305.87861863531555
    Total Energy =                       -305.8786186353157746
    Molecular point group: c1
  Basis Set: 6-31G*
  Basis Set:
  Basis Set: 6-31G*
  Basis Set:
  @DF-RHF Final Energy:  -305.87907381577105
    Total Energy =                       -305.8790738157711075
  Basis Set: 6-31G*
  Basis Set:
  Basis Set: 6-31G*
  Basis Set:
  @DF-RHF Final Energy:  -305.87909522738153
    Total Energy =                       -305.8790952273814696
  Basis Set: 6-31G*
  Basis Set:
  Basis Set: 6-31G*
  Basis Set:
  @DF-RHF Final Energy:  -305.87923818227432
    Total Energy =                       -305.8792381822743209
  Basis Set: 6-31G*
  Basis Set:
  Basis Set: 6-31G*
  Basis Set:
  @DF-RHF Final Energy:  -305.87924019694458
    Total Energy =                       -305.8792401969445223
  Basis Set: 6-31G*
  Basis Set:
  Charge       = 0
  Multiplicity = 1
  Basis Set: 6-31G*
  Basis Set:

    Orbital Energies (a.u.)
    -----------------------

    Doubly Occupied:

       1A    -20.613784     2A    -20.549215     3A    -11.380097
       4A    -11.239325     5A    -11.236250     6A    -11.221363
       7A     -1.474216     8A     -1.364431     9A     -1.086566
      10A     -0.979797    11A     -0.852080    12A     -0.808152
      13A     -0.702052    14A     -0.685680    15A     -0.641020
      16A     -0.636297    17A     -0.593826    18A     -0.567705
      19A     -0.553370    20A     -0.516940    21A     -0.499045
      22A     -0.489203    23A     -0.471279    24A     -0.438590

  @DF-RHF Final Energy:  -305.87924071841246

   => Energetics <=

    Nuclear Repulsion Energy =            240.3511125941071214
    One-Electron Energy =                -893.2601434026071274
    Two-Electron Energy =                 347.0297900900875447
    DFT Exchange-Correlation Energy =       0.0000000000000000
    Empirical Dispersion Energy =           0.0000000000000000
    PCM Polarization Energy =               0.0000000000000000
    EFP Energy =                            0.0000000000000000
    Total Energy =                       -305.8792407184124613
    Molecular point group: c1
  Basis Set: 6-31G*
  Basis Set:

  -Total Gradient:
     Atom            X                  Y                   Z
    ------   -----------------  -----------------  -----------------
       1        0.000005472993     0.000011778990     0.000010309714
       2        0.000196365847    -0.000359356342     0.000007467691
       3       -0.000219408922     0.000385767537     0.000015949624
       4       -0.000181133832     0.000346184882    -0.000301439910
       5        0.000005291992    -0.000001530025     0.000025967081
       6       -0.000015679603    -0.000012840319    -0.000001908921
       7        0.000186122672    -0.000375133733     0.000240260722
       8        0.000000218194    -0.000003004953    -0.000002715853
       9        0.000017110565     0.000009567097     0.000013648069
      10       -0.000003579271    -0.000019625848    -0.000008941142
      11       -0.000013575431     0.000005409888     0.000002022817
      12        0.000009292333     0.000010289311    -0.000004590037
      13        0.000002215737     0.000007505775     0.000007070978
      14        0.000011286724    -0.000005012263    -0.000003100831

  **** Optimization is complete! (in 6 steps) ****
    Final optimized geometry and variables:
    Molecular point group: c1

    Geometry (in Angstrom), charge = 0, multiplicity = 1:

    H            2.361222517317     0.691304129977     1.088189776629
    O            1.526065472027     0.240711060688     1.169326053681
    C            1.071895107938    -0.012284512655    -0.057280995197
    C           -0.278227431040    -0.679105359155    -0.047143773775
    O            1.677244323589     0.296594676700    -1.032185150412
    C           -1.405599824705     0.365582630441    -0.059512251891
    H           -0.338603446228    -1.305598004822    -0.928368675381
    H           -0.361757898314    -1.306150504497     0.832674389629
    C           -2.787526697282    -0.284356222579    -0.072871798168
    H           -1.288671346872     0.999920050337    -0.932709008878
    H           -1.310342405686     1.005506490346     0.812801115116
    H           -2.918216367685    -0.909163012497    -0.951314735130
    H           -3.568423730514     0.468844162439    -0.082338075974
    H           -2.937284277331    -0.906983442506     0.804181597389

  Mulliken Charges: (a.u.)
   Center  Symbol    Alpha    Beta     Spin     Total
       1     H     0.26797  0.26797  0.00000  0.46405
       2     O     4.34741  4.34741  0.00000 -0.69482
       3     C     2.63347  2.63347  0.00000  0.73306
       4     C     3.19640  3.19640  0.00000 -0.39279
       5     O     4.27888  4.27888  0.00000 -0.55776
       6     C     3.16597  3.16597  0.00000 -0.33194
       7     H     0.39857  0.39857  0.00000  0.20285
       8     H     0.40218  0.40218  0.00000  0.19564
       9     C     3.24098  3.24098  0.00000 -0.48196
      10     H     0.40720  0.40720  0.00000  0.18559
      11     H     0.41026  0.41026  0.00000  0.17949
      12     H     0.41775  0.41775  0.00000  0.16450
      13     H     0.41431  0.41431  0.00000  0.17138
      14     H     0.41865  0.41865  0.00000  0.16270

   Total alpha = 24.00000, Total beta = 24.00000, Total charge =  0.00000
