                              Psi4 1.0.54 Driver

  ==> Input File <==

--------------------------------------------------------------------------
set {
	reference rhf
	basis cc-pvtz
}

set_num_threads( 4 )
memory 2 gb

molecule MOL {
0 1

H	 -2.478003	 -1.430282	 0.577328
O	 -2.658848	 -0.704215	 -0.000460
C	 -1.605397	 0.107680	 0.001145
C	 -0.310616	 -0.658853	 0.000791
O	 -1.718351	 1.284629	 -0.000627
C	 0.926581	 0.227233	 0.000178
H	 -0.327628	 -1.313681	 -0.864448
H	 -0.327041	 -1.313334	 0.866298
C	 2.220156	 -0.582071	 -0.000088
H	 0.899945	 0.878221	 -0.866390
H	 0.900542	 0.878581	 0.866486
C	 3.466689	 0.296012	 -0.000457
H	 2.239073	 -1.234095	 -0.869382
H	 2.239505	 -1.233985	 0.869270
H	 3.493549	 0.935857	 -0.875887
H	 4.368821	 -0.304526	 -0.001199
H	 3.494559	 0.935166	 0.875458

	symmetry c1
}
set optking {
	frozen_dihedral = ("
		1 2 3 5
	")
}

ee,wfn = optimize('scf', return_wfn=True)
oeprop( wfn, 'DIPOLE', 'QUADRUPOLE', 'MULLIKEN_CHARGES')
f=open( 'psi4out.xyz', 'w' )
f.write( "17  " )
f.write( str(ee) + "\n" )
f.write( MOL.save_string_xyz() )
f.close()
--------------------------------------------------------------------------

    Molecular point group: c1
  Charge       = 0
  Multiplicity = 1
  Basis Set: CC-PVTZ
  Basis Set:
  @DF-RHF Final Energy:  -345.03344231226845
    Total Energy =                       -345.0334423122681073
    Molecular point group: c1
  Basis Set: CC-PVTZ
  Basis Set:
  Basis Set: CC-PVTZ
  Basis Set:
  @DF-RHF Final Energy:  -345.03415516552917
    Total Energy =                       -345.0341551655292278
  Basis Set: CC-PVTZ
  Basis Set:
  Basis Set: CC-PVTZ
  Basis Set:
  @DF-RHF Final Energy:  -345.03474025032853
    Total Energy =                       -345.0347402503288663
  Basis Set: CC-PVTZ
  Basis Set:
  Basis Set: CC-PVTZ
  Basis Set:
  @DF-RHF Final Energy:  -345.03469380788687
    Total Energy =                       -345.0346938078872085
  Basis Set: CC-PVTZ
  Basis Set:
  Basis Set: CC-PVTZ
  Basis Set:
  @DF-RHF Final Energy:  -345.03485765990024
    Total Energy =                       -345.0348576599003536
  Basis Set: CC-PVTZ
  Basis Set:
  Charge       = 0
  Multiplicity = 1
  Basis Set: CC-PVTZ
  Basis Set:

    Orbital Energies (a.u.)
    -----------------------

    Doubly Occupied:

       1A    -20.597154     2A    -20.542179     3A    -11.373336
       4A    -11.247994     5A    -11.225727     6A    -11.225019
       7A    -11.213762     8A     -1.467664     9A     -1.373273
      10A     -1.096553    11A     -1.020306    12A     -0.909044
      13A     -0.832632    14A     -0.805355    15A     -0.716589
      16A     -0.676676    17A     -0.662824    18A     -0.639318
      19A     -0.602266    20A     -0.585783    21A     -0.557869
      22A     -0.544060    23A     -0.515220    24A     -0.492876
      25A     -0.484768    26A     -0.478945    27A     -0.476306
      28A     -0.443878

  @DF-RHF Final Energy:  -345.03485839942419

   => Energetics <=

    Nuclear Repulsion Energy =            304.5014283013539966
    One-Electron Energy =               -1073.4578223927705949
    Two-Electron Energy =                 423.9215356919925171
    DFT Exchange-Correlation Energy =       0.0000000000000000
    Empirical Dispersion Energy =           0.0000000000000000
    PCM Polarization Energy =               0.0000000000000000
    EFP Energy =                            0.0000000000000000
    Total Energy =                       -345.0348583994240244
    Molecular point group: c1
  Basis Set: CC-PVTZ
  Basis Set:

  -Total Gradient:
     Atom            X                  Y                   Z
    ------   -----------------  -----------------  -----------------
       1       -0.002338124716     0.003858063213     0.005226878030
       2        0.002888686509    -0.004895053806    -0.003952650868
       3       -0.000413317616     0.000946479448    -0.007245809754
       4       -0.000010475203    -0.000020453413    -0.000083692657
       5       -0.000113177808     0.000110956024     0.005986500405
       6        0.000014087715     0.000029387929     0.000050451778
       7        0.000010480925    -0.000017942020     0.000024266447
       8       -0.000000663063     0.000008792944     0.000033515130
       9        0.000001509179    -0.000030773452    -0.000021301129
      10       -0.000001382412     0.000002584012    -0.000011612955
      11       -0.000010601968     0.000003627729    -0.000005479164
      12       -0.000023747361     0.000017169864     0.000004359468
      13        0.000004787532    -0.000015444725    -0.000007937946
      14       -0.000002518757     0.000000302156     0.000004497238
      15        0.000003226339     0.000006440346    -0.000008066406
      16       -0.000012657608    -0.000010480239    -0.000000208782
      17        0.000003888309     0.000006343994     0.000006291163

  **** Optimization is complete! (in 6 steps) ****
    Final optimized geometry and variables:
    Molecular point group: c1

    Geometry (in Angstrom), charge = 0, multiplicity = 1:

    H           -2.743589804536    -1.171048708410     0.499624404068
    O           -2.761864524321    -0.420898487425    -0.069339644762
    C           -1.597155956010     0.251650336409    -0.051506557232
    C           -0.366200033837    -0.623799563537    -0.020335590047
    O           -1.587925429969     1.426261759097    -0.062184931952
    C            0.942306444201     0.152021425359     0.024501867187
    H           -0.409606900453    -1.268203911857    -0.893095750038
    H           -0.447940487303    -1.283611842237     0.841230823755
    C            2.162676177492    -0.763533088264     0.052329846167
    H            0.993103589144     0.808784505038    -0.836030201306
    H            0.944747261502     0.796982158606     0.895783713202
    C            3.477598956971     0.007206321714     0.093548251572
    H            2.151364599658    -1.409031808798    -0.821970924806
    H            2.103974328448    -1.420425989844     0.916452439526
    H            3.582127929496     0.647408960755    -0.775628892939
    H            4.325847497784    -0.666918708500     0.112756052803
    H            3.533967388264     0.636697912040     0.974995899648

  Mulliken Charges: (a.u.)
   Center  Symbol    Alpha    Beta     Spin     Total
       1     H     0.38816  0.38816  0.00000  0.22369
       2     O     4.15569  4.15569  0.00000 -0.31139
       3     C     2.80325  2.80325  0.00000  0.39350
       4     C     3.12393  3.12393  0.00000 -0.24786
       5     O     4.16816  4.16816  0.00000 -0.33633
       6     C     3.08539  3.08539  0.00000 -0.17078
       7     H     0.43567  0.43567  0.00000  0.12866
       8     H     0.45208  0.45208  0.00000  0.09584
       9     C     3.08639  3.08639  0.00000 -0.17278
      10     H     0.44282  0.44282  0.00000  0.11435
      11     H     0.44501  0.44501  0.00000  0.10999
      12     C     3.14930  3.14930  0.00000 -0.29860
      13     H     0.45460  0.45460  0.00000  0.09080
      14     H     0.45565  0.45565  0.00000  0.08869
      15     H     0.45280  0.45280  0.00000  0.09439
      16     H     0.44776  0.44776  0.00000  0.10448
      17     H     0.45333  0.45333  0.00000  0.09335

   Total alpha = 28.00000, Total beta = 28.00000, Total charge = -0.00000

*** Psi4 exiting successfully. Buy a developer a beer!
