                              Psi4 1.0.54 Driver

  ==> Input File <==

--------------------------------------------------------------------------
set {
	reference rhf
	basis cc-pvtz
}

set_num_threads( 4 )
memory 2 gb

molecule MOL {
0 1

H	 -0.033475	 -0.419184	 -0.754480
N	 -0.625934	 -0.663929	 -0.000707
C	 -1.978635	 -0.158664	 0.001017
C	 -0.122482	 -1.456444	 0.971423
H	 -2.519057	 -0.493535	 -0.876362
H	 -1.938890	 0.917202	 -0.004137
H	 -2.514266	 -0.485137	 0.884506
C	 1.317376	 -1.871536	 0.763273
O	 -0.755600	 -1.812696	 1.920804
H	 1.959986	 -0.999810	 0.721515
H	 1.621282	 -2.502608	 1.582088
H	 1.424691	 -2.413166	 -0.169325

	symmetry c1
}
set optking {
	frozen_dihedral = ("
		4 2 3 5
	")
}

ee,wfn = optimize('scf', return_wfn=True)
oeprop( wfn, 'DIPOLE', 'QUADRUPOLE', 'MULLIKEN_CHARGES')
f=open( 'psi4out.xyz', 'w' )
f.write( "12  " )
f.write( str(ee) + "\n" )
f.write( MOL.save_string_xyz() )
f.close()
--------------------------------------------------------------------------

    Molecular point group: c1
  Charge       = 0
  Multiplicity = 1
  Basis Set: CC-PVTZ
  Basis Set:
  @DF-RHF Final Energy:  -247.10045129376797
    Total Energy =                       -247.1004512937680602
    Molecular point group: c1
  Basis Set: CC-PVTZ
  Basis Set:
  Basis Set: CC-PVTZ
  Basis Set:
  @DF-RHF Final Energy:  -247.10086246948231
    Total Energy =                       -247.1008624694821947
  Basis Set: CC-PVTZ
  Basis Set:
  Basis Set: CC-PVTZ
  Basis Set:
  @DF-RHF Final Energy:  -247.10081973742729
    Total Energy =                       -247.1008197374275142
  Basis Set: CC-PVTZ
  Basis Set:
  Basis Set: CC-PVTZ
  Basis Set:
  @DF-RHF Final Energy:  -247.10098728443481
    Total Energy =                       -247.1009872844348365
  Basis Set: CC-PVTZ
  Basis Set:
  Charge       = 0
  Multiplicity = 1
  Basis Set: CC-PVTZ
  Basis Set:

    Orbital Energies (a.u.)
    -----------------------

    Doubly Occupied:

       1A    -20.506612     2A    -15.574917     3A    -11.336926
       4A    -11.252379     5A    -11.228073     6A     -1.388446
       7A     -1.231068     8A     -1.016713     9A     -0.932877
      10A     -0.788240    11A     -0.690984    12A     -0.651716
      13A     -0.635363    14A     -0.586906    15A     -0.582949
      16A     -0.555548    17A     -0.544812    18A     -0.511437
      19A     -0.417225    20A     -0.389321

  @DF-RHF Final Energy:  -247.10098773548052

   => Energetics <=

    Nuclear Repulsion Energy =            181.6384488875789032
    One-Electron Energy =                -695.8338484039329614
    Two-Electron Energy =                 267.0944117808734291
    DFT Exchange-Correlation Energy =       0.0000000000000000
    Empirical Dispersion Energy =           0.0000000000000000
    PCM Polarization Energy =               0.0000000000000000
    EFP Energy =                            0.0000000000000000
    Total Energy =                       -247.1009877354806576
    Molecular point group: c1
  Basis Set: CC-PVTZ
  Basis Set:

  -Total Gradient:
     Atom            X                  Y                   Z
    ------   -----------------  -----------------  -----------------
       1       -0.000003189219     0.000033862233    -0.000005532579
       2        0.000008492474    -0.000067768352     0.000048713795
       3       -0.000011883687     0.000008514460     0.000012399057
       4        0.000004144217     0.000046472628    -0.000077500723
       5        0.000003256213    -0.000018313099     0.000004504051
       6        0.000016868737    -0.000001603482     0.000003475565
       7        0.000015342104     0.000007400037    -0.000021287824
       8        0.000007077260     0.000014645738     0.000003320096
       9       -0.000040073794    -0.000013290595     0.000047090239
      10        0.000003982812    -0.000004887112    -0.000007601066
      11       -0.000009376245     0.000001147031     0.000000161932
      12        0.000005359130    -0.000006179488    -0.000007742540

  **** Optimization is complete! (in 5 steps) ****
    Final optimized geometry and variables:
    Molecular point group: c1

    Geometry (in Angstrom), charge = 0, multiplicity = 1:

    H            0.411062152370     0.749668125168    -1.487384229724
    N           -0.183454604964     0.511534641835    -0.732989302765
    C           -1.533457780996     1.023698048829    -0.735010509786
    C            0.318018615246    -0.270766759920     0.248502593778
    H           -2.077530187881     0.680104054985    -1.606780274689
    H           -1.538262903695     2.107258682279    -0.727293859541
    H           -2.033076802922     0.667382055894     0.149670480072
    C            1.758235290938    -0.688901195686     0.047096963951
    O           -0.315348915521    -0.611462540546     1.203311261827
    H            2.401270325536     0.182042481939    -0.004510471477
    H            2.060962670904    -1.310025279054     0.873997133856
    H            1.866392945005    -1.241912713980    -0.878720681722

  Mulliken Charges: (a.u.)
   Center  Symbol    Alpha    Beta     Spin     Total
       1     H     0.41027  0.41027  0.00000  0.17946
       2     N     3.62192  3.62192  0.00000 -0.24385
       3     C     3.08604  3.08604  0.00000 -0.17207
       4     C     2.83655  2.83655  0.00000  0.32690
       5     H     0.45566  0.45566  0.00000  0.08868
       6     H     0.45574  0.45574  0.00000  0.08852
       7     H     0.43100  0.43100  0.00000  0.13799
       8     C     3.15349  3.15349  0.00000 -0.30698
       9     O     4.21564  4.21564  0.00000 -0.43129
      10     H     0.45002  0.45002  0.00000  0.09996
      11     H     0.43353  0.43353  0.00000  0.13295
      12     H     0.45013  0.45013  0.00000  0.09973

   Total alpha = 20.00000, Total beta = 20.00000, Total charge =  0.00000

*** Psi4 exiting successfully. Buy a developer a beer!
