  ==> Input File <==

--------------------------------------------------------------------------
set {
	reference rhf
	basis cc-pvtz
}

set_num_threads( 4 )
memory 2 gb

molecule MOL {
0 1

H	 0.356731	 1.281593	 -1.049253
O	 0.057669	 1.301365	 -0.158528
C	 0.004145	 -0.005141	 0.363049
C	 1.199168	 -0.827145	 -0.096690
C	 -1.316386	 -0.602081	 -0.083515
H	 0.012026	 0.043363	 1.450619
H	 1.216685	 -0.896776	 -1.178167
H	 2.129940	 -0.372354	 0.228035
H	 1.160783	 -1.829622	 0.314294
H	 -1.357882	 -0.655920	 -1.165207
H	 -2.140147	 0.011735	 0.257253
H	 -1.440790	 -1.601175	 0.317669

	symmetry c1
}
set optking {
	frozen_dihedral = ("
		1 2 3 4
	")
}

ee = optimize('scf')
oeprop('DIPOLE', 'QUADRUPOLE', 'MULLIKEN_CHARGES')
f=open( 'psi4out.xyz', 'w' )
f.write( "12  " )
f.write( str(ee) + "\n" )
f.write( MOL.save_string_xyz() )
f.close()
--------------------------------------------------------------------------

    Molecular point group: c1
  Charge       = 0
  Multiplicity = 1
  Basis Set: CC-PVTZ
  Basis Set:
  @DF-RHF Final Energy:  -193.19349748136133
    Total Energy =                       -193.1934974813612200
    Molecular point group: c1
  Basis Set: CC-PVTZ
  Basis Set:
  Basis Set: CC-PVTZ
  Basis Set:
  @DF-RHF Final Energy:  -193.19471056288640
    Total Energy =                       -193.1947105628863710
  Basis Set: CC-PVTZ
  Basis Set:
  Basis Set: CC-PVTZ
  Basis Set:
  @DF-RHF Final Energy:  -193.19503198524095
    Total Energy =                       -193.1950319852408597
  Basis Set: CC-PVTZ
  Basis Set:
  Charge       = 0
  Multiplicity = 1
  Basis Set: CC-PVTZ
  Basis Set:

    Orbital Energies (a.u.)
    -----------------------

    Doubly Occupied:

       1A    -20.543331     2A    -11.274058     3A    -11.214684
       4A    -11.207302     5A     -1.364076     6A     -1.043272
       7A     -0.942064     8A     -0.819676     9A     -0.663245
      10A     -0.647885    11A     -0.604897    12A     -0.572446
      13A     -0.545283    14A     -0.517550    15A     -0.512052
      16A     -0.467146    17A     -0.433148

  @DF-RHF Final Energy:  -193.19503365717054

   => Energetics <=

    Nuclear Repulsion Energy =            135.6063467108720033
    One-Electron Energy =                -530.8585330088740193
    Two-Electron Energy =                 202.0571526408313900
    DFT Exchange-Correlation Energy =       0.0000000000000000
    Empirical Dispersion Energy =           0.0000000000000000
    PCM Polarization Energy =               0.0000000000000000
    EFP Energy =                            0.0000000000000000
    Total Energy =                       -193.1950336571706259
    Molecular point group: c1
  Basis Set: CC-PVTZ
  Basis Set:

  -Total Gradient:
     Atom            X                  Y                   Z
    ------   -----------------  -----------------  -----------------
       1        0.001378480723     0.000044751280     0.000534717104
       2       -0.001907801782    -0.000165725804    -0.000893686519
       3        0.001009162859     0.000243080523     0.001112793199
       4       -0.000455772682    -0.000194192086    -0.000776667655
       5       -0.000079253838     0.000007039981    -0.000008439802
       6        0.000037177692     0.000025193417    -0.000047574361
       7       -0.000006153991     0.000013996672     0.000047488879
       8        0.000034053825     0.000002129914     0.000008509169
       9       -0.000019416479    -0.000004752544     0.000013974719
      10        0.000010126920     0.000006004815     0.000010358649
      11       -0.000019106160     0.000005685102     0.000001184940
      12        0.000018502912     0.000016788733    -0.000002658321

  **** Optimization is complete! (in 4 steps) ****
    Final optimized geometry and variables:
    Molecular point group: c1

    Geometry (in Angstrom), charge = 0, multiplicity = 1:

    H            0.425475460435     1.340286555314    -0.987611271898
    O            0.093898236423     1.329332071990    -0.107938189779
    C            0.000900032201     0.003598340154     0.357810569489
    C            1.197457428676    -0.821571440294    -0.089620946702
    C           -1.321394749951    -0.619092875002    -0.066232422717
    H            0.016260012570     0.083426016297     1.438157056350
    H            1.217513104997    -0.913387278482    -1.172530251166
    H            2.121975493434    -0.356458084679     0.230195442677
    H            1.156125092289    -1.821773884779     0.325007219917
    H           -1.373206147675    -0.712629404707    -1.146805288369
    H           -2.146965028443     0.001292692171     0.258045689331
    H           -1.442427217200    -1.607322892940     0.363929021101

  Mulliken Charges: (a.u.)
   Center  Symbol    Alpha    Beta     Spin     Total
       1     H     0.39413  0.39413  0.00000  0.21174
       2     O     4.20992  4.20992  0.00000 -0.41984
       3     C     2.92565  2.92565  0.00000  0.14870
       4     C     3.15176  3.15176  0.00000 -0.30352
       5     C     3.14151  3.14151  0.00000 -0.28302
       6     H     0.45262  0.45262  0.00000  0.09476
       7     H     0.46116  0.46116  0.00000  0.07767
       8     H     0.44419  0.44419  0.00000  0.11162
       9     H     0.45372  0.45372  0.00000  0.09255
      10     H     0.46122  0.46122  0.00000  0.07757
      11     H     0.44584  0.44584  0.00000  0.10831
      12     H     0.45828  0.45828  0.00000  0.08344

   Total alpha = 17.00000, Total beta = 17.00000, Total charge = -0.00000
