  ==> Input File <==

--------------------------------------------------------------------------
set {
	reference rhf
	basis 6-31G*
}

set_num_threads( 1 )
memory 2 gb

molecule MOL {
0 1

O	 1.040435	 0.619377	 2.656613
C	 1.445075	 -0.139943	 1.836395
C	 1.245376	 -0.013843	 0.345420
O	 2.144414	 -1.227412	 2.136340
C	 0.455112	 1.231400	 -0.050772
H	 2.229834	 -0.032969	 -0.110285
H	 0.744890	 -0.918258	 0.008900
C	 -0.998893	 1.219485	 0.433193
H	 0.482531	 1.345121	 -1.130325
H	 0.957290	 2.103070	 0.354729
C	 -1.883438	 0.145884	 -0.207175
H	 -1.431207	 2.195402	 0.224832
H	 -1.019646	 1.105716	 1.516076
C	 -3.347647	 0.245583	 0.225435
H	 -1.822183	 0.231698	 -1.291012
H	 -1.510341	 -0.844814	 0.042401
C	 -4.239992	 -0.825570	 -0.404234
H	 -3.732888	 1.230466	 -0.033079
H	 -3.408585	 0.170602	 1.310038
C	 -5.701275	 -0.716658	 0.029921
H	 -4.179496	 -0.752714	 -1.488058
H	 -3.859041	 -1.810759	 -0.143352
H	 -6.308102	 -1.488908	 -0.432678
H	 -6.122175	 0.245478	 -0.248167
H	 -5.799072	 -0.820114	 1.106957
C	 2.402828	 -1.467185	 3.507696
H	 2.970993	 -0.653652	 3.935314
H	 2.973586	 -2.381983	 3.544950
H	 1.477895	 -1.580385	 4.054707

	symmetry c1
}
set optking {
	frozen_dihedral = ("
		21 17 14 11,
		17 14 11 15,
		15 11 8 5,
		11 8 5 9,
		2 4 26 27,
		1 2 4 26,
		6 3 2 1
	")
}

ee = energy('scf')
oeprop('DIPOLE', 'QUADRUPOLE', 'MULLIKEN_CHARGES')
f=open( 'psi4out.xyz', 'w' )
f.write( "29  " )
f.write( str(ee) + "\n" )
f.write( MOL.save_string_xyz() )
f.close()
--------------------------------------------------------------------------

    Molecular point group: c1

    Geometry (in Angstrom), charge = 0, multiplicity = 1:

       Center              X                  Y                   Z               Mass
    ------------   -----------------  -----------------  -----------------  -----------------
           O          1.698767947487     0.722161773096     1.666525672890    15.994914619560
           C          2.103407947487    -0.037158226904     0.846307672890    12.000000000000
           C          1.903708947487     0.088941773096    -0.644667327110    12.000000000000
           O          2.802746947487    -1.124627226904     1.146252672890    15.994914619560
           C          1.113444947487     1.334184773096    -1.040859327110    12.000000000000
           H          2.888166947487     0.069815773096    -1.100372327110     1.007825032070
           H          1.403222947487    -0.815473226904    -0.981187327110     1.007825032070
           C         -0.340560052513     1.322269773096    -0.556894327110    12.000000000000
           H          1.140863947487     1.447905773096    -2.120412327110     1.007825032070
           H          1.615622947487     2.205854773096    -0.635358327110     1.007825032070
           C         -1.225105052513     0.248668773096    -1.197262327110    12.000000000000
           H         -0.772874052513     2.298186773096    -0.765255327110     1.007825032070
           H         -0.361313052513     1.208500773096     0.525988672890     1.007825032070
           C         -2.689314052513     0.348367773096    -0.764652327110    12.000000000000
           H         -1.163850052513     0.334482773096    -2.281099327110     1.007825032070
           H         -0.852008052513    -0.742029226904    -0.947686327110     1.007825032070
           C         -3.581659052513    -0.722785226904    -1.394321327110    12.000000000000
           H         -3.074555052513     1.333250773096    -1.023166327110     1.007825032070
           H         -2.750252052513     0.273386773096     0.319950672890     1.007825032070
           C         -5.042942052513    -0.613873226904    -0.960166327110    12.000000000000
           H         -3.521163052513    -0.649929226904    -2.478145327110     1.007825032070
           H         -3.200708052513    -1.707974226904    -1.133439327110     1.007825032070
           H         -5.649769052513    -1.386123226904    -1.422765327110     1.007825032070
           H         -5.463842052513     0.348262773096    -1.238254327110     1.007825032070
           H         -5.140739052513    -0.717329226904     0.116869672890     1.007825032070
           C          3.061160947487    -1.364400226904     2.517608672890    12.000000000000
           H          3.629325947487    -0.550867226904     2.945226672890     1.007825032070
           H          3.631918947487    -2.279198226904     2.554862672890     1.007825032070
           H          2.136227947487    -1.477600226904     3.064619672890     1.007825032070

  Charge       = 0
  Multiplicity = 1
  Basis Set: 6-31G*
  Basis Set:

    Orbital Energies (a.u.)
    -----------------------

    Doubly Occupied:

       1A    -20.604773     2A    -20.546775     3A    -11.373419
       4A    -11.281711     5A    -11.234785     6A    -11.219267
       7A    -11.212898     8A    -11.211295     9A    -11.210354
      10A    -11.206567    11A    -11.206494    12A     -1.470748
      13A     -1.364676    14A     -1.094766    15A     -1.064841
      16A     -1.016178    17A     -0.976618    18A     -0.925214
      19A     -0.860477    20A     -0.798755    21A     -0.787134
      22A     -0.764121    23A     -0.697525    24A     -0.683028
      25A     -0.670727    26A     -0.649772    27A     -0.621641
      28A     -0.615765    29A     -0.586262    30A     -0.578971
      31A     -0.563051    32A     -0.546169    33A     -0.536881
      34A     -0.526095    35A     -0.518633    36A     -0.501365
      37A     -0.500266    38A     -0.478180    39A     -0.469252
      40A     -0.460490    41A     -0.456557    42A     -0.453357
      43A     -0.434391    44A     -0.430983

  @DF-RHF Final Energy:  -501.04229004075739

   => Energetics <=

    Nuclear Repulsion Energy =            629.2648344879331717
    One-Electron Energy =               -1929.7921122446173285
    Two-Electron Energy =                 799.4849877159280140
    DFT Exchange-Correlation Energy =       0.0000000000000000
    Empirical Dispersion Energy =           0.0000000000000000
    PCM Polarization Energy =               0.0000000000000000
    EFP Energy =                            0.0000000000000000
    Total Energy =                       -501.0422900407562565

  Mulliken Charges: (a.u.)
   Center  Symbol    Alpha    Beta     Spin     Total
       1     O     4.28581  4.28581  0.00000 -0.57162
       2     C     2.60619  2.60619  0.00000  0.78761
       3     C     3.21100  3.21100  0.00000 -0.42200
       4     O     4.30683  4.30683  0.00000 -0.61365
       5     C     3.15582  3.15582  0.00000 -0.31163
       6     H     0.39777  0.39777  0.00000  0.20445
       7     H     0.39854  0.39854  0.00000  0.20292
       8     C     3.16375  3.16375  0.00000 -0.32749
       9     H     0.41883  0.41883  0.00000  0.16234
      10     H     0.40989  0.40989  0.00000  0.18021
      11     C     3.15415  3.15415  0.00000 -0.30829
      12     H     0.42201  0.42201  0.00000  0.15598
      13     H     0.40038  0.40038  0.00000  0.19925
      14     C     3.14998  3.14998  0.00000 -0.29996
      15     H     0.42590  0.42590  0.00000  0.14820
      16     H     0.42677  0.42677  0.00000  0.14647
      17     C     3.15119  3.15119  0.00000 -0.30237
      18     H     0.42370  0.42370  0.00000  0.15259
      19     H     0.42244  0.42244  0.00000  0.15513
      20     C     3.23923  3.23923  0.00000 -0.47846
      21     H     0.42367  0.42367  0.00000  0.15266
      22     H     0.42397  0.42397  0.00000  0.15206
      23     H     0.41994  0.41994  0.00000  0.16013
      24     H     0.42179  0.42179  0.00000  0.15643
      25     H     0.42160  0.42160  0.00000  0.15679
      26     C     3.09242  3.09242  0.00000 -0.18484
      27     H     0.40889  0.40889  0.00000  0.18222
      28     H     0.40824  0.40824  0.00000  0.18351
      29     H     0.40931  0.40931  0.00000  0.18138

   Total alpha = 44.00000, Total beta = 44.00000, Total charge =  0.00000
