  ==> Input File <==

--------------------------------------------------------------------------
set {
	reference rhf
	basis 6-31G*
}

set_num_threads( 1 )
memory 2 gb

molecule MOL {
0 1

H	 -3.420663	 1.227371	 -1.044276
O	 -3.452007	 0.283848	 -0.965577
C	 -3.181085	 -0.079926	 0.364119
C	 -1.765924	 0.277073	 0.805136
H	 -3.327791	 -1.152017	 0.410903
H	 -3.905698	 0.375695	 1.036898
C	 -0.677594	 -0.417312	 -0.014550
H	 -1.637766	 1.358238	 0.744969
H	 -1.659588	 0.017670	 1.857098
C	 0.738335	 -0.034840	 0.421385
H	 -0.814977	 -0.178223	 -1.064632
H	 -0.802730	 -1.495410	 0.071702
C	 1.092119	 -0.560029	 1.815336
H	 1.448092	 -0.414359	 -0.309798
H	 0.839909	 1.049679	 0.411073
C	 2.468599	 -0.127700	 2.333554
H	 1.034590	 -1.647405	 1.815204
H	 0.335787	 -0.217324	 2.518423
C	 3.651326	 -0.693740	 1.545416
H	 2.559785	 -0.440893	 3.370803
H	 2.525548	 0.959004	 2.339476
H	 3.613805	 -1.779375	 1.511852
H	 4.592662	 -0.410825	 2.006592
H	 3.669099	 -0.331530	 0.522845

	symmetry c1
}
set optking {
	frozen_dihedral = ("
		20 16 13 17,
		17 13 10 7,
		11 7 4 3,
		1 2 3 5,
		7 4 3 2
	")
}

ee = energy('scf')
oeprop('DIPOLE', 'QUADRUPOLE', 'MULLIKEN_CHARGES')
f=open( 'psi4out.xyz', 'w' )
f.write( "24  " )
f.write( str(ee) + "\n" )
f.write( MOL.save_string_xyz() )
f.close()
--------------------------------------------------------------------------

    Molecular point group: c1

    Geometry (in Angstrom), charge = 0, multiplicity = 1:

       Center              X                  Y                   Z               Mass
    ------------   -----------------  -----------------  -----------------  -----------------
           H         -3.229346755670     1.384117023175    -1.803199817403     1.007825032070
           O         -3.260690755670     0.440594023175    -1.724500817403    15.994914619560
           C         -2.989768755670     0.076820023175    -0.394804817403    12.000000000000
           C         -1.574607755670     0.433819023175     0.046212182597    12.000000000000
           H         -3.136474755670    -0.995270976825    -0.348020817403     1.007825032070
           H         -3.714381755670     0.532441023175     0.277974182597     1.007825032070
           C         -0.486277755670    -0.260565976825    -0.773473817403    12.000000000000
           H         -1.446449755670     1.514984023175    -0.013954817403     1.007825032070
           H         -1.468271755670     0.174416023175     1.098174182597     1.007825032070
           C          0.929651244330     0.121906023175    -0.337538817403    12.000000000000
           H         -0.623660755670    -0.021476976825    -1.823555817403     1.007825032070
           H         -0.611413755670    -1.338663976825    -0.687221817403     1.007825032070
           C          1.283435244330    -0.403282976825     1.056412182597    12.000000000000
           H          1.639408244330    -0.257612976825    -1.068721817403     1.007825032070
           H          1.031225244330     1.206425023175    -0.347850817403     1.007825032070
           C          2.659915244330     0.029046023175     1.574630182597    12.000000000000
           H          1.225906244330    -1.490658976825     1.056280182597     1.007825032070
           H          0.527103244330    -0.060577976825     1.759499182597     1.007825032070
           C          3.842642244330    -0.536993976825     0.786492182597    12.000000000000
           H          2.751101244330    -0.284146976825     2.611879182597     1.007825032070
           H          2.716864244330     1.115750023175     1.580552182597     1.007825032070
           H          3.805121244330    -1.622628976825     0.752928182597     1.007825032070
           H          4.783978244330    -0.254078976825     1.247668182597     1.007825032070
           H          3.860415244330    -0.174783976825    -0.236078817403     1.007825032070

  Charge       = 0
  Multiplicity = 1
  Basis Set: 6-31G*
  Basis Set:

    Orbital Energies (a.u.)
    -----------------------

    Doubly Occupied:

       1A    -20.553329     2A    -11.267545     3A    -11.216667
       4A    -11.214871     5A    -11.212626     6A    -11.212057
       7A    -11.211076     8A    -11.207531     9A     -1.359932
      10A     -1.090716    11A     -1.046889    12A     -0.984399
      13A     -0.916006    14A     -0.853327    15A     -0.805585
      16A     -0.771147    17A     -0.679764    18A     -0.643638
      19A     -0.631481    20A     -0.618686    21A     -0.597088
      22A     -0.586771    23A     -0.561099    24A     -0.544203
      25A     -0.517747    26A     -0.508155    27A     -0.497233
      28A     -0.481291    29A     -0.468458    30A     -0.457731
      31A     -0.454767    32A     -0.437357    33A     -0.424263

  @DF-RHF Final Energy:  -349.24525749053470

   => Energetics <=

    Nuclear Repulsion Energy =            388.3426185282045822
    One-Electron Energy =               -1243.1089463032690219
    Two-Electron Energy =                 505.5210702845300830
    DFT Exchange-Correlation Energy =       0.0000000000000000
    Empirical Dispersion Energy =           0.0000000000000000
    PCM Polarization Energy =               0.0000000000000000
    EFP Energy =                            0.0000000000000000
    Total Energy =                       -349.2452574905342999

  Mulliken Charges: (a.u.)
   Center  Symbol    Alpha    Beta     Spin     Total
       1     H     0.28341  0.28341  0.00000  0.43317
       2     O     4.36850  4.36850  0.00000 -0.73701
       3     C     2.99500  2.99500  0.00000  0.01000
       4     C     3.17184  3.17184  0.00000 -0.34369
       5     H     0.41635  0.41635  0.00000  0.16731
       6     H     0.42832  0.42832  0.00000  0.14337
       7     C     3.15364  3.15364  0.00000 -0.30727
       8     H     0.42849  0.42849  0.00000  0.14303
       9     H     0.42050  0.42050  0.00000  0.15900
      10     C     3.15584  3.15584  0.00000 -0.31168
      11     H     0.40996  0.40996  0.00000  0.18008
      12     H     0.42350  0.42350  0.00000  0.15301
      13     C     3.15530  3.15530  0.00000 -0.31060
      14     H     0.41836  0.41836  0.00000  0.16328
      15     H     0.42570  0.42570  0.00000  0.14859
      16     C     3.15124  3.15124  0.00000 -0.30248
      17     H     0.42417  0.42417  0.00000  0.15166
      18     H     0.42160  0.42160  0.00000  0.15679
      19     C     3.24117  3.24117  0.00000 -0.48234
      20     H     0.42160  0.42160  0.00000  0.15680
      21     H     0.42390  0.42390  0.00000  0.15221
      22     H     0.42220  0.42220  0.00000  0.15561
      23     H     0.41952  0.41952  0.00000  0.16096
      24     H     0.41990  0.41990  0.00000  0.16020

   Total alpha = 33.00000, Total beta = 33.00000, Total charge =  0.00000
