  ==> Input File <==

--------------------------------------------------------------------------
set {
	reference rhf
	basis 6-31G*
}

set_num_threads( 4 )
memory 2 gb

molecule MOL {
0 1

H	 -2.328036	 -0.967661	 -0.581915
O	 -2.347518	 -0.290803	 0.079804
C	 -1.184022	 0.487508	 -0.006784
C	 0.062599	 -0.378592	 0.031606
H	 -1.176523	 1.099369	 -0.904519
H	 -1.187323	 1.153111	 0.844927
O	 1.171513	 0.459272	 -0.058250
H	 0.050699	 -1.089204	 -0.797170
H	 0.078739	 -0.954914	 0.954740
C	 2.397842	 -0.198080	 -0.002151
H	 2.508049	 -0.905315	 -0.822092
H	 3.173794	 0.550865	 -0.078850
H	 2.517602	 -0.735921	 0.936026

	symmetry c1
}
set optking {
	frozen_dihedral = ("
		1 2 3 5
	")
}

ee = optimize('scf')
oeprop('DIPOLE', 'QUADRUPOLE', 'MULLIKEN_CHARGES')
f=open( 'psi4out.xyz', 'w' )
f.write( "13  " )
f.write( str(ee) + "\n" )
f.write( MOL.save_string_xyz() )
f.close()
--------------------------------------------------------------------------

    Molecular point group: c1
  Charge       = 0
  Multiplicity = 1
  Basis Set: 6-31G*
  Basis Set:
  @DF-RHF Final Energy:  -267.94987623384554
    Total Energy =                       -267.9498762338456572
    Molecular point group: c1
  Basis Set: 6-31G*
  Basis Set:
  Basis Set: 6-31G*
  Basis Set:
  @DF-RHF Final Energy:  -267.94991284478965
    Total Energy =                       -267.9499128447897647
  Basis Set: 6-31G*
  Basis Set:
  Basis Set: 6-31G*
  Basis Set:
  @DF-RHF Final Energy:  -267.94992100131515
    Total Energy =                       -267.9499210013150332
  Basis Set: 6-31G*
  Basis Set:
  Charge       = 0
  Multiplicity = 1
  Basis Set: 6-31G*
  Basis Set:

    Orbital Energies (a.u.)
    -----------------------

    Doubly Occupied:

       1A    -20.565028     2A    -20.559916     3A    -11.275067
       4A    -11.272176     5A    -11.268733     6A     -1.391444
       7A     -1.365160     8A     -1.020081     9A     -0.914652
      10A     -0.846575    11A     -0.705386    12A     -0.676309
      13A     -0.666276    14A     -0.634285    15A     -0.596568
      16A     -0.576633    17A     -0.545581    18A     -0.493851
      19A     -0.477342    20A     -0.439856    21A     -0.424747

  @DF-RHF Final Energy:  -267.94992115583034

   => Energetics <=

    Nuclear Repulsion Energy =            190.3133621243314337
    One-Electron Energy =                -743.0952326202570930
    Two-Electron Energy =                 284.8319493400952638
    DFT Exchange-Correlation Energy =       0.0000000000000000
    Empirical Dispersion Energy =           0.0000000000000000
    PCM Polarization Energy =               0.0000000000000000
    EFP Energy =                            0.0000000000000000
    Total Energy =                       -267.9499211558303955
    Molecular point group: c1
  Basis Set: 6-31G*
  Basis Set:

  -Total Gradient:
     Atom            X                  Y                   Z
    ------   -----------------  -----------------  -----------------
       1        0.001050094944    -0.001407778749     0.001431102137
       2       -0.001561309925     0.002144135875    -0.001439620404
       3        0.001405762688    -0.002222679175    -0.001028652795
       4       -0.000035412038     0.000011861700     0.000025798669
       5       -0.000877985887     0.001477356940     0.001019719697
       6       -0.000007024725    -0.000008090397     0.000005099254
       7        0.000005965746    -0.000018543490    -0.000005308900
       8        0.000001470222     0.000013822966     0.000003708943
       9       -0.000001801492    -0.000006701881    -0.000007613463
      10        0.000003597941     0.000030004707    -0.000007591957
      11        0.000001837462    -0.000003381406     0.000002096008
      12        0.000017218331    -0.000008402769     0.000001529123
      13       -0.000002413269    -0.000001604321    -0.000000266313

  **** Optimization is complete! (in 4 steps) ****
    Final optimized geometry and variables:
    Molecular point group: c1

    Geometry (in Angstrom), charge = 0, multiplicity = 1:

    H           -2.349990095954    -0.954718507231    -0.590005754818
    O           -2.355149454227    -0.282879434132     0.077851244991
    C           -1.185337258828     0.485043369565    -0.010845332732
    C            0.063368525523    -0.377362869169     0.031302694091
    H           -1.182114417231     1.104502396623    -0.903597617055
    H           -1.189415781419     1.149570134577     0.841877671513
    O            1.170054912232     0.461690488333    -0.061105517977
    H            0.055865446557    -1.091110889761    -0.796023248546
    H            0.080779418557    -0.950736223196     0.956514781828
    C            2.398009866499    -0.193486610825    -0.004013502987
    H            2.508466196959    -0.901939971677    -0.822758901078
    H            3.172074957771     0.557036763077    -0.082980663427
    H            2.519041491867    -0.728786235684     0.935412687269

  Mulliken Charges: (a.u.)
   Center  Symbol    Alpha    Beta     Spin     Total
       1     H     0.28260  0.28260  0.00000  0.43480
       2     O     4.37156  4.37156  0.00000 -0.74312
       3     C     2.99778  2.99778  0.00000  0.00445
       4     C     3.00255  3.00255  0.00000 -0.00511
       5     H     0.42178  0.42178  0.00000  0.15643
       6     H     0.40881  0.40881  0.00000  0.18238
       7     O     4.30632  4.30632  0.00000 -0.61265
       8     H     0.43847  0.43847  0.00000  0.12305
       9     H     0.42317  0.42317  0.00000  0.15365
      10     C     3.08061  3.08061  0.00000 -0.16122
      11     H     0.42892  0.42892  0.00000  0.14216
      12     H     0.40994  0.40994  0.00000  0.18012
      13     H     0.42747  0.42747  0.00000  0.14507

   Total alpha = 21.00000, Total beta = 21.00000, Total charge =  0.00000
