                              Psi4 1.0.54 Driver

  ==> Input File <==

--------------------------------------------------------------------------
set {
	reference rhf
	basis cc-pvtz
}

set_num_threads( 4 )
memory 2 gb

molecule MOL {
0 1

H	 -3.162190	 0.493205	 -0.000107
C	 -2.363908	 -0.234727	 0.000005
O	 -1.158738	 0.454634	 -0.000087
H	 -2.464314	 -0.863616	 -0.882153
H	 -2.464327	 -0.863359	 0.882345
C	 -0.180584	 -0.094120	 -0.826163
C	 1.077413	 0.745986	 -0.736392
H	 -0.536955	 -0.128162	 -1.855958
H	 0.030638	 -1.120368	 -0.524761
C	 2.200644	 0.208388	 -1.615991
H	 0.834254	 1.763620	 -1.021382
H	 1.397356	 0.779254	 0.299215
H	 1.909812	 0.189357	 -2.661046
H	 3.085980	 0.826678	 -1.532823
H	 2.476879	 -0.801460	 -1.331438

	symmetry c1
}
set optking {
	frozen_dihedral = ("
		6 3 2 4
	")
}

ee,wfn = optimize('scf', return_wfn=True)
oeprop( wfn, 'DIPOLE', 'QUADRUPOLE', 'MULLIKEN_CHARGES')
f=open( 'psi4out.xyz', 'w' )
f.write( "15  " )
f.write( str(ee) + "\n" )
f.write( MOL.save_string_xyz() )
f.close()
--------------------------------------------------------------------------

    Molecular point group: c1
  Charge       = 0
  Multiplicity = 1
  Basis Set: CC-PVTZ
  Basis Set:
  @DF-RHF Final Energy:  -232.22522902436452
    Total Energy =                       -232.2252290243645803
    Molecular point group: c1
  Basis Set: CC-PVTZ
  Basis Set:
  Basis Set: CC-PVTZ
  Basis Set:
  @DF-RHF Final Energy:  -232.22540413153416
    Total Energy =                       -232.2254041315343329
  Basis Set: CC-PVTZ
  Basis Set:
  Basis Set: CC-PVTZ
  Basis Set:
  @DF-RHF Final Energy:  -232.22547113538428
    Total Energy =                       -232.2254711353842822
  Basis Set: CC-PVTZ
  Basis Set:
  Charge       = 0
  Multiplicity = 1
  Basis Set: CC-PVTZ
  Basis Set:

    Orbital Energies (a.u.)
    -----------------------

    Doubly Occupied:

       1A    -20.544805     2A    -11.264834     3A    -11.261406
       4A    -11.212361     5A    -11.210535     6A     -1.378032
       7A     -1.058133     8A     -0.956113     9A     -0.877437
      10A     -0.809329    11A     -0.673927    12A     -0.654475
      13A     -0.631998    14A     -0.608118    15A     -0.564249
      16A     -0.544240    17A     -0.503088    18A     -0.490090
      19A     -0.478959    20A     -0.462288    21A     -0.412152

  @DF-RHF Final Energy:  -232.22547153567970

   => Energetics <=

    Nuclear Repulsion Energy =            189.7461192773246523
    One-Electron Energy =                -690.7500543309272416
    Two-Electron Energy =                 268.7784635179228871
    DFT Exchange-Correlation Energy =       0.0000000000000000
    Empirical Dispersion Energy =           0.0000000000000000
    PCM Polarization Energy =               0.0000000000000000
    EFP Energy =                            0.0000000000000000
    Total Energy =                       -232.2254715356797306
    Molecular point group: c1
  Basis Set: CC-PVTZ
  Basis Set:

  -Total Gradient:
     Atom            X                  Y                   Z
    ------   -----------------  -----------------  -----------------
       1       -0.000025965830    -0.000000509043    -0.000005745324
       2       -0.001625965016     0.002934121936    -0.002190143776
       3        0.001109825157    -0.002182827607     0.002516704257
       4        0.001078356405    -0.001855648516     0.001208552384
       5        0.000016616475     0.000003976404    -0.000006499245
       6       -0.000576806680     0.001089654349    -0.001485540339
       7       -0.000009205649    -0.000015360696    -0.000018323478
       8       -0.000006243003     0.000009865824     0.000021312327
       9       -0.000008722689     0.000010689441    -0.000010315138
      10        0.000039465235     0.000017344251    -0.000010715545
      11        0.000004344853    -0.000002123052     0.000001526943
      12       -0.000012697005    -0.000006615705    -0.000009516045
      13        0.000002004650    -0.000000735906     0.000001905799
      14        0.000018548136    -0.000006434714    -0.000013483504
      15       -0.000003555039     0.000004603035     0.000000280685

  **** Optimization is complete! (in 4 steps) ****
    Final optimized geometry and variables:
    Molecular point group: c1

    Geometry (in Angstrom), charge = 0, multiplicity = 1:

    H           -3.061075687715     0.301753063870     0.674381736884
    C           -2.259723195782    -0.424588463399     0.648988217266
    O           -1.039744671694     0.246996468205     0.625696795879
    H           -2.387176994141    -1.061894069636    -0.220825210201
    H           -2.333591668703    -1.054199026705     1.531548259037
    C           -0.060123285718    -0.303850622273    -0.198781631925
    C            1.196259632875     0.538298968242    -0.106053043522
    H           -0.414318072125    -0.336394373332    -1.228578134060
    H            0.155859594828    -1.329534526933     0.101129419094
    C            2.319837067221     0.007077040659    -0.989385449108
    H            0.950356742284     1.556744646193    -0.386077026753
    H            1.517336972735     0.567811954137     0.929333274743
    H            2.028037445176    -0.007496695774    -2.034300474909
    H            3.204271106257     0.626552720153    -0.904251039726
    H            2.598256609650    -1.003656189890    -0.709957230328

  Mulliken Charges: (a.u.)
   Center  Symbol    Alpha    Beta     Spin     Total
       1     H     0.45278  0.45278  0.00000  0.09445
       2     C     3.03005  3.03005  0.00000 -0.06010
       3     O     4.17549  4.17549  0.00000 -0.35098
       4     H     0.47380  0.47380  0.00000  0.05239
       5     H     0.46295  0.46295  0.00000  0.07410
       6     C     2.95552  2.95552  0.00000  0.08897
       7     C     3.08173  3.08173  0.00000 -0.16347
       8     H     0.47503  0.47503  0.00000  0.04994
       9     H     0.47647  0.47647  0.00000  0.04707
      10     C     3.15587  3.15587  0.00000 -0.31174
      11     H     0.45123  0.45123  0.00000  0.09754
      12     H     0.45105  0.45105  0.00000  0.09790
      13     H     0.45592  0.45592  0.00000  0.08816
      14     H     0.44627  0.44627  0.00000  0.10746
      15     H     0.45584  0.45584  0.00000  0.08832

   Total alpha = 21.00000, Total beta = 21.00000, Total charge =  0.00000

*** Psi4 exiting successfully. Buy a developer a beer!
