                              Psi4 1.0.54 Driver

  ==> Input File <==

--------------------------------------------------------------------------
set {
	reference rhf
	basis cc-pvtz
}

set_num_threads( 4 )
memory 2 gb

molecule MOL {
0 1

O	 -1.510770	 1.240811	 -0.054933
C	 -1.081510	 0.147522	 0.122720
C	 0.327029	 -0.064006	 0.641890
C	 -1.903028	 -1.084121	 -0.174656
C	 1.349460	 -0.017068	 -0.500215
H	 0.399029	 -1.014606	 1.159950
H	 0.538021	 0.726928	 1.350471
C	 1.814628	 -1.405989	 -0.922430
H	 0.919280	 0.494156	 -1.356622
H	 2.199297	 0.574086	 -0.179841
H	 2.543691	 -1.343910	 -1.721581
H	 0.984665	 -2.008069	 -1.276567
H	 2.275048	 -1.931262	 -0.092989
H	 -1.341891	 -1.779207	 -0.789259
H	 -2.820449	 -0.808163	 -0.671328
H	 -2.133314	 -1.593056	 0.755831

	symmetry c1
}
set optking {
	frozen_dihedral = ("
		9 5 3 2
	")
}

ee,wfn = optimize('scf', return_wfn=True)
oeprop( wfn, 'DIPOLE', 'QUADRUPOLE', 'MULLIKEN_CHARGES')
f=open( 'psi4out.xyz', 'w' )
f.write( "16  " )
f.write( str(ee) + "\n" )
f.write( MOL.save_string_xyz() )
f.close()
--------------------------------------------------------------------------

    Molecular point group: c1
  Charge       = 0
  Multiplicity = 1
  Basis Set: CC-PVTZ
  Basis Set:
  @DF-RHF Final Energy:  -270.12374863721715
    Total Energy =                       -270.1237486372170906
    Molecular point group: c1
  Basis Set: CC-PVTZ
  Basis Set:
  Basis Set: CC-PVTZ
  Basis Set:
  @DF-RHF Final Energy:  -270.12407468250336
    Total Energy =                       -270.1240746825034194
  Basis Set: CC-PVTZ
  Basis Set:
  Basis Set: CC-PVTZ
  Basis Set:
  @DF-RHF Final Energy:  -270.12231030255032
    Total Energy =                       -270.1223103025505452
  Basis Set: CC-PVTZ
  Basis Set:
  Basis Set: CC-PVTZ
  Basis Set:
  @DF-RHF Final Energy:  -270.12422983499272
    Total Energy =                       -270.1242298349930593
  Basis Set: CC-PVTZ
  Basis Set:
  @DF-RHF Final Energy:  -270.12429602778946
    Total Energy =                       -270.1242960277896827
  @DF-RHF Final Energy:  -270.12434189127885
    Total Energy =                       -270.1243418912790162
  @DF-RHF Final Energy:  -270.12314316426580
    Total Energy =                       -270.1231431642657981
  @DF-RHF Final Energy:  -270.12436623798339
    Total Energy =                       -270.1243662379833950
  @DF-RHF Final Energy:  -270.12443162727430
    Total Energy =                       -270.1244316272742481
  @DF-RHF Final Energy:  -270.12471204799601
    Total Energy =                       -270.1247120479962405
  @DF-RHF Final Energy:  -269.41195407589930
    Total Energy =                       -269.4119540758994731
  @DF-RHF Final Energy:  -269.66486030742840
    Total Energy =                       -269.6648603074282278
  @DF-RHF Final Energy:  -269.97869895977215
    Total Energy =                       -269.9786989597722595
  @DF-RHF Final Energy:  -270.09280140954627
    Total Energy =                       -270.0928014095464960
  @DF-RHF Final Energy:  -270.12398144212909
    Total Energy =                       -270.1239814421293204
  @DF-RHF Final Energy:  -270.12450403286368
    Total Energy =                       -270.1245040328635696
  @DF-RHF Final Energy:  -270.12506294346105
    Total Energy =                       -270.1250629434609323
  @DF-RHF Final Energy:  -270.12658021215788
    Total Energy =                       -270.1265802121579327
  @DF-RHF Final Energy:  -270.12708820239669
    Total Energy =                       -270.1270882023966351
  @DF-RHF Final Energy:  -270.12743706113611
    Total Energy =                       -270.1274370611361064
  @DF-RHF Final Energy:  -270.12764678592617
    Total Energy =                       -270.1276467859260606
  @DF-RHF Final Energy:  -270.12776544816711
    Total Energy =                       -270.1277654481672243
  Basis Set: CC-PVTZ
  Basis Set:
  @DF-RHF Final Energy:  -270.12770809610060
    Total Energy =                       -270.1277080961008323
  Basis Set: CC-PVTZ
  Basis Set:
  Basis Set: CC-PVTZ
  Basis Set:
  @DF-RHF Final Energy:  -270.12780682078949
    Total Energy =                       -270.1278068207897149
  Basis Set: CC-PVTZ
  Basis Set:
  Basis Set: CC-PVTZ
  Basis Set:
  @DF-RHF Final Energy:  -270.12781002345480
    Total Energy =                       -270.1278100234547423
  Basis Set: CC-PVTZ
  Basis Set:
  Charge       = 0
  Multiplicity = 1
  Basis Set: CC-PVTZ
  Basis Set:

    Orbital Energies (a.u.)
    -----------------------

    Doubly Occupied:

       1A    -20.540289     2A    -11.322446     3A    -11.231052
       4A    -11.227541     5A    -11.216475     6A    -11.209281
       7A     -1.400714     8A     -1.076243     9A     -1.016606
      10A     -0.946284    11A     -0.826448    12A     -0.730780
      13A     -0.666834    14A     -0.639607    15A     -0.625564
      16A     -0.596492    17A     -0.579973    18A     -0.556428
      19A     -0.548664    20A     -0.504466    21A     -0.487549
      22A     -0.481313    23A     -0.473999    24A     -0.405033

  @DF-RHF Final Energy:  -270.12781022067134

   => Energetics <=

    Nuclear Repulsion Energy =            239.3045120554015455
    One-Electron Energy =                -840.2444833446529628
    Two-Electron Energy =                 330.8121610685801670
    DFT Exchange-Correlation Energy =       0.0000000000000000
    Empirical Dispersion Energy =           0.0000000000000000
    PCM Polarization Energy =               0.0000000000000000
    EFP Energy =                            0.0000000000000000
    Total Energy =                       -270.1278102206712219
    Molecular point group: c1
  Basis Set: CC-PVTZ
  Basis Set:

  -Total Gradient:
     Atom            X                  Y                   Z
    ------   -----------------  -----------------  -----------------
       1       -0.000002622416     0.000037647739    -0.000024930741
       2        0.001794712827     0.001369435501     0.001272025172
       3       -0.003242093056    -0.002149970107    -0.002097182883
       4       -0.000002629652    -0.000041838205     0.000021871752
       5        0.004495803698     0.001651765687     0.002215816958
       6       -0.000001467554    -0.000006503544    -0.000002772051
       7        0.000001771381    -0.000004708043    -0.000003621743
       8        0.000020424638    -0.000008508205     0.000041218778
       9       -0.003059497026    -0.000863959238    -0.001403717938
      10        0.000004150919    -0.000009738902     0.000009470688
      11       -0.000015789310     0.000009210424    -0.000004128640
      12       -0.000000281142     0.000005410497    -0.000013073333
      13        0.000003023529    -0.000000861060    -0.000002688907
      14        0.000001038755    -0.000004921837    -0.000000009514
      15        0.000002648728     0.000013338532    -0.000008800052
      16        0.000000805681     0.000004200756     0.000000522454

  **** Optimization is complete! (in 26 steps) ****
    Final optimized geometry and variables:
    Molecular point group: c1

    Geometry (in Angstrom), charge = 0, multiplicity = 1:

    O           -0.835485552109     1.253350289744     0.560268082720
    C           -0.410088691528     0.193597607673     0.884516274592
    C            0.681119121435    -0.527722637902     0.113233396726
    C           -0.930293467071    -0.519170843397     2.112413217311
    C            1.097115731771     0.134006463748    -1.203869043139
    H            0.365522295080    -1.555820515514    -0.038388927292
    H            1.525247472155    -0.588225832375     0.796195983714
    C            0.459990565124    -0.526172052436    -2.424871264005
    H            0.793012532463     1.170672519194    -1.181067048379
    H            2.175742448622     0.105356088401    -1.300293305608
    H            0.750872694209    -0.018360702597    -3.336946525493
    H           -0.622548103975    -0.494126080936    -2.362017414466
    H            0.758387014919    -1.565789161339    -2.514778903263
    H           -1.474726662309    -1.407521589695     1.809785735704
    H           -1.589422419623     0.133652816293     2.663654355369
    H           -0.112791141074    -0.841919909651     2.746607481905

  Mulliken Charges: (a.u.)
   Center  Symbol    Alpha    Beta     Spin     Total
       1     O     4.17163  4.17163  0.00000 -0.34326
       2     C     2.86010  2.86010  0.00000  0.27980
       3     C     3.11489  3.11489  0.00000 -0.22978
       4     C     3.15064  3.15064  0.00000 -0.30128
       5     C     3.08999  3.08999  0.00000 -0.17999
       6     H     0.44526  0.44526  0.00000  0.10948
       7     H     0.43813  0.43813  0.00000  0.12374
       8     C     3.14878  3.14878  0.00000 -0.29757
       9     H     0.43856  0.43856  0.00000  0.12288
      10     H     0.44899  0.44899  0.00000  0.10201
      11     H     0.44791  0.44791  0.00000  0.10418
      12     H     0.45187  0.45187  0.00000  0.09626
      13     H     0.45819  0.45819  0.00000  0.08361
      14     H     0.44881  0.44881  0.00000  0.10238
      15     H     0.43536  0.43536  0.00000  0.12927
      16     H     0.45086  0.45086  0.00000  0.09828

   Total alpha = 24.00000, Total beta = 24.00000, Total charge = -0.00000

*** Psi4 exiting successfully. Buy a developer a beer!
