                              Psi4 1.0.54 Driver

  ==> Input File <==

--------------------------------------------------------------------------
set {
	reference rhf
	basis cc-pvtz
}

set_num_threads( 4 )
memory 2 gb

molecule MOL {
0 1

H	 0.891547	 0.730104	 2.158197
C	 -0.058468	 0.804107	 1.649566
O	 0.000000	 0.000000	 0.518769
H	 -0.845096	 0.480856	 2.328227
H	 -0.236098	 1.845531	 1.389299
C	 -1.165153	 0.000000	 -0.236961
H	 -1.229451	 0.882440	 -0.870223
H	 -2.002557	 0.000000	 0.445289
H	 -1.229451	 -0.882440	 -0.870223

	symmetry c1
}
set optking {
	frozen_dihedral = ("
		2 3 6 7
	")
}

ee,wfn = optimize('scf', return_wfn=True)
oeprop( wfn, 'DIPOLE', 'QUADRUPOLE', 'MULLIKEN_CHARGES')
f=open( 'psi4out.xyz', 'w' )
f.write( "9  " )
f.write( str(ee) + "\n" )
f.write( MOL.save_string_xyz() )
f.close()
--------------------------------------------------------------------------

    Molecular point group: c1
  Charge       = 0
  Multiplicity = 1
  Basis Set: CC-PVTZ
  Basis Set:
  @DF-RHF Final Energy:  -154.12518481877265
    Total Energy =                       -154.1251848187725670
    Molecular point group: c1
  Basis Set: CC-PVTZ
  Basis Set:
  Basis Set: CC-PVTZ
  Basis Set:
  @DF-RHF Final Energy:  -154.12608391914469
    Total Energy =                       -154.1260839191446337
  Basis Set: CC-PVTZ
  Basis Set:
  Basis Set: CC-PVTZ
  Basis Set:
  @DF-RHF Final Energy:  -154.12633258322501
    Total Energy =                       -154.1263325832249222
  Basis Set: CC-PVTZ
  Basis Set:
  Charge       = 0
  Multiplicity = 1
  Basis Set: CC-PVTZ
  Basis Set:

    Orbital Energies (a.u.)
    -----------------------

    Doubly Occupied:

       1A    -20.549598     2A    -11.263301     3A    -11.262972
       4A     -1.381745     5A     -0.975985     6A     -0.872527
       7A     -0.663416     8A     -0.655210     9A     -0.646488
      10A     -0.553799    11A     -0.528860    12A     -0.476503
      13A     -0.419231

  @DF-RHF Final Energy:  -154.12633406101656

   => Energetics <=

    Nuclear Repulsion Energy =             84.7927548694897411
    One-Electron Energy =                -377.3389038034215446
    Two-Electron Energy =                 138.4198148729151399
    DFT Exchange-Correlation Energy =       0.0000000000000000
    Empirical Dispersion Energy =           0.0000000000000000
    PCM Polarization Energy =               0.0000000000000000
    EFP Energy =                            0.0000000000000000
    Total Energy =                       -154.1263340610166779
    Molecular point group: c1
  Basis Set: CC-PVTZ
  Basis Set:

  -Total Gradient:
     Atom            X                  Y                   Z
    ------   -----------------  -----------------  -----------------
       1       -0.000001425091    -0.000044209913    -0.000052224776
       2       -0.000802974422    -0.001412343222     0.001026571786
       3        0.001223431548     0.001760476002    -0.002172528188
       4        0.000004132415    -0.000021484316    -0.000006162283
       5        0.000012365055     0.000003881636     0.000022659657
       6       -0.001691256371     0.000925181231     0.002928165180
       7        0.001213302265    -0.001215397312    -0.001769180713
       8       -0.000003849768     0.000003327790     0.000007921201
       9        0.000046274369     0.000000568103     0.000014778136

  **** Optimization is complete! (in 4 steps) ****
    Final optimized geometry and variables:
    Molecular point group: c1

    Geometry (in Angstrom), charge = 0, multiplicity = 1:

    H            1.351058319029     0.430040832119     1.484660520111
    C            0.390673843052     0.521547884963     0.998333975979
    O            0.409859675662    -0.282854760644    -0.133923572948
    H           -0.385599136057     0.209391563237     1.693333602650
    H            0.226258985119     1.567593483772     0.746625224803
    C           -0.765505829896    -0.261982281701    -0.875484641600
    H           -0.818523749390     0.620948216923    -1.508546968603
    H           -1.645618496244    -0.295564068243    -0.238539384244
    H           -0.769286150542    -1.133902883951    -1.514814684443

  Mulliken Charges: (a.u.)
   Center  Symbol    Alpha    Beta     Spin     Total
       1     H     0.44879  0.44879  0.00000  0.10242
       2     C     3.02176  3.02176  0.00000 -0.04352
       3     O     4.16844  4.16844  0.00000 -0.33687
       4     H     0.47208  0.47208  0.00000  0.05583
       5     H     0.47380  0.47380  0.00000  0.05240
       6     C     3.02080  3.02080  0.00000 -0.04159
       7     H     0.46900  0.46900  0.00000  0.06200
       8     H     0.47513  0.47513  0.00000  0.04974
       9     H     0.45021  0.45021  0.00000  0.09959

   Total alpha = 13.00000, Total beta = 13.00000, Total charge = -0.00000

*** Psi4 exiting successfully. Buy a developer a beer!
