                              Psi4 1.0.54 Driver

  ==> Input File <==

--------------------------------------------------------------------------
set {
	reference rhf
	basis cc-pvtz
}

set_num_threads( 4 )
memory 2 gb

molecule MOL {
0 1

O	 -2.003841	 1.607825	 -1.006166
C	 -1.975483	 0.563608	 -0.440270
C	 -0.881910	 -0.448129	 -0.720509
C	 -3.010012	 0.196722	 0.596992
C	 0.376695	 -0.140025	 0.100361
H	 -0.648962	 -0.394824	 -1.776447
H	 -1.231019	 -1.450893	 -0.498129
C	 1.630207	 -0.772146	 -0.501001
H	 0.486632	 0.935267	 0.162725
H	 0.248225	 -0.501310	 1.117842
C	 2.907848	 -0.545876	 0.309149
H	 1.772784	 -0.391628	 -1.509394
H	 1.468529	 -1.842059	 -0.599744
C	 3.373802	 0.906639	 0.372125
H	 3.699140	 -1.146831	 -0.127906
H	 2.764321	 -0.923458	 1.318191
H	 3.519798	 1.311927	 -0.623875
H	 4.316899	 0.983758	 0.900700
H	 2.661122	 1.540651	 0.885346
H	 -3.620696	 -0.617219	 0.219417
H	 -3.637670	 1.047437	 0.813554
H	 -2.533626	 -0.155131	 1.505202

	symmetry c1
}
set optking {
	frozen_dihedral = ("
		6 3 5 8
	")
}

ee,wfn = optimize('scf', return_wfn=True)
oeprop( wfn, 'DIPOLE', 'QUADRUPOLE', 'MULLIKEN_CHARGES')
f=open( 'psi4out.xyz', 'w' )
f.write( "22  " )
f.write( str(ee) + "\n" )
f.write( MOL.save_string_xyz() )
f.close()
--------------------------------------------------------------------------

    Molecular point group: c1
  Charge       = 0
  Multiplicity = 1
  Basis Set: CC-PVTZ
  Basis Set:
  @DF-RHF Final Energy:  -348.22198594899731
    Total Energy =                       -348.2219859489968599
    Molecular point group: c1
  Basis Set: CC-PVTZ
  Basis Set:
  Basis Set: CC-PVTZ
  Basis Set:
  @DF-RHF Final Energy:  -348.22212680786851
    Total Energy =                       -348.2221268078684489
  Basis Set: CC-PVTZ
  Basis Set:
  Basis Set: CC-PVTZ
  Basis Set:
  @DF-RHF Final Energy:  -348.22207039418322
    Total Energy =                       -348.2220703941831630
  Basis Set: CC-PVTZ
  Basis Set:
  Basis Set: CC-PVTZ
  Basis Set:
  @DF-RHF Final Energy:  -348.22218863480737
    Total Energy =                       -348.2221886348072530
  Basis Set: CC-PVTZ
  Basis Set:
  @DF-RHF Final Energy:  -348.22221503516988
    Total Energy =                       -348.2222150351700520
  @DF-RHF Final Energy:  -348.22222460687198
    Total Energy =                       -348.2222246068719755
  @DF-RHF Final Energy:  -348.22223201117868
    Total Energy =                       -348.2222320111782778
  @DF-RHF Final Energy:  -348.22224351107667
    Total Energy =                       -348.2222435110764991
  Basis Set: CC-PVTZ
  Basis Set:
  @DF-RHF Final Energy:  -348.22225090400013
    Total Energy =                       -348.2222509040001341
  Basis Set: CC-PVTZ
  Basis Set:
  Basis Set: CC-PVTZ
  Basis Set:
  @DF-RHF Final Energy:  -348.22225370217836
    Total Energy =                       -348.2222537021777384
  Basis Set: CC-PVTZ
  Basis Set:
  Basis Set: CC-PVTZ
  Basis Set:
  @DF-RHF Final Energy:  -348.22225526631559
    Total Energy =                       -348.2222552663148463
  Basis Set: CC-PVTZ
  Basis Set:
  Charge       = 0
  Multiplicity = 1
  Basis Set: CC-PVTZ
  Basis Set:

    Orbital Energies (a.u.)
    -----------------------

    Doubly Occupied:

       1A    -20.536826     2A    -11.319090     3A    -11.229355
       4A    -11.227523     5A    -11.226475     6A    -11.221145
       7A    -11.219501     8A    -11.210244     9A     -1.396650
      10A     -1.097953    11A     -1.046109    12A     -0.999271
      13A     -0.939171    14A     -0.860551    15A     -0.787908
      16A     -0.735186    17A     -0.663681    18A     -0.644484
      19A     -0.631193    20A     -0.619557    21A     -0.600896
      22A     -0.588764    23A     -0.559599    24A     -0.538501
      25A     -0.535863    26A     -0.525539    27A     -0.499110
      28A     -0.489905    29A     -0.471003    30A     -0.466129
      31A     -0.463612    32A     -0.398758

  @DF-RHF Final Energy:  -348.22225532098389

   => Energetics <=

    Nuclear Repulsion Energy =            373.8583907794851484
    One-Electron Energy =               -1212.6621903621996807
    Two-Electron Energy =                 490.5815442617308690
    DFT Exchange-Correlation Energy =       0.0000000000000000
    Empirical Dispersion Energy =           0.0000000000000000
    PCM Polarization Energy =               0.0000000000000000
    EFP Energy =                            0.0000000000000000
    Total Energy =                       -348.2222553209836633
    Molecular point group: c1
  Basis Set: CC-PVTZ
  Basis Set:

  -Total Gradient:
     Atom            X                  Y                   Z
    ------   -----------------  -----------------  -----------------
       1       -0.000004131717    -0.000005532931     0.000005359425
       2        0.000001509464    -0.000005937813     0.000006354628
       3       -0.000823031835     0.004509146358    -0.000520154305
       4        0.000011773001     0.000010043787     0.000006137221
       5       -0.000311651264    -0.003300433859     0.001721572284
       6        0.000769849894    -0.003074439931     0.000040257709
       7        0.000007200920     0.000001219575     0.000000961845
       8        0.000371247940     0.001868034385    -0.001243076269
       9       -0.000002811202     0.000000452110    -0.000003649062
      10       -0.000006342331    -0.000000165642     0.000001311649
      11       -0.000002320925     0.000002298994    -0.000000806078
      12        0.000001962983     0.000000186372     0.000000130307
      13        0.000004272589    -0.000001466275     0.000000333813
      14       -0.000002354221    -0.000001983695    -0.000002380333
      15       -0.000003647535    -0.000000592518    -0.000001119440
      16       -0.000001382029     0.000000096293     0.000000225843
      17        0.000000030397     0.000001486298    -0.000000238102
      18       -0.000000388348    -0.000002003000     0.000000177618
      19       -0.000000752424    -0.000000074750    -0.000000571327
      20       -0.000000593652     0.000002615160    -0.000003887403
      21       -0.000002368724     0.000000140836    -0.000001173379
      22       -0.000006070986    -0.000003089757    -0.000005766641

  **** Optimization is complete! (in 12 steps) ****
    Final optimized geometry and variables:
    Molecular point group: c1

    Geometry (in Angstrom), charge = 0, multiplicity = 1:

    O           -2.235975132999     1.295195029223    -1.052529389483
    C           -2.047557199056     0.357078093380    -0.348402490709
    C           -0.911017008062    -0.607610885432    -0.611907800751
    C           -2.922063786550     0.084477712913     0.853147013998
    C            0.329807637933    -0.288321683467     0.238858106721
    H           -0.660101208252    -0.558592413260    -1.662874867151
    H           -1.236477438523    -1.622541343332    -0.403676150053
    C            1.596655655440    -0.918956530359    -0.336988698375
    H            0.453654509078     0.787743027193     0.285071665737
    H            0.179547813725    -0.630720035607     1.258124321016
    C            2.846445669278    -0.740585936289     0.526228119900
    H            1.778222870155    -0.503529633749    -1.324378755850
    H            1.425296703010    -1.982616807363    -0.480802775988
    C            3.317424001977     0.704050530181     0.675325093407
    H            3.648929811130    -1.325246865191     0.087583111380
    H            2.666607975507    -1.165380731819     1.510349431299
    H            3.495786695402     1.157578945227    -0.294204917382
    H            4.244047314118     0.748822647060     1.235731175836
    H            2.592410241514     1.316424201806     1.197747258408
    H           -3.497133421139    -0.819204036569     0.678726223873
    H           -3.594687025127     0.912432481187     1.016150424582
    H           -2.320016335177    -0.083789382861     1.738569731335

  Mulliken Charges: (a.u.)
   Center  Symbol    Alpha    Beta     Spin     Total
       1     O     4.17614  4.17614  0.00000 -0.35228
       2     C     2.85908  2.85908  0.00000  0.28183
       3     C     3.09445  3.09445  0.00000 -0.18890
       4     C     3.15548  3.15548  0.00000 -0.31097
       5     C     3.10801  3.10801  0.00000 -0.21601
       6     H     0.43929  0.43929  0.00000  0.12141
       7     H     0.44871  0.44871  0.00000  0.10258
       8     C     3.09430  3.09430  0.00000 -0.18859
       9     H     0.44232  0.44232  0.00000  0.11536
      10     H     0.45129  0.45129  0.00000  0.09742
      11     C     3.09126  3.09126  0.00000 -0.18251
      12     H     0.44920  0.44920  0.00000  0.10160
      13     H     0.44871  0.44871  0.00000  0.10258
      14     C     3.15201  3.15201  0.00000 -0.30402
      15     H     0.44741  0.44741  0.00000  0.10519
      16     H     0.45468  0.45468  0.00000  0.09064
      17     H     0.45297  0.45297  0.00000  0.09406
      18     H     0.44596  0.44596  0.00000  0.10809
      19     H     0.45343  0.45343  0.00000  0.09314
      20     H     0.44899  0.44899  0.00000  0.10202
      21     H     0.43561  0.43561  0.00000  0.12878
      22     H     0.45071  0.45071  0.00000  0.09858

   Total alpha = 32.00000, Total beta = 32.00000, Total charge =  0.00000

*** Psi4 exiting successfully. Buy a developer a beer!
