  ==> Input File <==

--------------------------------------------------------------------------
set {
	reference rhf
	basis 6-31G*
}

set_num_threads( 1 )
memory 2 gb

molecule MOL {
0 1

H	 0.449133	 -0.873041	 -4.537049
O	 0.369501	 -1.694251	 -5.000024
C	 0.845843	 -2.741027	 -4.192924
C	 -0.090563	 -3.084918	 -3.039837
H	 0.946947	 -3.595960	 -4.849081
H	 1.839239	 -2.506772	 -3.812044
C	 -0.266526	 -1.954698	 -2.022730
H	 -1.058312	 -3.359299	 -3.451595
H	 0.301538	 -3.966919	 -2.536152
C	 -1.168595	 -2.349618	 -0.850071
H	 -0.682597	 -1.085057	 -2.523703
H	 0.709557	 -1.658230	 -1.638402
C	 -1.309753	 -1.282496	 0.241564
H	 -2.155359	 -2.609331	 -1.229140
H	 -0.770523	 -3.255079	 -0.396882
C	 -2.037799	 -0.007733	 -0.193645
H	 -1.848099	 -1.720170	 1.079682
H	 -0.322271	 -1.022645	 0.619975
C	 -3.489788	 0.042957	 0.286558
H	 -2.017067	 0.064384	 -1.280144
H	 -1.513726	 0.868678	 0.179924
C	 -4.216917	 1.317354	 -0.141063
H	 -4.025645	 -0.823308	 -0.095450
H	 -3.513059	 -0.038752	 1.371301
H	 -4.239342	 1.411634	 -1.223113
H	 -5.243387	 1.322503	 0.212445
H	 -3.726170	 2.201406	 0.256408

	symmetry c1
}
set optking {
	frozen_dihedral = ("
		14 10 7 4,
		14 10 13 16,
		10 7 4 8,
		8 4 3 2,
		20 16 19 22,
		4 3 2 1
	")
}

ee = energy('scf')
oeprop('DIPOLE', 'QUADRUPOLE', 'MULLIKEN_CHARGES')
f=open( 'psi4out.xyz', 'w' )
f.write( "27  " )
f.write( str(ee) + "\n" )
f.write( MOL.save_string_xyz() )
f.close()
--------------------------------------------------------------------------

    Molecular point group: c1

    Geometry (in Angstrom), charge = 0, multiplicity = 1:

       Center              X                  Y                   Z               Mass
    ------------   -----------------  -----------------  -----------------  -----------------
           H          1.693821066450     0.422752367162    -2.823758243343     1.007825032070
           O          1.614189066450    -0.398457632838    -3.286733243343    15.994914619560
           C          2.090531066450    -1.445233632838    -2.479633243343    12.000000000000
           C          1.154125066450    -1.789124632838    -1.326546243343    12.000000000000
           H          2.191635066450    -2.300166632838    -3.135790243343     1.007825032070
           H          3.083927066450    -1.210978632838    -2.098753243343     1.007825032070
           C          0.978162066450    -0.658904632838    -0.309439243343    12.000000000000
           H          0.186376066450    -2.063505632838    -1.738304243343     1.007825032070
           H          1.546226066450    -2.671125632838    -0.822861243343     1.007825032070
           C          0.076093066450    -1.053824632838     0.863219756657    12.000000000000
           H          0.562091066450     0.210736367162    -0.810412243343     1.007825032070
           H          1.954245066450    -0.362436632838     0.074888756657     1.007825032070
           C         -0.065064933550     0.013297367162     1.954854756657    12.000000000000
           H         -0.910670933550    -1.313537632838     0.484150756657     1.007825032070
           H          0.474165066450    -1.959285632838     1.316408756657     1.007825032070
           C         -0.793110933550     1.288060367162     1.519645756657    12.000000000000
           H         -0.603410933550    -0.424376632838     2.792972756657     1.007825032070
           H          0.922417066450     0.273148367162     2.333265756657     1.007825032070
           C         -2.245099933550     1.338750367162     1.999848756657    12.000000000000
           H         -0.772378933550     1.360177367162     0.433146756657     1.007825032070
           H         -0.269037933550     2.164471367162     1.893214756657     1.007825032070
           C         -2.972228933550     2.613147367162     1.572227756657    12.000000000000
           H         -2.780956933550     0.472485367162     1.617840756657     1.007825032070
           H         -2.268370933550     1.257041367162     3.084591756657     1.007825032070
           H         -2.994653933550     2.707427367162     0.490177756657     1.007825032070
           H         -3.998698933550     2.618296367162     1.925735756657     1.007825032070
           H         -2.481481933550     3.497199367162     1.969698756657     1.007825032070

  Charge       = 0
  Multiplicity = 1
  Basis Set: 6-31G*
  Basis Set:

    Orbital Energies (a.u.)
    -----------------------

    Doubly Occupied:

       1A    -20.552519     2A    -11.267252     3A    -11.220035
       4A    -11.217607     5A    -11.215724     6A    -11.215533
       7A    -11.214370     8A    -11.212872     9A    -11.208568
      10A     -1.359251    11A     -1.095917    12A     -1.061031
      13A     -1.010699    14A     -0.948535    15A     -0.887517
      16A     -0.823970    17A     -0.804043    18A     -0.772211
      19A     -0.693774    20A     -0.655385    21A     -0.629938
      22A     -0.612572    23A     -0.605428    24A     -0.589153
      25A     -0.576312    26A     -0.559462    27A     -0.535769
      28A     -0.528712    29A     -0.507622    30A     -0.492181
      31A     -0.486297    32A     -0.481486    33A     -0.467429
      34A     -0.453052    35A     -0.448367    36A     -0.443883
      37A     -0.423564

  @DF-RHF Final Energy:  -388.27686306002875

   => Energetics <=

    Nuclear Repulsion Energy =            462.8234902774107695
    One-Electron Energy =               -1443.6445253602450975
    Two-Electron Energy =                 592.5441720228041049
    DFT Exchange-Correlation Energy =       0.0000000000000000
    Empirical Dispersion Energy =           0.0000000000000000
    PCM Polarization Energy =               0.0000000000000000
    EFP Energy =                            0.0000000000000000
    Total Energy =                       -388.2768630600302231

  Mulliken Charges: (a.u.)
   Center  Symbol    Alpha    Beta     Spin     Total
       1     H     0.27975  0.27975  0.00000  0.44050
       2     O     4.37099  4.37099  0.00000 -0.74198
       3     C     2.99741  2.99741  0.00000  0.00518
       4     C     3.16084  3.16084  0.00000 -0.32167
       5     H     0.41439  0.41439  0.00000  0.17123
       6     H     0.43192  0.43192  0.00000  0.13615
       7     C     3.16276  3.16276  0.00000 -0.32552
       8     H     0.41509  0.41509  0.00000  0.16981
       9     H     0.42414  0.42414  0.00000  0.15173
      10     C     3.15347  3.15347  0.00000 -0.30694
      11     H     0.42352  0.42352  0.00000  0.15296
      12     H     0.42519  0.42519  0.00000  0.14962
      13     C     3.15738  3.15738  0.00000 -0.31476
      14     H     0.42176  0.42176  0.00000  0.15649
      15     H     0.42146  0.42146  0.00000  0.15709
      16     C     3.15471  3.15471  0.00000 -0.30943
      17     H     0.41911  0.41911  0.00000  0.16178
      18     H     0.42198  0.42198  0.00000  0.15604
      19     C     3.15301  3.15301  0.00000 -0.30602
      20     H     0.42186  0.42186  0.00000  0.15628
      21     H     0.42131  0.42131  0.00000  0.15739
      22     C     3.23972  3.23972  0.00000 -0.47944
      23     H     0.42271  0.42271  0.00000  0.15459
      24     H     0.42258  0.42258  0.00000  0.15484
      25     H     0.42166  0.42166  0.00000  0.15668
      26     H     0.41930  0.41930  0.00000  0.16140
      27     H     0.42200  0.42200  0.00000  0.15601

   Total alpha = 37.00000, Total beta = 37.00000, Total charge = -0.00000
