  ==> Input File <==

--------------------------------------------------------------------------
set {
	reference rhf
	basis 6-31G*
}

set_num_threads( 1 )
memory 2 gb

molecule MOL {
0 1

H	 2.591676	 2.013956	 0.335017
O	 3.341076	 1.666752	 -0.126416
C	 3.569581	 0.339145	 0.272707
C	 2.539767	 -0.640285	 -0.279495
H	 4.553106	 0.084646	 -0.100901
H	 3.608576	 0.269204	 1.359154
C	 1.115811	 -0.397273	 0.226630
H	 2.556196	 -0.582511	 -1.364741
H	 2.852081	 -1.648031	 -0.010655
C	 0.571516	 0.976238	 -0.175895
H	 1.100764	 -0.490545	 1.308961
H	 0.455534	 -1.171633	 -0.164192
C	 -0.882786	 1.237589	 0.232813
H	 1.208693	 1.751452	 0.245883
H	 0.648586	 1.075901	 -1.256556
C	 -1.122088	 1.325285	 1.742622
H	 -1.203463	 2.171659	 -0.223800
H	 -1.519650	 0.461445	 -0.188902
C	 -2.564908	 1.691299	 2.097221
H	 -0.448897	 2.066901	 2.170325
H	 -0.873425	 0.378803	 2.216585
C	 -2.808055	 1.773213	 3.603817
H	 -2.817264	 2.645118	 1.638926
H	 -3.239671	 0.956732	 1.662490
H	 -2.170556	 2.523146	 4.063622
H	 -3.838392	 2.036176	 3.822659
H	 -2.599833	 0.822783	 4.087233

	symmetry c1
}
set optking {
	frozen_dihedral = ("
		14 10 7 4,
		14 10 13 16,
		8 4 3 2,
		10 13 16 20,
		20 16 19 22,
		4 3 2 1
	")
}

ee = energy('scf')
oeprop('DIPOLE', 'QUADRUPOLE', 'MULLIKEN_CHARGES')
f=open( 'psi4out.xyz', 'w' )
f.write( "27  " )
f.write( str(ee) + "\n" )
f.write( MOL.save_string_xyz() )
f.close()
--------------------------------------------------------------------------

    Molecular point group: c1

    Geometry (in Angstrom), charge = 0, multiplicity = 1:

       Center              X                  Y                   Z               Mass
    ------------   -----------------  -----------------  -----------------  -----------------
           H          2.135712925032     1.108689696365    -0.513155014859     1.007825032070
           O          2.885112925032     0.761485696365    -0.974588014859    15.994914619560
           C          3.113617925032    -0.566121303635    -0.575465014859    12.000000000000
           C          2.083803925032    -1.545551303635    -1.127667014859    12.000000000000
           H          4.097142925032    -0.820620303635    -0.949073014859     1.007825032070
           H          3.152612925032    -0.636062303635     0.510981985141     1.007825032070
           C          0.659847925032    -1.302539303635    -0.621542014859    12.000000000000
           H          2.100232925032    -1.487777303635    -2.212913014859     1.007825032070
           H          2.396117925032    -2.553297303635    -0.858827014859     1.007825032070
           C          0.115552925032     0.070971696365    -1.024067014859    12.000000000000
           H          0.644800925032    -1.395811303635     0.460788985141     1.007825032070
           H         -0.000429074968    -2.076899303635    -1.012364014859     1.007825032070
           C         -1.338749074968     0.332322696365    -0.615359014859    12.000000000000
           H          0.752729925032     0.846185696365    -0.602289014859     1.007825032070
           H          0.192622925032     0.170634696365    -2.104728014859     1.007825032070
           C         -1.578051074968     0.420018696365     0.894449985141    12.000000000000
           H         -1.659426074968     1.266392696365    -1.071972014859     1.007825032070
           H         -1.975613074968    -0.443821303635    -1.037074014859     1.007825032070
           C         -3.020871074968     0.786032696365     1.249048985141    12.000000000000
           H         -0.904860074968     1.161634696365     1.322152985141     1.007825032070
           H         -1.329388074968    -0.526463303635     1.368412985141     1.007825032070
           C         -3.264018074968     0.867946696365     2.755644985141    12.000000000000
           H         -3.273227074968     1.739851696365     0.790753985141     1.007825032070
           H         -3.695634074968     0.051465696365     0.814317985141     1.007825032070
           H         -2.626519074968     1.617879696365     3.215449985141     1.007825032070
           H         -4.294355074968     1.130909696365     2.974486985141     1.007825032070
           H         -3.055796074968    -0.082483303635     3.239060985141     1.007825032070

  Charge       = 0
  Multiplicity = 1
  Basis Set: 6-31G*
  Basis Set:

    Orbital Energies (a.u.)
    -----------------------

    Doubly Occupied:

       1A    -20.546449     2A    -11.266276     3A    -11.221587
       4A    -11.220394     5A    -11.217586     6A    -11.217252
       7A    -11.216485     8A    -11.215676     9A    -11.210575
      10A     -1.359067    11A     -1.097501    12A     -1.062615
      13A     -1.014298    14A     -0.951534    15A     -0.888644
      16A     -0.821961    17A     -0.803394    18A     -0.783422
      19A     -0.704750    20A     -0.647576    21A     -0.633053
      22A     -0.621234    23A     -0.594182    24A     -0.583003
      25A     -0.575854    26A     -0.556098    27A     -0.549869
      28A     -0.529602    29A     -0.522559    30A     -0.497263
      31A     -0.491023    32A     -0.476277    33A     -0.468632
      34A     -0.455847    35A     -0.449118    36A     -0.441716
      37A     -0.417400

  @DF-RHF Final Energy:  -388.26627983174075

   => Energetics <=

    Nuclear Repulsion Energy =            472.7820191159027559
    One-Electron Energy =               -1463.4369677515801413
    Two-Electron Energy =                 602.3886688039334558
    DFT Exchange-Correlation Energy =       0.0000000000000000
    Empirical Dispersion Energy =           0.0000000000000000
    PCM Polarization Energy =               0.0000000000000000
    EFP Energy =                            0.0000000000000000
    Total Energy =                       -388.2662798317438728

  Mulliken Charges: (a.u.)
   Center  Symbol    Alpha    Beta     Spin     Total
       1     H     0.26839  0.26839  0.00000  0.46323
       2     O     4.37373  4.37373  0.00000 -0.74745
       3     C     3.00020  3.00020  0.00000 -0.00041
       4     C     3.16415  3.16415  0.00000 -0.32830
       5     H     0.41413  0.41413  0.00000  0.17173
       6     H     0.43221  0.43221  0.00000  0.13557
       7     C     3.16220  3.16220  0.00000 -0.32439
       8     H     0.41574  0.41574  0.00000  0.16853
       9     H     0.42142  0.42142  0.00000  0.15717
      10     C     3.14297  3.14297  0.00000 -0.28593
      11     H     0.42168  0.42168  0.00000  0.15665
      12     H     0.41792  0.41792  0.00000  0.16417
      13     C     3.15285  3.15285  0.00000 -0.30569
      14     H     0.45684  0.45684  0.00000  0.08633
      15     H     0.41245  0.41245  0.00000  0.17509
      16     C     3.15321  3.15321  0.00000 -0.30642
      17     H     0.42045  0.42045  0.00000  0.15910
      18     H     0.42283  0.42283  0.00000  0.15434
      19     C     3.15118  3.15118  0.00000 -0.30236
      20     H     0.42670  0.42670  0.00000  0.14661
      21     H     0.42186  0.42186  0.00000  0.15629
      22     C     3.23935  3.23935  0.00000 -0.47870
      23     H     0.42253  0.42253  0.00000  0.15495
      24     H     0.42254  0.42254  0.00000  0.15493
      25     H     0.42177  0.42177  0.00000  0.15645
      26     H     0.41881  0.41881  0.00000  0.16239
      27     H     0.42193  0.42193  0.00000  0.15613

   Total alpha = 37.00000, Total beta = 37.00000, Total charge = -0.00000
