  ==> Input File <==

--------------------------------------------------------------------------
set {
	reference rhf
	basis cc-pvtz
}

set_num_threads( 4 )
memory 2 gb

molecule MOL {
0 1

H	 2.262599	 2.526960	 -0.075470
N	 1.474232	 1.921212	 -0.160113
C	 1.860978	 0.530248	 0.016256
H	 1.084323	 2.070351	 -1.067350
C	 0.644130	 -0.381765	 -0.031064
H	 2.338429	 0.439538	 0.986163
H	 2.589332	 0.195353	 -0.723542
C	 -0.678115	 0.376691	 0.025731
H	 0.693998	 -0.977147	 -0.936845
H	 0.693309	 -1.082142	 0.800523
C	 -1.900706	 -0.535531	 -0.022488
H	 -0.725296	 1.079516	 -0.802982
H	 -0.715474	 0.974884	 0.933278
C	 -3.220513	 0.226854	 0.028039
H	 -1.865036	 -1.134397	 -0.928236
H	 -1.857948	 -1.236381	 0.806820
H	 -3.309098	 0.911849	 -0.808725
H	 -4.066838	 -0.449485	 -0.008086
H	 -3.301685	 0.809374	 0.939860

	symmetry c1
}
set optking {
	frozen_dihedral = ("
		6 3 5 9
	")
}

ee = optimize('scf')
oeprop('DIPOLE', 'QUADRUPOLE', 'MULLIKEN_CHARGES')
f=open( 'psi4out.xyz', 'w' )
f.write( "19  " )
f.write( str(ee) + "\n" )
f.write( MOL.save_string_xyz() )
f.close()
--------------------------------------------------------------------------

    Molecular point group: c1
  Charge       = 0
  Multiplicity = 1
  Basis Set: CC-PVTZ
  Basis Set:
  @DF-RHF Final Energy:  -251.43623789130288
    Total Energy =                       -251.4362378913026532
    Molecular point group: c1
  Basis Set: CC-PVTZ
  Basis Set:
  Basis Set: CC-PVTZ
  Basis Set:
  @DF-RHF Final Energy:  -251.43718997629944
    Total Energy =                       -251.4371899762993507
  Basis Set: CC-PVTZ
  Basis Set:
  Basis Set: CC-PVTZ
  Basis Set:
  @DF-RHF Final Energy:  -251.43938883044675
    Total Energy =                       -251.4393888304467737
  Basis Set: CC-PVTZ
  Basis Set:
  Basis Set: CC-PVTZ
  Basis Set:
  @DF-RHF Final Energy:  -251.43958048839306
    Total Energy =                       -251.4395804883934602
  Basis Set: CC-PVTZ
  Basis Set:
  Basis Set: CC-PVTZ
  Basis Set:
  @DF-RHF Final Energy:  -251.43959512860457
    Total Energy =                       -251.4395951286044237
  Basis Set: CC-PVTZ
  Basis Set:
  Basis Set: CC-PVTZ
  Basis Set:
  @DF-RHF Final Energy:  -251.43959812906374
    Total Energy =                       -251.4395981290638247
  Basis Set: CC-PVTZ
  Basis Set:
  Basis Set: CC-PVTZ
  Basis Set:
  @DF-RHF Final Energy:  -251.43959936855978
    Total Energy =                       -251.4395993685597546
  Basis Set: CC-PVTZ
  Basis Set:
  Charge       = 0
  Multiplicity = 1
  Basis Set: CC-PVTZ
  Basis Set:

    Orbital Energies (a.u.)
    -----------------------

    Doubly Occupied:

       1A    -15.527286     2A    -11.239275     3A    -11.208203
       4A    -11.207429     5A    -11.202974     6A    -11.201610
       7A     -1.177969     8A     -1.067644     9A     -0.993880
      10A     -0.905185    11A     -0.812903    12A     -0.777108
      13A     -0.668449    14A     -0.636754    15A     -0.617358
      16A     -0.582952    17A     -0.566468    18A     -0.548827
      19A     -0.527614    20A     -0.497709    21A     -0.476057
      22A     -0.463289    23A     -0.453445    24A     -0.446043
      25A     -0.380583

  @DF-RHF Final Energy:  -251.43959939112654

   => Energetics <=

    Nuclear Repulsion Energy =            249.6856652405534192
    One-Electron Energy =                -833.8764983706511202
    Two-Electron Energy =                 332.7512337389712798
    DFT Exchange-Correlation Energy =       0.0000000000000000
    Empirical Dispersion Energy =           0.0000000000000000
    PCM Polarization Energy =               0.0000000000000000
    EFP Energy =                            0.0000000000000000
    Total Energy =                       -251.4395993911263645
    Molecular point group: c1
  Basis Set: CC-PVTZ
  Basis Set:

  -Total Gradient:
     Atom            X                  Y                   Z
    ------   -----------------  -----------------  -----------------
       1        0.000004818781     0.000002933920    -0.000001415450
       2        0.000004678047     0.000004200285     0.000005316339
       3       -0.002874958293     0.003858863709     0.002645410179
       4       -0.000000642155    -0.000002129407    -0.000001716088
       5       -0.002206735674     0.003613496325    -0.003522571964
       6        0.002781250577    -0.003828797332    -0.001662718146
       7       -0.000000791726     0.000005320916    -0.000000474392
       8       -0.000002848226    -0.000002108625     0.000008959901
       9        0.002299020023    -0.003649219797     0.002549218946
      10       -0.000002419152     0.000000695429    -0.000002044655
      11        0.000000249594    -0.000000182138    -0.000019224439
      12       -0.000003189887    -0.000001920874    -0.000003752037
      13        0.000002910649    -0.000000341999    -0.000002043757
      14       -0.000000216348    -0.000000981872     0.000009940735
      15       -0.000000240574    -0.000002638934    -0.000002266727
      16        0.000000360219     0.000002618880    -0.000002675426
      17        0.000001483689    -0.000003724413    -0.000000477479
      18       -0.000000964102     0.000000247416     0.000003080678
      19       -0.000001765445     0.000003668512    -0.000000546218

  **** Optimization is complete! (in 8 steps) ****
    Final optimized geometry and variables:
    Molecular point group: c1

    Geometry (in Angstrom), charge = 0, multiplicity = 1:

    H            2.754249748564     2.097696440329     0.018604744240
    N            1.922887020266     1.576239468638    -0.161649408474
    C            2.154310740556     0.159124319853     0.071691907112
    H            1.671734933272     1.749182871259    -1.112382143915
    C            0.885190614195    -0.715706261283    -0.032413254280
    H            2.586399923728     0.044466888974     1.058390319442
    H            2.899984598415    -0.250714887308    -0.609420024140
    C           -0.454401722230     0.010221923847     0.048641138439
    H            0.932608908827    -1.316338780961    -0.936231035286
    H            0.924191838446    -1.443192865827     0.773770205553
    C           -1.638951746391    -0.952414597987     0.027793352426
    H           -0.552258821217     0.709986722449    -0.774985986047
    H           -0.487440693589     0.609765881214     0.951883376400
    C           -2.986688153865    -0.241892900572     0.097834605487
    H           -1.598305191155    -1.557040250391    -0.874675425168
    H           -1.555163745267    -1.645380945029     0.860783183324
    H           -3.118346810741     0.431330586515    -0.742828697322
    H           -3.806867410229    -0.950848394783     0.084825537612
    H           -3.071689674952     0.346093359513     1.005602981992

  Mulliken Charges: (a.u.)
   Center  Symbol    Alpha    Beta     Spin     Total
       1     H     0.42914  0.42914  0.00000  0.14173
       2     N     3.68439  3.68439  0.00000 -0.36878
       3     C     3.03522  3.03522  0.00000 -0.07045
       4     H     0.43240  0.43240  0.00000  0.13520
       5     C     3.10611  3.10611  0.00000 -0.21222
       6     H     0.45557  0.45557  0.00000  0.08885
       7     H     0.46173  0.46173  0.00000  0.07654
       8     C     3.07438  3.07438  0.00000 -0.14877
       9     H     0.45222  0.45222  0.00000  0.09556
      10     H     0.45401  0.45401  0.00000  0.09198
      11     C     3.08470  3.08470  0.00000 -0.16940
      12     H     0.45890  0.45890  0.00000  0.08220
      13     H     0.44843  0.44843  0.00000  0.10315
      14     C     3.15002  3.15002  0.00000 -0.30004
      15     H     0.45677  0.45677  0.00000  0.08645
      16     H     0.45568  0.45568  0.00000  0.08864
      17     H     0.45591  0.45591  0.00000  0.08819
      18     H     0.44968  0.44968  0.00000  0.10065
      19     H     0.45474  0.45474  0.00000  0.09052

   Total alpha = 25.00000, Total beta = 25.00000, Total charge =  0.00000
