  ==> Input File <==

--------------------------------------------------------------------------
set {
	reference rhf
	basis 6-31G*
}

set_num_threads( 1 )
memory 2 gb

molecule MOL {
0 1

O	 1.603174	 3.334436	 -1.764532
C	 0.903313	 3.211091	 -2.722519
C	 -0.371728	 2.387478	 -2.693015
C	 1.246008	 3.874511	 -4.040696
C	 -0.664463	 1.742939	 -1.341309
H	 -1.193464	 3.034581	 -2.996981
H	 -0.297528	 1.630372	 -3.472557
C	 -1.955439	 0.922535	 -1.350263
H	 -0.724503	 2.517579	 -0.583378
H	 0.172296	 1.111600	 -1.059542
C	 -2.259874	 0.272531	 0.000494
H	 -2.789867	 1.560947	 -1.636982
H	 -1.889100	 0.148629	 -2.113634
C	 -3.549786	 -0.549746	 -0.000374
H	 -2.327112	 1.045311	 0.764240
H	 -1.426781	 -0.366575	 0.287715
C	 -4.809590	 0.315458	 -0.000369
H	 -3.560515	 -1.202009	 -0.871156
H	 -3.561123	 -1.202955	 0.869711
H	 -4.844746	 0.956611	 -0.876632
H	 -5.706986	 -0.295590	 -0.001609
H	 -4.845960	 0.954827	 0.877144
H	 0.448506	 4.545716	 -4.345807
H	 2.167512	 4.430928	 -3.940370
H	 1.356207	 3.128748	 -4.822571

	symmetry c1
}
set optking {
	frozen_dihedral = ("
		9 5 8 12,
		15 11 8 12,
		1 2 3 6,
		9 5 3 6
	")
}

ee = energy('scf')
oeprop('DIPOLE', 'QUADRUPOLE', 'MULLIKEN_CHARGES')
f=open( 'psi4out.xyz', 'w' )
f.write( "25  " )
f.write( str(ee) + "\n" )
f.write( MOL.save_string_xyz() )
f.close()
--------------------------------------------------------------------------

    Molecular point group: c1

    Geometry (in Angstrom), charge = 0, multiplicity = 1:

       Center              X                  Y                   Z               Mass
    ------------   -----------------  -----------------  -----------------  -----------------
           O          2.704846034814     1.604602682379    -0.218250582005    15.994914619560
           C          2.004985034814     1.481257682379    -1.176237582005    12.000000000000
           C          0.729944034814     0.657644682379    -1.146733582005    12.000000000000
           C          2.347680034814     2.144677682379    -2.494414582005    12.000000000000
           C          0.437209034814     0.013105682379     0.204972417995    12.000000000000
           H         -0.091791965186     1.304747682379    -1.450699582005     1.007825032070
           H          0.804144034814    -0.099461317621    -1.926275582005     1.007825032070
           C         -0.853766965186    -0.807298317621     0.196018417995    12.000000000000
           H          0.377169034814     0.787745682379     0.962903417995     1.007825032070
           H          1.273968034814    -0.618233317621     0.486739417995     1.007825032070
           C         -1.158201965186    -1.457302317621     1.546775417995    12.000000000000
           H         -1.688194965186    -0.168886317621    -0.090700582005     1.007825032070
           H         -0.787427965186    -1.581204317621    -0.567352582005     1.007825032070
           C         -2.448113965186    -2.279579317621     1.545907417995    12.000000000000
           H         -1.225439965186    -0.684522317621     2.310521417995     1.007825032070
           H         -0.325108965186    -2.096408317621     1.833996417995     1.007825032070
           C         -3.707917965186    -1.414375317621     1.545912417995    12.000000000000
           H         -2.458842965186    -2.931842317621     0.675125417995     1.007825032070
           H         -2.459450965186    -2.932788317621     2.415992417995     1.007825032070
           H         -3.743073965186    -0.773222317621     0.669649417995     1.007825032070
           H         -4.605313965186    -2.025423317621     1.544672417995     1.007825032070
           H         -3.744287965186    -0.775006317621     2.423425417995     1.007825032070
           H          1.550178034814     2.815882682379    -2.799525582005     1.007825032070
           H          3.269184034814     2.701094682379    -2.394088582005     1.007825032070
           H          2.457879034814     1.398914682379    -3.276289582005     1.007825032070

  Charge       = 0
  Multiplicity = 1
  Basis Set: 6-31G*
  Basis Set:

    Orbital Energies (a.u.)
    -----------------------

    Doubly Occupied:

       1A    -20.550456     2A    -11.326282     3A    -11.231896
       4A    -11.228341     5A    -11.216932     6A    -11.216285
       7A    -11.215203     8A    -11.213237     9A    -11.208714
      10A     -1.395754    11A     -1.094421    12A     -1.056634
      13A     -1.013563    14A     -0.966982    15A     -0.894555
      16A     -0.822065    17A     -0.781600    18A     -0.729644
      19A     -0.658137    20A     -0.653275    21A     -0.625251
      22A     -0.619536    23A     -0.611433    24A     -0.589736
      25A     -0.567747    26A     -0.556448    27A     -0.540121
      28A     -0.521787    29A     -0.514817    30A     -0.492831
      31A     -0.487765    32A     -0.477135    33A     -0.463521
      34A     -0.455261    35A     -0.450554    36A     -0.399455

  @DF-RHF Final Energy:  -387.13444466146433

   => Energetics <=

    Nuclear Repulsion Energy =            442.8646283566322950
    One-Electron Energy =               -1402.3036868012366085
    Two-Electron Energy =                 572.3046137831418037
    DFT Exchange-Correlation Energy =       0.0000000000000000
    Empirical Dispersion Energy =           0.0000000000000000
    PCM Polarization Energy =               0.0000000000000000
    EFP Energy =                            0.0000000000000000
    Total Energy =                       -387.1344446614625667

  Mulliken Charges: (a.u.)
   Center  Symbol    Alpha    Beta     Spin     Total
       1     O     4.26115  4.26115  0.00000 -0.52230
       2     C     2.73573  2.73573  0.00000  0.52854
       3     C     3.21080  3.21080  0.00000 -0.42160
       4     C     3.28663  3.28663  0.00000 -0.57326
       5     C     3.14744  3.14744  0.00000 -0.29488
       6     H     0.41007  0.41007  0.00000  0.17986
       7     H     0.41005  0.41005  0.00000  0.17991
       8     C     3.15572  3.15572  0.00000 -0.31143
       9     H     0.41214  0.41214  0.00000  0.17572
      10     H     0.41221  0.41221  0.00000  0.17558
      11     C     3.15317  3.15317  0.00000 -0.30634
      12     H     0.42351  0.42351  0.00000  0.15299
      13     H     0.42485  0.42485  0.00000  0.15030
      14     C     3.15351  3.15351  0.00000 -0.30703
      15     H     0.42234  0.42234  0.00000  0.15532
      16     H     0.42033  0.42033  0.00000  0.15935
      17     C     3.24096  3.24096  0.00000 -0.48193
      18     H     0.42352  0.42352  0.00000  0.15295
      19     H     0.41996  0.41996  0.00000  0.16008
      20     H     0.42158  0.42158  0.00000  0.15684
      21     H     0.41916  0.41916  0.00000  0.16168
      22     H     0.42126  0.42126  0.00000  0.15748
      23     H     0.40875  0.40875  0.00000  0.18251
      24     H     0.39645  0.39645  0.00000  0.20709
      25     H     0.40871  0.40871  0.00000  0.18259

   Total alpha = 36.00000, Total beta = 36.00000, Total charge =  0.00000
