                              Psi4 1.0.54 Driver

  ==> Input File <==

--------------------------------------------------------------------------
set {
	reference rhf
	basis cc-pvtz
}

set_num_threads( 4 )
memory 2 gb

molecule MOL {
0 1

H	 -2.685112	 -0.569975	 1.380822
C	 -2.640116	 -0.566171	 0.294156
O	 -1.335881	 -0.424247	 -0.160123
H	 -3.017205	 -1.509657	 -0.072621
H	 -3.281058	 0.233058	 -0.073690
C	 -0.718530	 0.758693	 0.228682
C	 0.718529	 0.758687	 -0.228709
H	 -1.229543	 1.613976	 -0.213274
H	 -0.749521	 0.871656	 1.310213
O	 1.401606	 -0.295166	 0.366636
H	 0.748705	 0.673477	 -1.312803
H	 1.176496	 1.708671	 0.046552
C	 2.714315	 -0.441627	 -0.061017
H	 2.765292	 -0.641548	 -1.128869
H	 3.305661	 0.447341	 0.150952
H	 3.143725	 -1.278506	 0.470147

	symmetry c1
}
set optking {
	frozen_dihedral = ("
		3 6 7 11
	")
}

ee,wfn = optimize('scf', return_wfn=True)
oeprop( wfn, 'DIPOLE', 'QUADRUPOLE', 'MULLIKEN_CHARGES')
f=open( 'psi4out.xyz', 'w' )
f.write( "16  " )
f.write( str(ee) + "\n" )
f.write( MOL.save_string_xyz() )
f.close()
--------------------------------------------------------------------------

    Molecular point group: c1
  Charge       = 0
  Multiplicity = 1
  Basis Set: CC-PVTZ
  Basis Set:
  @DF-RHF Final Energy:  -307.09728416441737
    Total Energy =                       -307.0972841644173172
    Molecular point group: c1
  Basis Set: CC-PVTZ
  Basis Set:
  Basis Set: CC-PVTZ
  Basis Set:
  @DF-RHF Final Energy:  -307.09739088958969
    Total Energy =                       -307.0973908895896329
  Basis Set: CC-PVTZ
  Basis Set:
  Basis Set: CC-PVTZ
  Basis Set:
  @DF-RHF Final Energy:  -307.09740698468482
    Total Energy =                       -307.0974069846847101
  Basis Set: CC-PVTZ
  Basis Set:
  Charge       = 0
  Multiplicity = 1
  Basis Set: CC-PVTZ
  Basis Set:

    Orbital Energies (a.u.)
    -----------------------

    Doubly Occupied:

       1A    -20.547954     2A    -20.547218     3A    -11.268023
       4A    -11.267344     5A    -11.261713     6A    -11.261349
       7A     -1.392582     8A     -1.374407     9A     -1.032163
      10A     -0.936843    11A     -0.894041    12A     -0.822794
      13A     -0.687526    14A     -0.681731    15A     -0.660166
      16A     -0.640506    17A     -0.629830    18A     -0.597976
      19A     -0.556031    20A     -0.531280    21A     -0.509976
      22A     -0.479106    23A     -0.465518    24A     -0.420468
      25A     -0.415023

  @DF-RHF Final Energy:  -307.09740754360826

   => Energetics <=

    Nuclear Repulsion Energy =            259.3579174410500627
    One-Electron Energy =                -933.1475150630817552
    Two-Electron Energy =                 366.6921900784234367
    DFT Exchange-Correlation Energy =       0.0000000000000000
    Empirical Dispersion Energy =           0.0000000000000000
    PCM Polarization Energy =               0.0000000000000000
    EFP Energy =                            0.0000000000000000
    Total Energy =                       -307.0974075436082558
    Molecular point group: c1
  Basis Set: CC-PVTZ
  Basis Set:

  -Total Gradient:
     Atom            X                  Y                   Z
    ------   -----------------  -----------------  -----------------
       1       -0.000007438398    -0.000003024703     0.000006094546
       2        0.000019402106     0.000038959825     0.000018057105
       3        0.000649238178    -0.001020521089     0.001963820400
       4        0.000015877718     0.000002895617    -0.000007662263
       5       -0.000007119965    -0.000005303925    -0.000002804339
       6       -0.000843770053     0.002064141819    -0.002641761649
       7        0.000184985860    -0.004011347130     0.000847382839
       8       -0.000002349922    -0.000029763433    -0.000011637469
       9        0.000001657228     0.000005026702     0.000008677894
      10        0.000011389816    -0.000011217297    -0.000002459386
      11       -0.000029997683     0.002964962308    -0.000197924594
      12        0.000008109052    -0.000004834086     0.000008603199
      13       -0.000025315485     0.000016051163     0.000013516141
      14       -0.000006624692    -0.000000901114     0.000002558126
      15        0.000016354071     0.000001745636    -0.000003884445
      16        0.000015602168    -0.000006870293    -0.000000576105

  **** Optimization is complete! (in 4 steps) ****
    Final optimized geometry and variables:
    Molecular point group: c1

    Geometry (in Angstrom), charge = 0, multiplicity = 1:

    H           -2.735841953674    -0.505571451225     1.295821083856
    C           -2.682483414724    -0.509572765271     0.209384806493
    O           -1.373039125551    -0.388433428473    -0.235271496566
    H           -3.069078213020    -1.450495715958    -0.153949073484
    H           -3.310186052258     0.295484408883    -0.168476920757
    C           -0.741380937272     0.783810803570     0.157633278218
    C            0.692735922410     0.780707231507    -0.309029439866
    H           -1.243566711903     1.653503154396    -0.266019557734
    H           -0.764590843006     0.880190617757     1.241736892912
    O            1.390729065778    -0.255949022130     0.291827895123
    H            0.724659307248     0.706232802880    -1.394577801326
    H            1.136645342828     1.741093056954    -0.042409169657
    C            2.711655078983    -0.371102489016    -0.119949604345
    H            2.780045114424    -0.564846457143    -1.187982615671
    H            3.280435690877     0.529743267813     0.103288558231
    H            3.152591979326    -1.200915413922     0.412736046425

  Mulliken Charges: (a.u.)
   Center  Symbol    Alpha    Beta     Spin     Total
       1     H     0.47077  0.47077  0.00000  0.05846
       2     C     3.03200  3.03200  0.00000 -0.06400
       3     O     4.16822  4.16822  0.00000 -0.33643
       4     H     0.44612  0.44612  0.00000  0.10775
       5     H     0.47367  0.47367  0.00000  0.05265
       6     C     2.96179  2.96179  0.00000  0.07643
       7     C     2.96132  2.96132  0.00000  0.07736
       8     H     0.47576  0.47576  0.00000  0.04848
       9     H     0.47186  0.47186  0.00000  0.05628
      10     O     4.16753  4.16753  0.00000 -0.33505
      11     H     0.47173  0.47173  0.00000  0.05655
      12     H     0.47710  0.47710  0.00000  0.04581
      13     C     3.03216  3.03216  0.00000 -0.06433
      14     H     0.47035  0.47035  0.00000  0.05930
      15     H     0.47357  0.47357  0.00000  0.05287
      16     H     0.44606  0.44606  0.00000  0.10788

   Total alpha = 25.00000, Total beta = 25.00000, Total charge =  0.00000

*** Psi4 exiting successfully. Buy a developer a beer!
