  ==> Input File <==

--------------------------------------------------------------------------
set {
	reference rhf
	basis cc-pvtz
}

set_num_threads( 4 )
memory 2 gb

molecule MOL {
0 1

H	 2.905802	 1.730154	 -1.258553
N	 2.141834	 1.089441	 -1.296711
C	 1.860978	 0.530248	 0.016256
H	 2.391962	 0.371119	 -1.943857
C	 0.644130	 -0.381765	 -0.031064
H	 1.663501	 1.355297	 0.692425
H	 2.705840	 -0.020081	 0.432551
C	 -0.678115	 0.376691	 0.025731
H	 0.693998	 -0.977147	 -0.936845
H	 0.693309	 -1.082142	 0.800523
C	 -1.900706	 -0.535531	 -0.022488
H	 -0.725296	 1.079516	 -0.802982
H	 -0.715474	 0.974884	 0.933278
C	 -3.220513	 0.226854	 0.028039
H	 -1.865036	 -1.134397	 -0.928236
H	 -1.857948	 -1.236381	 0.806820
H	 -3.309098	 0.911849	 -0.808725
H	 -4.066838	 -0.449485	 -0.008086
H	 -3.301685	 0.809374	 0.939860

	symmetry c1
}
set optking {
	frozen_dihedral = ("
		6 3 5 9
	")
}

ee = optimize('scf')
oeprop('DIPOLE', 'QUADRUPOLE', 'MULLIKEN_CHARGES')
f=open( 'psi4out.xyz', 'w' )
f.write( "19  " )
f.write( str(ee) + "\n" )
f.write( MOL.save_string_xyz() )
f.close()
--------------------------------------------------------------------------

    Molecular point group: c1
  Charge       = 0
  Multiplicity = 1
  Basis Set: CC-PVTZ
  Basis Set:
  @DF-RHF Final Energy:  -251.44630340292528
    Total Energy =                       -251.4463034029251958
    Molecular point group: c1
  Basis Set: CC-PVTZ
  Basis Set:
  Basis Set: CC-PVTZ
  Basis Set:
  @DF-RHF Final Energy:  -251.44661902917889
    Total Energy =                       -251.4466190291790326
  Basis Set: CC-PVTZ
  Basis Set:
  Basis Set: CC-PVTZ
  Basis Set:
  @DF-RHF Final Energy:  -251.44668026119712
    Total Energy =                       -251.4466802611971730
  Basis Set: CC-PVTZ
  Basis Set:
  Basis Set: CC-PVTZ
  Basis Set:
  @DF-RHF Final Energy:  -251.44668300159404
    Total Energy =                       -251.4466830015941241
  Basis Set: CC-PVTZ
  Basis Set:
  Charge       = 0
  Multiplicity = 1
  Basis Set: CC-PVTZ
  Basis Set:

    Orbital Energies (a.u.)
    -----------------------

    Doubly Occupied:

       1A    -15.527167     2A    -11.238730     3A    -11.208112
       4A    -11.207628     5A    -11.202514     6A    -11.201750
       7A     -1.178567     8A     -1.068800     9A     -0.996268
      10A     -0.900880    11A     -0.812160    12A     -0.783783
      13A     -0.665643    14A     -0.641025    15A     -0.616328
      16A     -0.586940    17A     -0.559629    18A     -0.546341
      19A     -0.534189    20A     -0.489102    21A     -0.484034
      22A     -0.459642    23A     -0.458057    24A     -0.451349
      25A     -0.382076

  @DF-RHF Final Energy:  -251.44668330409598

   => Energetics <=

    Nuclear Repulsion Energy =            248.9098797891612662
    One-Electron Energy =                -832.3117049260185922
    Two-Electron Energy =                 331.9551418327613419
    DFT Exchange-Correlation Energy =       0.0000000000000000
    Empirical Dispersion Energy =           0.0000000000000000
    PCM Polarization Energy =               0.0000000000000000
    EFP Energy =                            0.0000000000000000
    Total Energy =                       -251.4466833040959273
    Molecular point group: c1
  Basis Set: CC-PVTZ
  Basis Set:

  -Total Gradient:
     Atom            X                  Y                   Z
    ------   -----------------  -----------------  -----------------
       1        0.000000232269    -0.000002852150    -0.000002647496
       2        0.000018502054     0.000011314653    -0.000007956473
       3        0.001142074427    -0.001501497378     0.002583521570
       4       -0.000000992357     0.000001149736     0.000007292981
       5        0.001715458868    -0.002286755693     0.001328310391
       6       -0.001227425038     0.001596555445    -0.002374545008
       7       -0.000012450682     0.000008249651    -0.000010276165
       8       -0.000016276747     0.000025410575     0.000001802616
       9       -0.001617901155     0.002162711887    -0.001512502978
      10        0.000003671647    -0.000003556142    -0.000001070366
      11        0.000004558989    -0.000000037514    -0.000024492013
      12       -0.000002707476    -0.000007983915     0.000003010998
      13        0.000007877241     0.000000374686     0.000002341513
      14       -0.000009590761    -0.000006003625     0.000012686955
      15       -0.000002776965    -0.000006403162    -0.000001645690
      16       -0.000000168051     0.000006958695    -0.000005897380
      17        0.000002157219    -0.000005001180    -0.000003158855
      18       -0.000002675475     0.000002830171     0.000005204014
      19       -0.000001568013     0.000004535260     0.000000021385

  **** Optimization is complete! (in 5 steps) ****
    Final optimized geometry and variables:
    Molecular point group: c1

    Geometry (in Angstrom), charge = 0, multiplicity = 1:

    H            2.978697778964     1.536403186914    -1.081300936261
    N            2.260502032630     0.843925508351    -1.090326904158
    C            2.042083136517     0.293634030976     0.241289624573
    H            2.545546412166     0.130434128210    -1.728102438838
    C            0.817638592006    -0.618834869514     0.254001395121
    H            1.869580621293     1.135331501458     0.903227442861
    H            2.908229933648    -0.247111677868     0.619369659484
    C           -0.504555497926     0.144858102695     0.283883735064
    H            0.837373404413    -1.236875056801    -0.640607840970
    H            0.872265842097    -1.288849769787     1.106838478664
    C           -1.728575315256    -0.760694242419     0.185180217090
    H           -0.515510797987     0.861527848542    -0.530380309958
    H           -0.561081658134     0.721371711551     1.204748738130
    C           -3.045969452965     0.006050058304     0.236244673001
    H           -1.680069830332    -1.329331051551    -0.739644729962
    H           -1.705474493712    -1.489563443221     0.991402959967
    H           -3.113457136398     0.720199201351    -0.577638877303
    H           -3.895048491129    -0.663788324406     0.160176502320
    H           -3.142132840044     0.557184209634     1.165960976305

  Mulliken Charges: (a.u.)
   Center  Symbol    Alpha    Beta     Spin     Total
       1     H     0.42863  0.42863  0.00000  0.14274
       2     N     3.69245  3.69245  0.00000 -0.38491
       3     C     3.03678  3.03678  0.00000 -0.07356
       4     H     0.43101  0.43101  0.00000  0.13798
       5     C     3.08648  3.08648  0.00000 -0.17295
       6     H     0.45777  0.45777  0.00000  0.08446
       7     H     0.45854  0.45854  0.00000  0.08291
       8     C     3.08379  3.08379  0.00000 -0.16758
       9     H     0.46030  0.46030  0.00000  0.07939
      10     H     0.45135  0.45135  0.00000  0.09730
      11     C     3.08465  3.08465  0.00000 -0.16930
      12     H     0.44755  0.44755  0.00000  0.10489
      13     H     0.45870  0.45870  0.00000  0.08261
      14     C     3.14983  3.14983  0.00000 -0.29967
      15     H     0.45516  0.45516  0.00000  0.08968
      16     H     0.45690  0.45690  0.00000  0.08621
      17     H     0.45455  0.45455  0.00000  0.09089
      18     H     0.44962  0.44962  0.00000  0.10076
      19     H     0.45593  0.45593  0.00000  0.08814

   Total alpha = 25.00000, Total beta = 25.00000, Total charge =  0.00000
