  ==> Input File <==

--------------------------------------------------------------------------
set {
	reference rhf
	basis cc-pvtz
}

set_num_threads( 4 )
memory 2 gb

molecule MOL {
0 1

H	 2.828711	 -0.346904	 0.001083
C	 1.876752	 0.015931	 -0.363450
C	 0.776285	 -0.474665	 0.563092
H	 1.728113	 -0.357244	 -1.367440
H	 1.906171	 1.096574	 -0.386153
N	 -0.540022	 0.017605	 0.071630
H	 0.707111	 -1.548969	 0.573035
H	 0.886169	 -0.084184	 1.560432
O	 -0.583064	 1.125702	 -0.346058
O	 -1.461608	 -0.722414	 0.157927

	symmetry c1
}
set optking {
	frozen_dihedral = ("
		9 6 3 2
	")
}

ee = optimize('scf')
oeprop('DIPOLE', 'QUADRUPOLE', 'MULLIKEN_CHARGES')
f=open( 'psi4out.xyz', 'w' )
f.write( "10  " )
f.write( str(ee) + "\n" )
f.write( MOL.save_string_xyz() )
f.close()
--------------------------------------------------------------------------

    Molecular point group: c1
  Charge       = 0
  Multiplicity = 1
  Basis Set: CC-PVTZ
  Basis Set:
  @DF-RHF Final Energy:  -282.81232105011918
    Total Energy =                       -282.8123210501191807
    Molecular point group: c1
  Basis Set: CC-PVTZ
  Basis Set:
  Basis Set: CC-PVTZ
  Basis Set:
  @DF-RHF Final Energy:  -282.81205380960091
    Total Energy =                       -282.8120538096010250
  Basis Set: CC-PVTZ
  Basis Set:
  Basis Set: CC-PVTZ
  Basis Set:
  @DF-RHF Final Energy:  -282.80884779810629
    Total Energy =                       -282.8088477981062852
  Basis Set: CC-PVTZ
  Basis Set:
  Basis Set: CC-PVTZ
  Basis Set:
  @DF-RHF Final Energy:  -282.81295163993462
    Total Energy =                       -282.8129516399345675
  Basis Set: CC-PVTZ
  Basis Set:
  Basis Set: CC-PVTZ
  Basis Set:
  @DF-RHF Final Energy:  -282.81302877013127
    Total Energy =                       -282.8130287701313819
  Basis Set: CC-PVTZ
  Basis Set:
  Basis Set: CC-PVTZ
  Basis Set:
  @DF-RHF Final Energy:  -282.81303947290485
    Total Energy =                       -282.8130394729048476
  Basis Set: CC-PVTZ
  Basis Set:
  Charge       = 0
  Multiplicity = 1
  Basis Set: CC-PVTZ
  Basis Set:

    Orbital Energies (a.u.)
    -----------------------

    Doubly Occupied:

       1A    -20.592691     2A    -20.591799     3A    -15.839241
       4A    -11.302729     5A    -11.245806     6A     -1.638379
       7A     -1.422673     8A     -1.124599     9A     -0.966994
      10A     -0.836723    11A     -0.764706    12A     -0.746279
      13A     -0.731714    14A     -0.648167    15A     -0.592114
      16A     -0.563701    17A     -0.540417    18A     -0.489812
      19A     -0.479516    20A     -0.455981

  @DF-RHF Final Energy:  -282.81304005870766

   => Energetics <=

    Nuclear Repulsion Energy =            186.5826718712309287
    One-Electron Energy =                -755.6433446918520076
    Two-Electron Energy =                 286.2476327619132803
    DFT Exchange-Correlation Energy =       0.0000000000000000
    Empirical Dispersion Energy =           0.0000000000000000
    PCM Polarization Energy =               0.0000000000000000
    EFP Energy =                            0.0000000000000000
    Total Energy =                       -282.8130400587078270
    Molecular point group: c1
  Basis Set: CC-PVTZ
  Basis Set:

  -Total Gradient:
     Atom            X                  Y                   Z
    ------   -----------------  -----------------  -----------------
       1        0.000004012099     0.000000955778    -0.000002258574
       2        0.000028500684     0.000171022662     0.000083776788
       3       -0.000014456324    -0.000261940629    -0.000230417496
       4        0.000011321915     0.000006111450     0.000000956525
       5        0.000005399567     0.000003590378    -0.000007547680
       6       -0.000155860857     0.000224858840     0.000367075983
       7       -0.000043062846     0.000006468403     0.000000626007
       8       -0.000021333932     0.000010152654    -0.000010201949
       9        0.000157153901    -0.000043274133    -0.000234506626
      10        0.000028325790    -0.000117945402     0.000032497022

  **** Optimization is complete! (in 7 steps) ****
    Final optimized geometry and variables:
    Molecular point group: c1

    Geometry (in Angstrom), charge = 0, multiplicity = 1:

    H            2.848523665040    -0.375687782535    -0.004061227029
    C            1.913524826048     0.018969957537    -0.381413194738
    C            0.794172008943    -0.459715907806     0.518995149202
    H            1.778174546412    -0.337994637726    -1.394045421873
    H            1.970036649667     1.096048703177    -0.397622179783
    N           -0.544684626540     0.019257653269     0.063387502865
    H            0.713636262475    -1.531593818229     0.562913096870
    H            0.892766358807    -0.069632445602     1.522389444300
    O           -0.622570083469     1.129628980049    -0.342296316179
    O           -1.448865180145    -0.739024665659     0.165337385759

  Mulliken Charges: (a.u.)
   Center  Symbol    Alpha    Beta     Spin     Total
       1     H     0.44918  0.44918  0.00000  0.10163
       2     C     3.14068  3.14068  0.00000 -0.28136
       3     C     3.04049  3.04049  0.00000 -0.08098
       4     H     0.44529  0.44529  0.00000  0.10943
       5     H     0.43658  0.43658  0.00000  0.12684
       6     N     3.27745  3.27745  0.00000  0.44511
       7     H     0.43129  0.43129  0.00000  0.13741
       8     H     0.43707  0.43707  0.00000  0.12586
       9     O     4.17229  4.17229  0.00000 -0.34457
      10     O     4.16969  4.16969  0.00000 -0.33938

   Total alpha = 20.00000, Total beta = 20.00000, Total charge =  0.00000
