                              Psi4 1.0.54 Driver

  ==> Input File <==

--------------------------------------------------------------------------
set {
	reference rhf
	basis cc-pvtz
}

set_num_threads( 4 )
memory 2 gb

molecule MOL {
0 1

H	 2.583711	 1.695997	 -1.195640
C	 1.867201	 1.521464	 -0.403534
C	 1.322304	 0.099773	 -0.484271
H	 2.367851	 1.698614	 0.541631
H	 1.074475	 2.253885	 -0.505932
C	 0.308557	 -0.162619	 0.622645
H	 2.130978	 -0.615109	 -0.396386
H	 0.845249	 -0.062824	 -1.442873
N	 -1.069352	 -0.004081	 0.085342
H	 0.371632	 -1.172932	 0.991288
H	 0.400391	 0.548875	 1.426218
O	 -1.584901	 -0.965470	 -0.377818
O	 -1.548033	 1.079343	 0.130056

	symmetry c1
}
set optking {
	frozen_dihedral = ("
		7 3 6 9
	")
}

ee,wfn = optimize('scf', return_wfn=True)
oeprop( wfn, 'DIPOLE', 'QUADRUPOLE', 'MULLIKEN_CHARGES')
f=open( 'psi4out.xyz', 'w' )
f.write( "13  " )
f.write( str(ee) + "\n" )
f.write( MOL.save_string_xyz() )
f.close()
--------------------------------------------------------------------------

    Molecular point group: c1
  Charge       = 0
  Multiplicity = 1
  Basis Set: CC-PVTZ
  Basis Set:
  @DF-RHF Final Energy:  -321.85706767712884
    Total Energy =                       -321.8570676771289527
    Molecular point group: c1
  Basis Set: CC-PVTZ
  Basis Set:
  Basis Set: CC-PVTZ
  Basis Set:
  @DF-RHF Final Energy:  -321.85666662822211
    Total Energy =                       -321.8566666282222855
  Basis Set: CC-PVTZ
  Basis Set:
  Basis Set: CC-PVTZ
  Basis Set:
  @DF-RHF Final Energy:  -321.85195079303003
    Total Energy =                       -321.8519507930299142
  Basis Set: CC-PVTZ
  Basis Set:
  Basis Set: CC-PVTZ
  Basis Set:
  @DF-RHF Final Energy:  -321.85743634990575
    Total Energy =                       -321.8574363499056972
  Basis Set: CC-PVTZ
  Basis Set:
  Basis Set: CC-PVTZ
  Basis Set:
  @DF-RHF Final Energy:  -321.85762250191249
    Total Energy =                       -321.8576225019124308
  Basis Set: CC-PVTZ
  Basis Set:
  Basis Set: CC-PVTZ
  Basis Set:
  @DF-RHF Final Energy:  -321.85780128217948
    Total Energy =                       -321.8578012821795369
  Basis Set: CC-PVTZ
  Basis Set:
  Charge       = 0
  Multiplicity = 1
  Basis Set: CC-PVTZ
  Basis Set:

    Orbital Energies (a.u.)
    -----------------------

    Doubly Occupied:

       1A    -20.590783     2A    -20.590604     3A    -15.837059
       4A    -11.297659     5A    -11.255193     6A    -11.229932
       7A     -1.636170     8A     -1.420310     9A     -1.131863
      10A     -1.024148    11A     -0.888082    12A     -0.831545
      13A     -0.763238    14A     -0.737882    15A     -0.727276
      16A     -0.649062    17A     -0.623960    18A     -0.593419
      19A     -0.529995    20A     -0.525614    21A     -0.514322
      22A     -0.484685    23A     -0.473509    24A     -0.453935

  @DF-RHF Final Energy:  -321.85780177202372

   => Energetics <=

    Nuclear Repulsion Energy =            250.7878548762762989
    One-Electron Energy =                -935.6708188747468284
    Two-Electron Energy =                 363.0251622264465823
    DFT Exchange-Correlation Energy =       0.0000000000000000
    Empirical Dispersion Energy =           0.0000000000000000
    PCM Polarization Energy =               0.0000000000000000
    EFP Energy =                            0.0000000000000000
    Total Energy =                       -321.8578017720240041
    Molecular point group: c1
  Basis Set: CC-PVTZ
  Basis Set:

  -Total Gradient:
     Atom            X                  Y                   Z
    ------   -----------------  -----------------  -----------------
       1       -0.000002870881    -0.000002488618    -0.000003261259
       2        0.000023475174     0.000035756115     0.000015192014
       3        0.001957407484     0.001704019273     0.002791799503
       4        0.000001975970     0.000010604973    -0.000000672052
       5        0.000002122666     0.000015265296     0.000003418234
       6       -0.000459389588     0.002918246800     0.000678613384
       7       -0.001606282968    -0.002147161465    -0.002531476340
       8       -0.000011303268    -0.000003086136     0.000006924168
       9        0.000266252517    -0.002478232166    -0.000844363022
      10        0.000037770018    -0.000005971164     0.000021307241
      11        0.000033360758     0.000001372183     0.000008001646
      12       -0.000131350617     0.000019044495    -0.000070979218
      13       -0.000111167265    -0.000067369585    -0.000074504302

  **** Optimization is complete! (in 7 steps) ****
    Final optimized geometry and variables:
    Molecular point group: c1

    Geometry (in Angstrom), charge = 0, multiplicity = 1:

    H            2.704546994320     1.637766706040    -0.935333187021
    C            1.977215537261     1.386481863024    -0.173461302816
    C            1.502545454087    -0.051027555366    -0.343477675350
    H            2.445095438950     1.531077417733     0.793991610042
    H            1.150862856841     2.081345991919    -0.254011926550
    C            0.444723749014    -0.482024676697     0.682684336484
    H            2.329875786402    -0.746160078638    -0.275984088797
    H            1.093956609731    -0.194324692741    -1.336893658339
    N           -0.916975598397    -0.328633325378     0.102790638147
    H            0.529794527136    -1.526658122604     0.926323746832
    H            0.465220205597     0.121587141907     1.574320074654
    O           -1.366001227596    -1.257838386641    -0.479629435922
    O           -1.450929808706     0.722253032156     0.234264266985

  Mulliken Charges: (a.u.)
   Center  Symbol    Alpha    Beta     Spin     Total
       1     H     0.44606  0.44606  0.00000  0.10788
       2     C     3.14498  3.14498  0.00000 -0.28996
       3     C     3.09283  3.09283  0.00000 -0.18567
       4     H     0.45506  0.45506  0.00000  0.08988
       5     H     0.44254  0.44254  0.00000  0.11492
       6     C     3.04630  3.04630  0.00000 -0.09260
       7     H     0.44449  0.44449  0.00000  0.11102
       8     H     0.44028  0.44028  0.00000  0.11944
       9     N     3.27773  3.27773  0.00000  0.44454
      10     H     0.42753  0.42753  0.00000  0.14494
      11     H     0.43609  0.43609  0.00000  0.12781
      12     O     4.17184  4.17184  0.00000 -0.34368
      13     O     4.17426  4.17426  0.00000 -0.34853

   Total alpha = 24.00000, Total beta = 24.00000, Total charge = -0.00000

*** Psi4 exiting successfully. Buy a developer a beer!
