                              Psi4 1.0.54 Driver

  ==> Input File <==

--------------------------------------------------------------------------
set {
	reference rhf
	basis cc-pvtz
}

set_num_threads( 4 )
memory 2 gb

molecule MOL {
0 1

O	 1.216069	 1.304886	 0.000821
C	 1.121787	 0.124983	 0.000110
C	 -0.170912	 -0.649867	 -0.000147
O	 2.167739	 -0.685178	 -0.000678
C	 -1.413045	 0.229353	 0.001137
H	 -0.152877	 -1.303435	 -0.866175
H	 -0.152278	 -1.305116	 0.864586
C	 -1.158826	 1.593610	 0.635553
H	 -2.211046	 -0.278933	 0.530646
H	 -1.762408	 0.357240	 -1.017261
C	 -2.397881	 2.482182	 0.644131
H	 -0.805848	 1.458879	 1.654619
H	 -0.358231	 2.098019	 0.100898
H	 -3.205916	 2.020233	 1.201147
H	 -2.188225	 3.442935	 1.099843
H	 -2.754988	 2.664126	 -0.363814
C	 3.449556	 -0.089977	 -0.000570
H	 3.585694	 0.522473	 -0.879546
H	 4.155805	 -0.904274	 -0.001389
H	 3.586173	 0.521118	 0.879272

	symmetry c1
}
set optking {
	frozen_dihedral = ("
		9 5 3 6
	")
}

ee,wfn = optimize('scf', return_wfn=True)
oeprop( wfn, 'DIPOLE', 'QUADRUPOLE', 'MULLIKEN_CHARGES')
f=open( 'psi4out.xyz', 'w' )
f.write( "20  " )
f.write( str(ee) + "\n" )
f.write( MOL.save_string_xyz() )
f.close()
--------------------------------------------------------------------------

    Molecular point group: c1
  Charge       = 0
  Multiplicity = 1
  Basis Set: CC-PVTZ
  Basis Set:
  @DF-RHF Final Energy:  -384.05398476653977
    Total Energy =                       -384.0539847665402249
    Molecular point group: c1
  Basis Set: CC-PVTZ
  Basis Set:
  Basis Set: CC-PVTZ
  Basis Set:
  @DF-RHF Final Energy:  -384.06989411767239
    Total Energy =                       -384.0698941176722201
  Basis Set: CC-PVTZ
  Basis Set:
  Basis Set: CC-PVTZ
  Basis Set:
  @DF-RHF Final Energy:  -384.07253132122190
    Total Energy =                       -384.0725313212219589
  Basis Set: CC-PVTZ
  Basis Set:
  Basis Set: CC-PVTZ
  Basis Set:
  @DF-RHF Final Energy:  -384.06785959365857
    Total Energy =                       -384.0678595936586817
  Basis Set: CC-PVTZ
  Basis Set:
  @DF-RHF Final Energy:  -384.07398709812730
    Total Energy =                       -384.0739870981271906
  @DF-RHF Final Energy:  -384.07466440306268
    Total Energy =                       -384.0746644030623429
  @DF-RHF Final Energy:  -384.07512731422452
    Total Energy =                       -384.0751273142245736
  @DF-RHF Final Energy:  -384.07554351982293
    Total Energy =                       -384.0755435198227588
  @DF-RHF Final Energy:  -384.07592036557702
    Total Energy =                       -384.0759203655773035
  @DF-RHF Final Energy:  -384.07615961510703
    Total Energy =                       -384.0761596151071444
  @DF-RHF Final Energy:  -384.07626106165054
    Total Energy =                       -384.0762610616502570
  @DF-RHF Final Energy:  -384.07661280964123
    Total Energy =                       -384.0766128096419152
  @DF-RHF Final Energy:  -384.07671094994333
    Total Energy =                       -384.0767109499433900
  @DF-RHF Final Energy:  -384.07679180801711
    Total Energy =                       -384.0767918080171057
  @DF-RHF Final Energy:  -384.07685193578970
    Total Energy =                       -384.0768519357894775
  @DF-RHF Final Energy:  -384.07687953529688
    Total Energy =                       -384.0768795352964844
  @DF-RHF Final Energy:  -384.07689507374727
    Total Energy =                       -384.0768950737469822
  @DF-RHF Final Energy:  -384.07690935009703
    Total Energy =                       -384.0769093500971394
  @DF-RHF Final Energy:  -384.07691195304727
    Total Energy =                       -384.0769119530474427
  @DF-RHF Final Energy:  -384.07692026489326
    Total Energy =                       -384.0769202648931469
  @DF-RHF Final Energy:  -384.07691529545860
    Total Energy =                       -384.0769152954584342
  @DF-RHF Final Energy:  -384.07621781268813
    Total Energy =                       -384.0762178126881281
  @DF-RHF Final Energy:  -384.07588300588287
    Total Energy =                       -384.0758830058827016
  @DF-RHF Final Energy:  -384.07647356499314
    Total Energy =                       -384.0764735649934210
  @DF-RHF Final Energy:  -384.07669920724675
    Total Energy =                       -384.0766992072464063
  @DF-RHF Final Energy:  -384.07683148302527
    Total Energy =                       -384.0768314830253303
  @DF-RHF Final Energy:  -384.07688473614161
    Total Energy =                       -384.0768847361416647
  @DF-RHF Final Energy:  -384.07690503078896
    Total Energy =                       -384.0769050307891348
  @DF-RHF Final Energy:  -384.07692457751313
    Total Energy =                       -384.0769245775127274
  @DF-RHF Final Energy:  -384.07692628189858
    Total Energy =                       -384.0769262818987499
  Basis Set: CC-PVTZ
  Basis Set:
  @DF-RHF Final Energy:  -384.07692836258138
    Total Energy =                       -384.0769283625816115
  Basis Set: CC-PVTZ
  Basis Set:
  Basis Set: CC-PVTZ
  Basis Set:
  @DF-RHF Final Energy:  -384.07691165787600
    Total Energy =                       -384.0769116578758258
  Basis Set: CC-PVTZ
  Basis Set:
  Basis Set: CC-PVTZ
  Basis Set:
  @DF-RHF Final Energy:  -384.07692950099187
    Total Energy =                       -384.0769295009915822
  Basis Set: CC-PVTZ
  Basis Set:
  Charge       = 0
  Multiplicity = 1
  Basis Set: CC-PVTZ
  Basis Set:

    Orbital Energies (a.u.)
    -----------------------

    Doubly Occupied:

       1A    -20.598868     2A    -20.530210     3A    -11.363868
       4A    -11.278622     5A    -11.233001     6A    -11.225833
       7A    -11.216010     8A    -11.208963     9A     -1.472514
      10A     -1.364112    11A     -1.088810    12A     -1.022558
      13A     -0.969955    14A     -0.888335    15A     -0.811158
      16A     -0.769135    17A     -0.694937    18A     -0.681900
      19A     -0.674874    20A     -0.644118    21A     -0.598682
      22A     -0.592272    23A     -0.585385    24A     -0.547286
      25A     -0.532723    26A     -0.519870    27A     -0.515511
      28A     -0.481297    29A     -0.474316    30A     -0.466348
      31A     -0.456700    32A     -0.434111

  @DF-RHF Final Energy:  -384.07692975662150

   => Energetics <=

    Nuclear Repulsion Energy =            393.8029769978704167
    One-Electron Energy =               -1303.8752403241774118
    Two-Electron Energy =                 525.9953335696857266
    DFT Exchange-Correlation Energy =       0.0000000000000000
    Empirical Dispersion Energy =           0.0000000000000000
    PCM Polarization Energy =               0.0000000000000000
    EFP Energy =                            0.0000000000000000
    Total Energy =                       -384.0769297566212117
    Molecular point group: c1
  Basis Set: CC-PVTZ
  Basis Set:

  -Total Gradient:
     Atom            X                  Y                   Z
    ------   -----------------  -----------------  -----------------
       1        0.000060116589     0.000267311459     0.000032656199
       2       -0.000122874357    -0.000072976287     0.000028631009
       3       -0.004230512926    -0.006233250851     0.003503455571
       4        0.000056164681    -0.000098892462    -0.000212625714
       5       -0.000462091644    -0.000711706796    -0.008201358155
       6        0.003732371432     0.004990134157    -0.001583316239
       7       -0.000085405380     0.000073759564     0.000106732363
       8        0.000063089664     0.000203574096     0.000155663218
       9        0.000667353873     0.001526571264     0.006156196144
      10        0.000253842766     0.000046156440     0.000020460140
      11       -0.000011213080    -0.000076662877     0.000038959369
      12        0.000093185269    -0.000025199355    -0.000047834254
      13       -0.000037074603     0.000088360512    -0.000037261389
      14        0.000008366042     0.000009196159    -0.000006035847
      15       -0.000007947377    -0.000017145083     0.000004901109
      16        0.000017292898    -0.000001135296     0.000022681592
      17       -0.000049749544    -0.000001767819     0.000012335847
      18       -0.000006471570     0.000038273614     0.000036233542
      19        0.000008366691     0.000016195109    -0.000021343090
      20        0.000053190576    -0.000020795548    -0.000009131415

  **** Optimization is complete! (in 34 steps) ****
    Final optimized geometry and variables:
    Molecular point group: c1

    Geometry (in Angstrom), charge = 0, multiplicity = 1:

    O            1.333268448772     0.384281039095    -1.037437134490
    C            0.889772455597    -0.448661139646    -0.320186481755
    C           -0.382701376648    -1.213895405381    -0.597878963451
    O            1.474925932612    -0.817837005612     0.805173389497
    C           -1.630797905502    -0.311112880753    -0.684519624980
    H           -0.202260207896    -1.665772930873    -1.565975486397
    H           -0.507323796939    -1.986162264024     0.145252087007
    C           -1.643945145417     0.867073136675     0.293269077952
    H           -2.489109343833    -0.927424005997    -0.439163571225
    H           -1.752342813594     0.056335251739    -1.695003510301
    C           -2.972475015357     1.615535612236     0.276610837568
    H           -1.449605281354     0.502221732720     1.298762980185
    H           -0.844168294784     1.555968221134     0.050136668923
    H           -3.794930919385     0.966104692596     0.557542747970
    H           -2.958906634965     2.449829193171     0.968107907567
    H           -3.185361983308     2.009444463157    -0.711518061488
    C            2.686885684026    -0.174364510966     1.146152233709
    H            3.433552466007    -0.340793259163     0.384192293179
    H            3.002808365074    -0.610728704882     2.079723665755
    H            2.534225020918     0.888100452534     1.263341526685

  Mulliken Charges: (a.u.)
   Center  Symbol    Alpha    Beta     Spin     Total
       1     O     4.20962  4.20962  0.00000 -0.41924
       2     C     2.78970  2.78970  0.00000  0.42059
       3     C     3.10219  3.10219  0.00000 -0.20438
       4     O     4.15047  4.15047  0.00000 -0.30095
       5     C     3.08557  3.08557  0.00000 -0.17115
       6     H     0.43832  0.43832  0.00000  0.12335
       7     H     0.43744  0.43744  0.00000  0.12512
       8     C     3.09819  3.09819  0.00000 -0.19638
       9     H     0.45113  0.45113  0.00000  0.09774
      10     H     0.44605  0.44605  0.00000  0.10790
      11     C     3.15169  3.15169  0.00000 -0.30337
      12     H     0.45064  0.45064  0.00000  0.09872
      13     H     0.44267  0.44267  0.00000  0.11466
      14     H     0.45602  0.45602  0.00000  0.08796
      15     H     0.44748  0.44748  0.00000  0.10505
      16     H     0.45360  0.45360  0.00000  0.09280
      17     C     3.03700  3.03700  0.00000 -0.07400
      18     H     0.45285  0.45285  0.00000  0.09430
      19     H     0.44517  0.44517  0.00000  0.10966
      20     H     0.45420  0.45420  0.00000  0.09160

   Total alpha = 32.00000, Total beta = 32.00000, Total charge = -0.00000

*** Psi4 exiting successfully. Buy a developer a beer!
