  ==> Input File <==

--------------------------------------------------------------------------
set {
	reference rhf
	basis 6-31G*
}

set_num_threads( 4 )
memory 2 gb

molecule MOL {
0 1

O	 1.490018	 0.851161	 -0.863720
C	 1.122059	 0.121804	 -0.000188
C	 -0.170150	 -0.657997	 -0.000612
O	 1.820280	 -0.105660	 1.105127
C	 -1.412532	 0.227344	 -0.000452
H	 -0.153702	 -1.313099	 -0.867402
H	 -0.153924	 -1.313811	 0.865644
C	 -2.706999	 -0.587347	 -0.000541
H	 -1.388000	 0.879466	 -0.868000
H	 -1.387972	 0.879138	 0.867341
C	 -3.956778	 0.291888	 0.000910
H	 -2.726114	 -1.239230	 -0.871609
H	 -2.725217	 -1.240844	 0.869333
H	 -3.985213	 0.933254	 -0.875158
H	 -4.860123	 -0.309979	 0.000519
H	 -3.984618	 0.931166	 0.878514
C	 3.059524	 0.567557	 1.232389
H	 3.726797	 0.290438	 0.428996
H	 3.467867	 0.257189	 2.181534
H	 2.913511	 1.638081	 1.219558

	symmetry c1
}
set optking {
	frozen_dihedral = ("
		1 2 3 6
	")
}

ee = optimize('scf')
oeprop('DIPOLE', 'QUADRUPOLE', 'MULLIKEN_CHARGES')
f=open( 'psi4out.xyz', 'w' )
f.write( "20  " )
f.write( str(ee) + "\n" )
f.write( MOL.save_string_xyz() )
f.close()
--------------------------------------------------------------------------

    Molecular point group: c1
  Charge       = 0
  Multiplicity = 1
  Basis Set: 6-31G*
  Basis Set:
  @DF-RHF Final Energy:  -383.93939503723976
    Total Energy =                       -383.9393950372400468
    Molecular point group: c1
  Basis Set: 6-31G*
  Basis Set:
  Basis Set: 6-31G*
  Basis Set:
  @DF-RHF Final Energy:  -383.94004746386895
    Total Energy =                       -383.9400474638692913
  Basis Set: 6-31G*
  Basis Set:
  Basis Set: 6-31G*
  Basis Set:
  @DF-RHF Final Energy:  -383.93929630653633
    Total Energy =                       -383.9392963065362210
  Basis Set: 6-31G*
  Basis Set:
  Basis Set: 6-31G*
  Basis Set:
  @DF-RHF Final Energy:  -383.94012389130597
    Total Energy =                       -383.9401238913059160
  Basis Set: 6-31G*
  Basis Set:
  Basis Set: 6-31G*
  Basis Set:
  @DF-RHF Final Energy:  -383.94012728150938
    Total Energy =                       -383.9401272815093762
  Basis Set: 6-31G*
  Basis Set:
  Charge       = 0
  Multiplicity = 1
  Basis Set: 6-31G*
  Basis Set:

    Orbital Energies (a.u.)
    -----------------------

    Doubly Occupied:

       1A    -20.606026     2A    -20.542153     3A    -11.371522
       4A    -11.280828     5A    -11.233951     6A    -11.226303
       7A    -11.222586     8A    -11.212799     9A     -1.469617
      10A     -1.361359    11A     -1.090608    12A     -1.024178
      13A     -0.969465    14A     -0.887786    15A     -0.805596
      16A     -0.772014    17A     -0.695207    18A     -0.680636
      19A     -0.672769    20A     -0.646925    21A     -0.598351
      22A     -0.592066    23A     -0.574885    24A     -0.551286
      25A     -0.534076    26A     -0.522635    27A     -0.505169
      28A     -0.479871    29A     -0.476800    30A     -0.473548
      31A     -0.453645    32A     -0.432499

  @DF-RHF Final Energy:  -383.94012742608305

   => Energetics <=

    Nuclear Repulsion Energy =            381.7913243785272357
    One-Electron Energy =               -1279.5285900415321976
    Two-Electron Energy =                 513.7971382369220237
    DFT Exchange-Correlation Energy =       0.0000000000000000
    Empirical Dispersion Energy =           0.0000000000000000
    PCM Polarization Energy =               0.0000000000000000
    EFP Energy =                            0.0000000000000000
    Total Energy =                       -383.9401274260829950
    Molecular point group: c1
  Basis Set: 6-31G*
  Basis Set:

  -Total Gradient:
     Atom            X                  Y                   Z
    ------   -----------------  -----------------  -----------------
       1        0.000225947671    -0.000388605099    -0.000194818113
       2       -0.000398633050     0.000640930450     0.000212433859
       3        0.000356060143    -0.000570115675     0.000211561090
       4        0.000029812149     0.000005422037     0.000030941500
       5       -0.000003620777     0.000013520983     0.000002615128
       6       -0.000224411080     0.000334877289    -0.000215300942
       7        0.000003165414    -0.000020515030    -0.000006445562
       8        0.000014531406    -0.000014756671    -0.000027657568
       9       -0.000001791381     0.000000627467    -0.000010927543
      10        0.000000771407    -0.000001386871    -0.000007269838
      11        0.000005961049     0.000011775819     0.000020571572
      12       -0.000002046745     0.000002128571    -0.000006754774
      13        0.000013664721    -0.000002940281    -0.000009941930
      14       -0.000002627480    -0.000006428168    -0.000001297234
      15        0.000001521039    -0.000001468026     0.000009248789
      16       -0.000002450291     0.000009925208    -0.000001951116
      17       -0.000026883947    -0.000023760501    -0.000010551118
      18        0.000007271622     0.000003535090     0.000001367409
      19        0.000003445843     0.000002356642     0.000002871239
      20        0.000000312281     0.000004876766     0.000001305152

  **** Optimization is complete! (in 6 steps) ****
    Final optimized geometry and variables:
    Molecular point group: c1

    Geometry (in Angstrom), charge = 0, multiplicity = 1:

    O            1.470511726328     0.767504016941    -1.019621391385
    C            1.170198236903     0.006775039264    -0.155325374055
    C           -0.106403556390    -0.799350821909    -0.142356772817
    O            1.929610101269    -0.220860070377     0.906324536675
    C           -1.342502947404     0.108456031398    -0.167960746206
    H           -0.096680941784    -1.419606358467    -1.033533568559
    H           -0.118656876163    -1.450183870857     0.722324297916
    C           -2.647762545642    -0.685887265402    -0.224789521900
    H           -1.273233186435     0.769969056255    -1.025013442212
    H           -1.342871895024     0.741028533362     0.717192567477
    C           -3.883928520624     0.212235003197    -0.243509127004
    H           -2.646053513705    -1.316884156255    -1.110931947381
    H           -2.701494109512    -1.357234153842     0.629450614673
    H           -3.875245651375     0.872257438938    -1.105937301238
    H           -4.794931093650    -0.376310582379    -0.285675209255
    H           -3.931506634136     0.832529993748     0.646914063760
    C            3.152292859221     0.489998977390     0.984068082451
    H            3.783363701591     0.252577080511     0.139876456950
    H            3.620162484884     0.172318074565     1.902791144953
    H            2.971193995595     1.554961962692     1.003797494802

  Mulliken Charges: (a.u.)
   Center  Symbol    Alpha    Beta     Spin     Total
       1     O     4.28725  4.28725  0.00000 -0.57449
       2     C     2.60963  2.60963  0.00000  0.78075
       3     C     3.20266  3.20266  0.00000 -0.40532
       4     O     4.30326  4.30326  0.00000 -0.60652
       5     C     3.16157  3.16157  0.00000 -0.32315
       6     H     0.40118  0.40118  0.00000  0.19764
       7     H     0.40087  0.40087  0.00000  0.19827
       8     C     3.15330  3.15330  0.00000 -0.30660
       9     H     0.40398  0.40398  0.00000  0.19203
      10     H     0.41717  0.41717  0.00000  0.16565
      11     C     3.24005  3.24005  0.00000 -0.48010
      12     H     0.42072  0.42072  0.00000  0.15856
      13     H     0.42167  0.42167  0.00000  0.15666
      14     H     0.41911  0.41911  0.00000  0.16178
      15     H     0.41792  0.41792  0.00000  0.16416
      16     H     0.42060  0.42060  0.00000  0.15880
      17     C     3.09362  3.09362  0.00000 -0.18724
      18     H     0.40844  0.40844  0.00000  0.18312
      19     H     0.40843  0.40843  0.00000  0.18315
      20     H     0.40857  0.40857  0.00000  0.18285

   Total alpha = 32.00000, Total beta = 32.00000, Total charge = -0.00000
