  ==> Input File <==

--------------------------------------------------------------------------
set {
	reference rhf
	basis cc-pvtz
}

set_num_threads( 4 )
memory 2 gb

molecule MOL {
0 1

H	 2.190573	 -0.629143	 -0.208718
O	 1.355408	 -0.529451	 0.208662
C	 0.700177	 0.619554	 -0.266242
C	 -0.713111	 0.588314	 0.266177
H	 0.678680	 0.627133	 -1.351786
H	 1.199747	 1.521489	 0.077736
O	 -1.421673	 -0.521378	 -0.196983
H	 -1.244794	 1.469161	 -0.069059
H	 -0.685100	 0.604721	 1.352683
H	 -0.856082	 -1.025961	 -0.755127

	symmetry c1
}
set optking {
	frozen_dihedral = ("
		10 7 4 3
	")
}

ee = optimize('scf')
oeprop('DIPOLE', 'QUADRUPOLE', 'MULLIKEN_CHARGES')
f=open( 'psi4out.xyz', 'w' )
f.write( "10  " )
f.write( str(ee) + "\n" )
f.write( MOL.save_string_xyz() )
f.close()
--------------------------------------------------------------------------

    Molecular point group: c1
  Charge       = 0
  Multiplicity = 1
  Basis Set: CC-PVTZ
  Basis Set:
  @DF-RHF Final Energy:  -229.02322255587586
    Total Energy =                       -229.0232225558757762
    Molecular point group: c1
  Basis Set: CC-PVTZ
  Basis Set:
  Basis Set: CC-PVTZ
  Basis Set:
  @DF-RHF Final Energy:  -229.02395178943536
    Total Energy =                       -229.0239517894354435
  Basis Set: CC-PVTZ
  Basis Set:
  Basis Set: CC-PVTZ
  Basis Set:
  @DF-RHF Final Energy:  -229.02416638553842
    Total Energy =                       -229.0241663855382512
  Basis Set: CC-PVTZ
  Basis Set:
  Basis Set: CC-PVTZ
  Basis Set:
  @DF-RHF Final Energy:  -229.02417091743331
    Total Energy =                       -229.0241709174334233
  Basis Set: CC-PVTZ
  Basis Set:
  Charge       = 0
  Multiplicity = 1
  Basis Set: CC-PVTZ
  Basis Set:

    Orbital Energies (a.u.)
    -----------------------

    Doubly Occupied:

       1A    -20.562393     2A    -20.540973     3A    -11.280285
       4A    -11.267476     5A     -1.386998     6A     -1.355158
       7A     -1.006254     8A     -0.850400     9A     -0.726888
      10A     -0.672651    11A     -0.666837    12A     -0.602888
      13A     -0.576941    14A     -0.552912    15A     -0.475810
      16A     -0.459121    17A     -0.438267

  @DF-RHF Final Energy:  -229.02417129534115

   => Energetics <=

    Nuclear Repulsion Energy =            134.3676726740739014
    One-Electron Energy =                -579.9391850164715834
    Two-Electron Energy =                 216.5473410470565909
    DFT Exchange-Correlation Energy =       0.0000000000000000
    Empirical Dispersion Energy =           0.0000000000000000
    PCM Polarization Energy =               0.0000000000000000
    EFP Energy =                            0.0000000000000000
    Total Energy =                       -229.0241712953410911
    Molecular point group: c1
  Basis Set: CC-PVTZ
  Basis Set:

  -Total Gradient:
     Atom            X                  Y                   Z
    ------   -----------------  -----------------  -----------------
       1        0.000001232253     0.000004755741    -0.000002658977
       2       -0.000018228418     0.000043155404    -0.000004770051
       3        0.000562447773    -0.000973124627     0.001544371428
       4       -0.001050780219     0.001669493994    -0.002838424917
       5        0.000010583772    -0.000009712878     0.000014793045
       6        0.000037125910     0.000008917801     0.000018147213
       7        0.001352399588    -0.002254832212     0.003776183253
       8        0.000014697009     0.000010907685    -0.000003947942
       9       -0.000009853276    -0.000000262423    -0.000001396172
      10       -0.000899624395     0.001500701515    -0.002502296880

  **** Optimization is complete! (in 5 steps) ****
    Final optimized geometry and variables:
    Molecular point group: c1

    Geometry (in Angstrom), charge = 0, multiplicity = 1:

    H            2.230738224185    -0.579868272769    -0.168033386132
    O            1.353149237857    -0.556049772781     0.165955402937
    C            0.709272878980     0.619960732431    -0.241665957377
    C           -0.712418372097     0.598708822673     0.271058170897
    H            0.706172531161     0.693844028339    -1.327893934489
    H            1.208749079531     1.501132659415     0.151494042527
    O           -1.435002029532    -0.525206929878    -0.141563934799
    H           -1.215724416583     1.497052398885    -0.072156976912
    H           -0.696102023574     0.617612602695     1.355359927222
    H           -0.897317344053    -1.079934511365    -0.675848023034

  Mulliken Charges: (a.u.)
   Center  Symbol    Alpha    Beta     Spin     Total
       1     H     0.39225  0.39225  0.00000  0.21550
       2     O     4.19917  4.19917  0.00000 -0.39834
       3     C     2.98756  2.98756  0.00000  0.02489
       4     C     2.94496  2.94496  0.00000  0.11009
       5     H     0.46990  0.46990  0.00000  0.06020
       6     H     0.46712  0.46712  0.00000  0.06575
       7     O     4.20738  4.20738  0.00000 -0.41476
       8     H     0.47328  0.47328  0.00000  0.05343
       9     H     0.47083  0.47083  0.00000  0.05833
      10     H     0.38755  0.38755  0.00000  0.22491

   Total alpha = 17.00000, Total beta = 17.00000, Total charge = -0.00000
