  ==> Input File <==

--------------------------------------------------------------------------
set {
	reference rhf
	basis cc-pvtz
}

set_num_threads( 4 )
memory 2 gb

molecule MOL {
0 1

H	 2.351514	 2.431959	 -0.530957
N	 1.573546	 1.811957	 -0.608295
C	 1.860978	 0.530248	 0.016256
H	 1.382652	 1.699012	 -1.582026
C	 0.644130	 -0.381765	 -0.031064
H	 2.127068	 0.718178	 1.051044
H	 2.710826	 0.018399	 -0.437313
C	 -0.678115	 0.376691	 0.025731
H	 0.693998	 -0.977147	 -0.936845
H	 0.693309	 -1.082142	 0.800523
C	 -1.900706	 -0.535531	 -0.022488
H	 -0.725296	 1.079516	 -0.802982
H	 -0.715474	 0.974884	 0.933278
C	 -3.220513	 0.226854	 0.028039
H	 -1.865036	 -1.134397	 -0.928236
H	 -1.857948	 -1.236381	 0.806820
H	 -3.309098	 0.911849	 -0.808725
H	 -4.066838	 -0.449485	 -0.008086
H	 -3.301685	 0.809374	 0.939860

	symmetry c1
}
set optking {
	frozen_dihedral = ("
		6 3 5 9
	")
}

ee = optimize('scf')
oeprop('DIPOLE', 'QUADRUPOLE', 'MULLIKEN_CHARGES')
f=open( 'psi4out.xyz', 'w' )
f.write( "19  " )
f.write( str(ee) + "\n" )
f.write( MOL.save_string_xyz() )
f.close()
--------------------------------------------------------------------------

    Molecular point group: c1
  Charge       = 0
  Multiplicity = 1
  Basis Set: CC-PVTZ
  Basis Set:
  @DF-RHF Final Energy:  -251.44151804008641
    Total Energy =                       -251.4415180400863505
    Molecular point group: c1
  Basis Set: CC-PVTZ
  Basis Set:
  Basis Set: CC-PVTZ
  Basis Set:
  @DF-RHF Final Energy:  -251.44283865153918
    Total Energy =                       -251.4428386515391480
  Basis Set: CC-PVTZ
  Basis Set:
  Basis Set: CC-PVTZ
  Basis Set:
  @DF-RHF Final Energy:  -251.44373183253211
    Total Energy =                       -251.4437318325321371
  Basis Set: CC-PVTZ
  Basis Set:
  Basis Set: CC-PVTZ
  Basis Set:
  @DF-RHF Final Energy:  -251.44379288463944
    Total Energy =                       -251.4437928846397767
  Basis Set: CC-PVTZ
  Basis Set:
  Basis Set: CC-PVTZ
  Basis Set:
  @DF-RHF Final Energy:  -251.44379643706506
    Total Energy =                       -251.4437964370651457
  Basis Set: CC-PVTZ
  Basis Set:
  Basis Set: CC-PVTZ
  Basis Set:
  @DF-RHF Final Energy:  -251.44379749839842
    Total Energy =                       -251.4437974983985669
  Basis Set: CC-PVTZ
  Basis Set:
  Charge       = 0
  Multiplicity = 1
  Basis Set: CC-PVTZ
  Basis Set:

    Orbital Energies (a.u.)
    -----------------------

    Doubly Occupied:

       1A    -15.527594     2A    -11.239145     3A    -11.208688
       4A    -11.207357     5A    -11.202124     6A    -11.201406
       7A     -1.179010     8A     -1.067948     9A     -0.995727
      10A     -0.904772    11A     -0.812279    12A     -0.778729
      13A     -0.668312    14A     -0.632888    15A     -0.621091
      16A     -0.584765    17A     -0.566095    18A     -0.548384
      19A     -0.528915    20A     -0.496356    21A     -0.476190
      22A     -0.464169    23A     -0.452824    24A     -0.448199
      25A     -0.381628

  @DF-RHF Final Energy:  -251.44379774962479

   => Energetics <=

    Nuclear Repulsion Energy =            249.6253522955593951
    One-Electron Energy =                -833.7491043093784810
    Two-Electron Energy =                 332.6799542641940661
    DFT Exchange-Correlation Energy =       0.0000000000000000
    Empirical Dispersion Energy =           0.0000000000000000
    PCM Polarization Energy =               0.0000000000000000
    EFP Energy =                            0.0000000000000000
    Total Energy =                       -251.4437977496249914
    Molecular point group: c1
  Basis Set: CC-PVTZ
  Basis Set:

  -Total Gradient:
     Atom            X                  Y                   Z
    ------   -----------------  -----------------  -----------------
       1        0.000000709637    -0.000002700629     0.000000984490
       2       -0.000007043528     0.000010740191     0.000007256886
       3       -0.003735661384     0.005203386045     0.000638378291
       4        0.000000318560    -0.000008069849     0.000004367386
       5       -0.002714398474     0.004406341034    -0.003923601034
       6        0.003585565876    -0.005092451988     0.000089295718
       7       -0.000002410799    -0.000001407873     0.000003749584
       8        0.000005456430     0.000002479758     0.000001177869
       9        0.002869988091    -0.004517024039     0.003181876142
      10        0.000000672805     0.000002320127    -0.000000204814
      11       -0.000003091561    -0.000001989939    -0.000011563927
      12       -0.000000459653    -0.000003737177     0.000001533542
      13        0.000003671251     0.000004377335     0.000003514310
      14        0.000000019960    -0.000001885455     0.000004150322
      15       -0.000000975586    -0.000002894639    -0.000000359304
      16       -0.000001016521     0.000002774940    -0.000001326637
      17        0.000000836427    -0.000001955756     0.000000191905
      18       -0.000001395158     0.000000369693     0.000001504342
      19       -0.000000786376     0.000001328221    -0.000000925072

  **** Optimization is complete! (in 7 steps) ****
    Final optimized geometry and variables:
    Molecular point group: c1

    Geometry (in Angstrom), charge = 0, multiplicity = 1:

    H            2.809902174942     2.023079470368    -0.377205641323
    N            1.995626646715     1.465649517543    -0.524603210693
    C            2.120724201942     0.184653460541     0.149942658682
    H            1.900893631446     1.341317917856    -1.511342255118
    C            0.871943056730    -0.695062183137     0.028968164406
    H            2.338252338913     0.356622681560     1.198326654535
    H            2.967601956932    -0.396491432067    -0.218132510848
    C           -0.465342049775     0.031469330911     0.116439850830
    H            0.932916906910    -1.294733959715    -0.876481521624
    H            0.924662778446    -1.425978014718     0.832841723498
    C           -1.655986226050    -0.923575408637     0.113354431363
    H           -0.561849672744     0.731373678650    -0.705200513475
    H           -0.485485493300     0.633276942402     1.021148442527
    C           -2.998687933129    -0.204366970080     0.190253103316
    H           -1.626525521692    -1.533143354810    -0.786278944336
    H           -1.569694481625    -1.612859435742     0.949226610265
    H           -3.132112672677     0.465710464079    -0.652528558705
    H           -3.823452362159    -0.908107165616     0.187130080164
    H           -3.073065716230     0.388550395526     1.095824417241

  Mulliken Charges: (a.u.)
   Center  Symbol    Alpha    Beta     Spin     Total
       1     H     0.42921  0.42921  0.00000  0.14158
       2     N     3.68663  3.68663  0.00000 -0.37326
       3     C     3.03781  3.03781  0.00000 -0.07562
       4     H     0.43146  0.43146  0.00000  0.13709
       5     C     3.10353  3.10353  0.00000 -0.20707
       6     H     0.45523  0.45523  0.00000  0.08954
       7     H     0.46178  0.46178  0.00000  0.07644
       8     C     3.07328  3.07328  0.00000 -0.14655
       9     H     0.45273  0.45273  0.00000  0.09453
      10     H     0.45369  0.45369  0.00000  0.09263
      11     C     3.08462  3.08462  0.00000 -0.16925
      12     H     0.45279  0.45279  0.00000  0.09442
      13     H     0.45463  0.45463  0.00000  0.09074
      14     C     3.14969  3.14969  0.00000 -0.29938
      15     H     0.45664  0.45664  0.00000  0.08672
      16     H     0.45596  0.45596  0.00000  0.08809
      17     H     0.45543  0.45543  0.00000  0.08913
      18     H     0.44976  0.44976  0.00000  0.10048
      19     H     0.45513  0.45513  0.00000  0.08974

   Total alpha = 25.00000, Total beta = 25.00000, Total charge = -0.00000
