  ==> Input File <==

--------------------------------------------------------------------------
set {
	reference rhf
	basis 6-31G*
}

set_num_threads( 1 )
memory 2 gb

molecule MOL {
0 1

H	 -3.563128	 -0.934542	 0.056962
O	 -3.517110	 -0.026191	 -0.205115
C	 -2.306886	 0.532354	 0.237577
C	 -1.177863	 -0.397191	 -0.171080
H	 -2.156308	 1.517575	 -0.201710
H	 -2.315015	 0.655684	 1.319734
C	 0.198102	 0.111031	 0.262842
H	 -1.208843	 -0.518759	 -1.250427
H	 -1.368741	 -1.376554	 0.258909
C	 1.331804	 -0.827780	 -0.158768
H	 0.361943	 1.100838	 -0.156218
H	 0.217265	 0.229072	 1.345532
C	 2.723619	 -0.410569	 0.329459
H	 1.342964	 -0.912588	 -1.244120
H	 1.116806	 -1.824343	 0.220779
C	 3.243875	 0.895854	 -0.272975
H	 3.424222	 -1.207124	 0.091250
H	 2.714788	 -0.329854	 1.414619
H	 3.251977	 0.848779	 -1.358681
H	 2.637085	 1.747371	 0.016682
H	 4.259473	 1.094070	 0.055697

	symmetry c1
}
set optking {
	frozen_dihedral = ("
		2 3 4 8,
		8 4 7 10,
		4 7 10 14,
		16 13 10 14
	")
}

ee = energy('scf')
oeprop('DIPOLE', 'QUADRUPOLE', 'MULLIKEN_CHARGES')
f=open( 'psi4out.xyz', 'w' )
f.write( "21  " )
f.write( str(ee) + "\n" )
f.write( MOL.save_string_xyz() )
f.close()
--------------------------------------------------------------------------

    Molecular point group: c1

    Geometry (in Angstrom), charge = 0, multiplicity = 1:

       Center              X                  Y                   Z               Mass
    ------------   -----------------  -----------------  -----------------  -----------------
           H         -3.569774300826    -0.920005823846     0.056792334612     1.007825032070
           O         -3.523756300826    -0.011654823846    -0.205284665388    15.994914619560
           C         -2.313532300826     0.546890176154     0.237407334612    12.000000000000
           C         -1.184509300826    -0.382654823846    -0.171249665388    12.000000000000
           H         -2.162954300826     1.532111176154    -0.201879665388     1.007825032070
           H         -2.321661300826     0.670220176154     1.319564334612     1.007825032070
           C          0.191455699174     0.125567176154     0.262672334612    12.000000000000
           H         -1.215489300826    -0.504222823846    -1.250596665388     1.007825032070
           H         -1.375387300826    -1.362017823846     0.258739334612     1.007825032070
           C          1.325157699174    -0.813243823846    -0.158937665388    12.000000000000
           H          0.355296699174     1.115374176154    -0.156387665388     1.007825032070
           H          0.210618699174     0.243608176154     1.345362334612     1.007825032070
           C          2.716972699174    -0.396032823846     0.329289334612    12.000000000000
           H          1.336317699174    -0.898051823846    -1.244289665388     1.007825032070
           H          1.110159699174    -1.809806823846     0.220609334612     1.007825032070
           C          3.237228699174     0.910390176154    -0.273144665388    12.000000000000
           H          3.417575699174    -1.192587823846     0.091080334612     1.007825032070
           H          2.708141699174    -0.315317823846     1.414449334612     1.007825032070
           H          3.245330699174     0.863315176154    -1.358850665388     1.007825032070
           H          2.630438699174     1.761907176154     0.016512334612     1.007825032070
           H          4.252826699174     1.108606176154     0.055527334612     1.007825032070

  Charge       = 0
  Multiplicity = 1
  Basis Set: 6-31G*
  Basis Set:

    Orbital Energies (a.u.)
    -----------------------

    Doubly Occupied:

       1A    -20.550089     2A    -11.267896     3A    -11.219686
       4A    -11.217963     5A    -11.217279     6A    -11.217202
       7A    -11.210323     8A     -1.359006     9A     -1.090021
      10A     -1.035856    11A     -0.955926    12A     -0.879665
      13A     -0.821968    14A     -0.782041    15A     -0.686785
      16A     -0.651386    17A     -0.622898    18A     -0.612597
      19A     -0.595333    20A     -0.576621    21A     -0.538645
      22A     -0.535955    23A     -0.505568    24A     -0.490903
      25A     -0.487992    26A     -0.464851    27A     -0.459685
      28A     -0.454736    29A     -0.421139

  @DF-RHF Final Energy:  -310.21051929613770

   => Energetics <=

    Nuclear Repulsion Energy =            313.1747162203525932
    One-Electron Energy =               -1040.9105793527442074
    Two-Electron Energy =                 417.5253438362527163
    DFT Exchange-Correlation Energy =       0.0000000000000000
    Empirical Dispersion Energy =           0.0000000000000000
    PCM Polarization Energy =               0.0000000000000000
    EFP Energy =                            0.0000000000000000
    Total Energy =                       -310.2105192961388980

  Mulliken Charges: (a.u.)
   Center  Symbol    Alpha    Beta     Spin     Total
       1     H     0.28181  0.28181  0.00000  0.43638
       2     O     4.37239  4.37239  0.00000 -0.74479
       3     C     2.98440  2.98440  0.00000  0.03121
       4     C     3.17111  3.17111  0.00000 -0.34222
       5     H     0.41684  0.41684  0.00000  0.16632
       6     H     0.43098  0.43098  0.00000  0.13804
       7     C     3.16173  3.16173  0.00000 -0.32346
       8     H     0.41311  0.41311  0.00000  0.17378
       9     H     0.42952  0.42952  0.00000  0.14096
      10     C     3.15184  3.15184  0.00000 -0.30368
      11     H     0.41942  0.41942  0.00000  0.16116
      12     H     0.42325  0.42325  0.00000  0.15349
      13     C     3.15261  3.15261  0.00000 -0.30521
      14     H     0.42284  0.42284  0.00000  0.15433
      15     H     0.42235  0.42235  0.00000  0.15531
      16     C     3.24144  3.24144  0.00000 -0.48287
      17     H     0.42044  0.42044  0.00000  0.15912
      18     H     0.42331  0.42331  0.00000  0.15338
      19     H     0.42173  0.42173  0.00000  0.15655
      20     H     0.42023  0.42023  0.00000  0.15953
      21     H     0.41867  0.41867  0.00000  0.16267

   Total alpha = 29.00000, Total beta = 29.00000, Total charge =  0.00000
