  ==> Input File <==

--------------------------------------------------------------------------
set {
	reference rhf
	basis 6-31G*
}

set_num_threads( 4 )
memory 2 gb

molecule MOL {
0 1

H	 -3.978529	 0.046586	 1.827897
O	 -3.260094	 -0.510654	 1.564765
C	 -2.176559	 0.280390	 1.149080
C	 -1.045193	 -0.644232	 0.735761
H	 -2.464383	 0.914890	 0.311898
H	 -1.847810	 0.934242	 1.955766
C	 0.198102	 0.111031	 0.262842
H	 -1.408586	 -1.297953	 -0.052479
H	 -0.798359	 -1.281305	 1.580562
C	 1.331804	 -0.827780	 -0.158768
H	 -0.072162	 0.760675	 -0.566069
H	 0.553005	 0.762569	 1.060377
C	 2.723619	 -0.410569	 0.329459
H	 1.342964	 -0.912588	 -1.244120
H	 1.116806	 -1.824343	 0.220779
C	 3.243875	 0.895854	 -0.272975
H	 3.424222	 -1.207124	 0.091250
H	 2.714788	 -0.329854	 1.414619
H	 3.251977	 0.848779	 -1.358681
H	 2.637085	 1.747371	 0.016682
H	 4.259473	 1.094070	 0.055697

	symmetry c1
}
set optking {
	frozen_dihedral = ("
		4 7 10 14
	")
}

ee = optimize('scf')
oeprop('DIPOLE', 'QUADRUPOLE', 'MULLIKEN_CHARGES')
f=open( 'psi4out.xyz', 'w' )
f.write( "21  " )
f.write( str(ee) + "\n" )
f.write( MOL.save_string_xyz() )
f.close()
--------------------------------------------------------------------------

    Molecular point group: c1
  Charge       = 0
  Multiplicity = 1
  Basis Set: 6-31G*
  Basis Set:
  @DF-RHF Final Energy:  -310.20882171561448
    Total Energy =                       -310.2088217156142491
    Molecular point group: c1
  Basis Set: 6-31G*
  Basis Set:
  Basis Set: 6-31G*
  Basis Set:
  @DF-RHF Final Energy:  -310.20912178468967
    Total Energy =                       -310.2091217846894438
  Basis Set: 6-31G*
  Basis Set:
  Basis Set: 6-31G*
  Basis Set:
  @DF-RHF Final Energy:  -310.20921694277877
    Total Energy =                       -310.2092169427788804
  Basis Set: 6-31G*
  Basis Set:
  Basis Set: 6-31G*
  Basis Set:
  @DF-RHF Final Energy:  -310.20920718931762
    Total Energy =                       -310.2092071893173397
  Basis Set: 6-31G*
  Basis Set:
  Basis Set: 6-31G*
  Basis Set:
  @DF-RHF Final Energy:  -310.20922037347651
    Total Energy =                       -310.2092203734768532
  Basis Set: 6-31G*
  Basis Set:
  Basis Set: 6-31G*
  Basis Set:
  @DF-RHF Final Energy:  -310.20922461302439
    Total Energy =                       -310.2092246130245599
  Basis Set: 6-31G*
  Basis Set:
  Charge       = 0
  Multiplicity = 1
  Basis Set: 6-31G*
  Basis Set:

    Orbital Energies (a.u.)
    -----------------------

    Doubly Occupied:

       1A    -20.551875     2A    -11.266925     3A    -11.215870
       4A    -11.214854     5A    -11.213330     6A    -11.211009
       7A    -11.208117     8A     -1.358664     9A     -1.085157
      10A     -1.033204    11A     -0.952616    12A     -0.875688
      13A     -0.809066    14A     -0.778083    15A     -0.692219
      16A     -0.659401    17A     -0.626121    18A     -0.603888
      19A     -0.583089    20A     -0.572888    21A     -0.536828
      22A     -0.521465    23A     -0.506813    24A     -0.488154
      25A     -0.480932    26A     -0.457721    27A     -0.454704
      28A     -0.442685    29A     -0.434172

  @DF-RHF Final Energy:  -310.20922494941345

   => Energetics <=

    Nuclear Repulsion Energy =            312.6978937641089829
    One-Electron Energy =               -1040.1431624732124419
    Two-Electron Energy =                 417.2360437596901761
    DFT Exchange-Correlation Energy =       0.0000000000000000
    Empirical Dispersion Energy =           0.0000000000000000
    PCM Polarization Energy =               0.0000000000000000
    EFP Energy =                            0.0000000000000000
    Total Energy =                       -310.2092249494132261
    Molecular point group: c1
  Basis Set: 6-31G*
  Basis Set:

  -Total Gradient:
     Atom            X                  Y                   Z
    ------   -----------------  -----------------  -----------------
       1       -0.000007061403    -0.000004133001     0.000005110431
       2       -0.000009237157     0.000009539181     0.000009856034
       3        0.000006102885    -0.000011877490     0.000002782102
       4        0.000935914723    -0.000052617283     0.002491141157
       5        0.000003501430    -0.000003433438     0.000000975271
       6       -0.000003608882     0.000004617018     0.000001260832
       7       -0.000728255662     0.000738090121    -0.003517513374
       8       -0.000012062981     0.000007026549    -0.000001941172
       9        0.000009390376    -0.000005923878    -0.000010769266
      10       -0.002543143425    -0.003520471965     0.001164666569
      11       -0.000005371912    -0.000008100044    -0.000007098819
      12        0.000007700391     0.000004970418    -0.000008264445
      13        0.000015765104    -0.000023652488    -0.000028839555
      14        0.002339898031     0.002862322878    -0.000114970026
      15       -0.000001193980    -0.000003840005     0.000004029686
      16       -0.000014945718     0.000011184390     0.000014261250
      17        0.000001346683    -0.000012822702     0.000002074998
      18        0.000003086627     0.000011035686    -0.000008126809
      19        0.000010224182    -0.000006690268     0.000002329270
      20       -0.000002591754     0.000005814228    -0.000009251753
      21       -0.000005457550    -0.000001037908     0.000008287620

  **** Optimization is complete! (in 7 steps) ****
    Final optimized geometry and variables:
    Molecular point group: c1

    Geometry (in Angstrom), charge = 0, multiplicity = 1:

    H           -4.061864291015     0.223094056594     1.270913152802
    O           -3.346456938523    -0.341124958355     1.014482684996
    C           -2.252743873642     0.439224741202     0.605186359323
    C           -1.127198979727    -0.496055393291     0.201184722648
    H           -2.528613351070     1.075175847339    -0.234909877911
    H           -1.923587864404     1.091354879684     1.413281977224
    C            0.133227587654     0.246116581283    -0.248094521209
    H           -1.488638271248    -1.143747234341    -0.593385526503
    H           -0.894367045203    -1.138673803919     1.045567240635
    C            1.266342819020    -0.703732109936    -0.688236776478
    H           -0.110524920199     0.935997180229    -1.051953322608
    H            0.479851624240     0.861754790944     0.580094023851
    C            2.660660412401    -0.274132870835    -0.216234934601
    H            1.288040630341    -0.766766749827    -1.773834822835
    H            1.067517975900    -1.705395611754    -0.317876916453
    C            3.137346412232     1.047132238830    -0.821247573503
    H            3.373080309976    -1.054957375905    -0.471493797735
    H            2.665694625097    -0.199367798763     0.869372449731
    H            3.172013349230     0.987549986671    -1.905805260245
    H            2.481749913811     1.871252807553    -0.557437461337
    H            4.134428877780     1.298081156635    -0.472567750911

  Mulliken Charges: (a.u.)
   Center  Symbol    Alpha    Beta     Spin     Total
       1     H     0.28117  0.28117  0.00000  0.43765
       2     O     4.37171  4.37171  0.00000 -0.74342
       3     C     2.99027  2.99027  0.00000  0.01946
       4     C     3.16091  3.16091  0.00000 -0.32182
       5     H     0.43282  0.43282  0.00000  0.13435
       6     H     0.43300  0.43300  0.00000  0.13401
       7     C     3.16303  3.16303  0.00000 -0.32606
       8     H     0.41461  0.41461  0.00000  0.17079
       9     H     0.41454  0.41454  0.00000  0.17091
      10     C     3.15404  3.15404  0.00000 -0.30808
      11     H     0.42063  0.42063  0.00000  0.15874
      12     H     0.42236  0.42236  0.00000  0.15528
      13     C     3.15389  3.15389  0.00000 -0.30778
      14     H     0.42172  0.42172  0.00000  0.15657
      15     H     0.41762  0.41762  0.00000  0.16477
      16     C     3.24095  3.24095  0.00000 -0.48190
      17     H     0.42145  0.42145  0.00000  0.15711
      18     H     0.42349  0.42349  0.00000  0.15301
      19     H     0.42230  0.42230  0.00000  0.15539
      20     H     0.42020  0.42020  0.00000  0.15960
      21     H     0.41929  0.41929  0.00000  0.16141

   Total alpha = 29.00000, Total beta = 29.00000, Total charge = -0.00000
