  ==> Input File <==

--------------------------------------------------------------------------
set {
	reference rhf
	basis 6-31G*
}

set_num_threads( 1 )
memory 2 gb

molecule MOL {
0 1

O	 -0.211781	 -1.347273	 -1.026894
C	 0.714843	 -1.278473	 -0.285481
C	 1.245376	 -0.013843	 0.345420
O	 1.421721	 -2.336235	 0.092798
C	 0.455112	 1.231400	 -0.050772
H	 1.246869	 -0.170196	 1.419078
H	 2.289574	 0.077438	 0.057298
C	 -0.998893	 1.219485	 0.433193
H	 0.482531	 1.345121	 -1.130325
H	 0.957290	 2.103070	 0.354729
C	 -1.883438	 0.145884	 -0.207175
H	 -1.431207	 2.195402	 0.224832
H	 -1.019646	 1.105716	 1.516076
C	 -3.347647	 0.245583	 0.225435
H	 -1.822183	 0.231698	 -1.291012
H	 -1.510341	 -0.844814	 0.042401
C	 -4.239992	 -0.825570	 -0.404234
H	 -3.732888	 1.230466	 -0.033079
H	 -3.408585	 0.170602	 1.310038
C	 -5.701275	 -0.716658	 0.029921
H	 -4.179496	 -0.752714	 -1.488058
H	 -3.859041	 -1.810759	 -0.143352
H	 -6.308102	 -1.488908	 -0.432678
H	 -6.122175	 0.245478	 -0.248167
H	 -5.799072	 -0.820114	 1.106957
C	 1.029004	 -3.592003	 -0.430370
H	 0.015324	 -3.825373	 -0.137974
H	 1.714106	 -4.313141	 -0.012517
H	 1.096564	 -3.592492	 -1.508782

	symmetry c1
}
set optking {
	frozen_dihedral = ("
		21 17 14 11,
		17 14 11 15,
		15 11 8 5,
		11 8 5 9,
		2 4 26 27,
		1 2 4 26,
		6 3 2 1
	")
}

ee = energy('scf')
oeprop('DIPOLE', 'QUADRUPOLE', 'MULLIKEN_CHARGES')
f=open( 'psi4out.xyz', 'w' )
f.write( "29  " )
f.write( str(ee) + "\n" )
f.write( MOL.save_string_xyz() )
f.close()
--------------------------------------------------------------------------

    Molecular point group: c1

    Geometry (in Angstrom), charge = 0, multiplicity = 1:

       Center              X                  Y                   Z               Mass
    ------------   -----------------  -----------------  -----------------  -----------------
           O          0.831698625167    -0.645884726269    -0.903785922313    15.994914619560
           C          1.758322625167    -0.577084726269    -0.162372922313    12.000000000000
           C          2.288855625167     0.687545273731     0.468528077687    12.000000000000
           O          2.465200625167    -1.634846726269     0.215906077687    15.994914619560
           C          1.498591625167     1.932788273731     0.072336077687    12.000000000000
           H          2.290348625167     0.531192273731     1.542186077687     1.007825032070
           H          3.333053625167     0.778826273731     0.180406077687     1.007825032070
           C          0.044586625167     1.920873273731     0.556301077687    12.000000000000
           H          1.526010625167     2.046509273731    -1.007216922313     1.007825032070
           H          2.000769625167     2.804458273731     0.477837077687     1.007825032070
           C         -0.839958374833     0.847272273731    -0.084066922313    12.000000000000
           H         -0.387727374833     2.896790273731     0.347940077687     1.007825032070
           H          0.023833625167     1.807104273731     1.639184077687     1.007825032070
           C         -2.304167374833     0.946971273731     0.348543077687    12.000000000000
           H         -0.778703374833     0.933086273731    -1.167903922313     1.007825032070
           H         -0.466861374833    -0.143425726269     0.165509077687     1.007825032070
           C         -3.196512374833    -0.124181726269    -0.281125922313    12.000000000000
           H         -2.689408374833     1.931854273731     0.090029077687     1.007825032070
           H         -2.365105374833     0.871990273731     1.433146077687     1.007825032070
           C         -4.657795374833    -0.015269726269     0.153029077687    12.000000000000
           H         -3.136016374833    -0.051325726269    -1.364949922313     1.007825032070
           H         -2.815561374833    -1.109370726269    -0.020243922313     1.007825032070
           H         -5.264622374833    -0.787519726269    -0.309569922313     1.007825032070
           H         -5.078695374833     0.946866273731    -0.125058922313     1.007825032070
           H         -4.755592374833    -0.118725726269     1.230065077687     1.007825032070
           C          2.072483625167    -2.890614726269    -0.307261922313    12.000000000000
           H          1.058803625167    -3.123984726269    -0.014865922313     1.007825032070
           H          2.757585625167    -3.611752726269     0.110591077687     1.007825032070
           H          2.140043625167    -2.891103726269    -1.385673922313     1.007825032070

  Charge       = 0
  Multiplicity = 1
  Basis Set: 6-31G*
  Basis Set:

    Orbital Energies (a.u.)
    -----------------------

    Doubly Occupied:

       1A    -20.606994     2A    -20.546262     3A    -11.375332
       4A    -11.283852     5A    -11.238140     6A    -11.221150
       7A    -11.207697     8A    -11.201730     9A    -11.198630
      10A    -11.194373    11A    -11.182431    12A     -1.475056
      13A     -1.371790    14A     -1.090306    15A     -1.057775
      16A     -1.013729    17A     -0.972603    18A     -0.921850
      19A     -0.854958    20A     -0.801257    21A     -0.782865
      22A     -0.754363    23A     -0.705021    24A     -0.688488
      25A     -0.677836    26A     -0.640923    27A     -0.617950
      28A     -0.610739    29A     -0.584042    30A     -0.567150
      31A     -0.562351    32A     -0.555052    33A     -0.529430
      34A     -0.526545    35A     -0.519097    36A     -0.504349
      37A     -0.490013    38A     -0.472589    39A     -0.467368
      40A     -0.458422    41A     -0.454271    42A     -0.436539
      43A     -0.423866    44A     -0.402999

  @DF-RHF Final Energy:  -501.00849348518238

   => Energetics <=

    Nuclear Repulsion Energy =            654.0453266781781849
    One-Electron Energy =               -1979.6110948917928454
    Two-Electron Energy =                 824.5572747284336401
    DFT Exchange-Correlation Energy =       0.0000000000000000
    Empirical Dispersion Energy =           0.0000000000000000
    PCM Polarization Energy =               0.0000000000000000
    EFP Energy =                            0.0000000000000000
    Total Energy =                       -501.0084934851811340

  Mulliken Charges: (a.u.)
   Center  Symbol    Alpha    Beta     Spin     Total
       1     O     4.28406  4.28406  0.00000 -0.56811
       2     C     2.60535  2.60535  0.00000  0.78930
       3     C     3.20779  3.20779  0.00000 -0.41559
       4     O     4.30631  4.30631  0.00000 -0.61262
       5     C     3.15684  3.15684  0.00000 -0.31369
       6     H     0.39934  0.39934  0.00000  0.20132
       7     H     0.39712  0.39712  0.00000  0.20576
       8     C     3.15834  3.15834  0.00000 -0.31668
       9     H     0.41264  0.41264  0.00000  0.17472
      10     H     0.41630  0.41630  0.00000  0.16739
      11     C     3.14263  3.14263  0.00000 -0.28526
      12     H     0.42163  0.42163  0.00000  0.15675
      13     H     0.42758  0.42758  0.00000  0.14485
      14     C     3.14778  3.14778  0.00000 -0.29555
      15     H     0.41952  0.41952  0.00000  0.16095
      16     H     0.41090  0.41090  0.00000  0.17821
      17     C     3.14882  3.14882  0.00000 -0.29764
      18     H     0.43102  0.43102  0.00000  0.13795
      19     H     0.43141  0.43141  0.00000  0.13718
      20     C     3.23834  3.23834  0.00000 -0.47668
      21     H     0.42323  0.42323  0.00000  0.15355
      22     H     0.42526  0.42526  0.00000  0.14948
      23     H     0.42191  0.42191  0.00000  0.15618
      24     H     0.42313  0.42313  0.00000  0.15374
      25     H     0.42395  0.42395  0.00000  0.15210
      26     C     3.09292  3.09292  0.00000 -0.18585
      27     H     0.40981  0.40981  0.00000  0.18038
      28     H     0.40747  0.40747  0.00000  0.18507
      29     H     0.40861  0.40861  0.00000  0.18279

   Total alpha = 44.00000, Total beta = 44.00000, Total charge = -0.00000
