  ==> Input File <==

--------------------------------------------------------------------------
set {
	reference rhf
	basis 6-31G*
}

set_num_threads( 4 )
memory 2 gb

molecule MOL {
0 1

O	 -2.439739	 -0.935931	 -0.423848
C	 -1.921153	 0.064240	 -0.045697
C	 -2.624470	 1.379923	 0.150949
O	 -0.632575	 0.154573	 0.251549
H	 -2.168117	 2.136577	 -0.476876
H	 -3.669540	 1.273223	 -0.098610
H	 -2.519365	 1.700893	 1.180846
C	 0.160891	 -1.019931	 0.106212
C	 1.589627	 -0.672828	 0.480843
H	 0.089836	 -1.367806	 -0.916050
H	 -0.238459	 -1.792301	 0.749618
C	 2.450569	 -1.886115	 0.837373
H	 1.548906	 0.007816	 1.328780
H	 2.044255	 -0.123806	 -0.339612
C	 3.874076	 -1.498215	 1.235070
H	 1.982107	 -2.430060	 1.655154
H	 2.481498	 -2.565234	 -0.008321
H	 4.464162	 -2.375048	 1.482041
H	 3.876403	 -0.843184	 2.101792
H	 4.378763	 -0.977385	 0.426301

	symmetry c1
}
set optking {
	frozen_dihedral = ("
		12 9 8 10
	")
}

ee = optimize('scf')
oeprop('DIPOLE', 'QUADRUPOLE', 'MULLIKEN_CHARGES')
f=open( 'psi4out.xyz', 'w' )
f.write( "20  " )
f.write( str(ee) + "\n" )
f.write( MOL.save_string_xyz() )
f.close()
--------------------------------------------------------------------------

    Molecular point group: c1
  Charge       = 0
  Multiplicity = 1
  Basis Set: 6-31G*
  Basis Set:
  @DF-RHF Final Energy:  -383.94400898543557
    Total Energy =                       -383.9440089854356302
    Molecular point group: c1
  Basis Set: 6-31G*
  Basis Set:
  Basis Set: 6-31G*
  Basis Set:
  @DF-RHF Final Energy:  -383.94415681454404
    Total Energy =                       -383.9441568145438168
  Basis Set: 6-31G*
  Basis Set:
  Basis Set: 6-31G*
  Basis Set:
  @DF-RHF Final Energy:  -383.94412715870794
    Total Energy =                       -383.9441271587080564
  Basis Set: 6-31G*
  Basis Set:
  Basis Set: 6-31G*
  Basis Set:
  @DF-RHF Final Energy:  -383.94431670893965
    Total Energy =                       -383.9443167089397093
  Basis Set: 6-31G*
  Basis Set:
  Charge       = 0
  Multiplicity = 1
  Basis Set: 6-31G*
  Basis Set:

    Orbital Energies (a.u.)
    -----------------------

    Doubly Occupied:

       1A    -20.600639     2A    -20.543185     3A    -11.373560
       4A    -11.281968     5A    -11.232670     6A    -11.226458
       7A    -11.224323     8A    -11.215954     9A     -1.466891
      10A     -1.361088    11A     -1.087680    12A     -1.029369
      13A     -0.980511    14A     -0.881337    15A     -0.808375
      16A     -0.775415    17A     -0.691996    18A     -0.685128
      19A     -0.667630    20A     -0.637537    21A     -0.595486
      22A     -0.593827    23A     -0.570121    24A     -0.559657
      25A     -0.544980    26A     -0.519126    27A     -0.508205
      28A     -0.484600    29A     -0.481678    30A     -0.475536
      31A     -0.451902    32A     -0.436577

  @DF-RHF Final Energy:  -383.94431598114824

   => Energetics <=

    Nuclear Repulsion Energy =            378.8395434577025185
    One-Electron Energy =               -1273.5808976379598789
    Two-Electron Energy =                 510.7970381991091813
    DFT Exchange-Correlation Energy =       0.0000000000000000
    Empirical Dispersion Energy =           0.0000000000000000
    PCM Polarization Energy =               0.0000000000000000
    EFP Energy =                            0.0000000000000000
    Total Energy =                       -383.9443159811481223
    Molecular point group: c1
  Basis Set: 6-31G*
  Basis Set:

  -Total Gradient:
     Atom            X                  Y                   Z
    ------   -----------------  -----------------  -----------------
       1        0.000138070389     0.000054159454    -0.000108559277
       2       -0.000163155997    -0.000002879432     0.000134259102
       3        0.000012425715     0.000002992948    -0.000007600211
       4       -0.000099082771     0.000092480871    -0.000141134426
       5        0.000003765309    -0.000004245593    -0.000003726724
       6       -0.000003911075     0.000001185978     0.000003969344
       7       -0.000001600908     0.000000447729    -0.000004149615
       8        0.000354548924    -0.004062574177     0.002895944305
       9        0.000846796194     0.000427191932    -0.003903093531
      10       -0.000555164755     0.003357612406    -0.001229475358
      11        0.000225592587     0.000010747014    -0.000109330407
      12       -0.000660438818     0.000173041708     0.002480501640
      13       -0.000099341228    -0.000018342279    -0.000023706649
      14       -0.000057477763    -0.000032759354    -0.000032430233
      15        0.000060893612    -0.000040367587     0.000017334111
      16       -0.000047755552     0.000017169552    -0.000024523170
      17        0.000002346114     0.000000201226     0.000017290513
      18        0.000035993982     0.000013385251    -0.000003769282
      19        0.000018343091    -0.000003383086     0.000033555275
      20       -0.000010847045     0.000013935441     0.000008644591

  **** Optimization is complete! (in 5 steps) ****
    Final optimized geometry and variables:
    Molecular point group: c1

    Geometry (in Angstrom), charge = 0, multiplicity = 1:

    O           -2.471247015385    -0.388796278918    -0.788872077059
    C           -1.965610492455     0.608338800115    -0.385204790492
    C           -2.678465139641     1.919385310755    -0.190888060572
    O           -0.687200470244     0.697855547968    -0.048729498646
    H           -2.206498944416     2.685413468777    -0.795289901615
    H           -3.715691414937     1.813162616604    -0.471559964079
    H           -2.603592015174     2.226787710551     0.845783511851
    C            0.113310918125    -0.475133818386    -0.183738576836
    C            1.536537718308    -0.103061514085     0.199217460909
    H            0.048340730806    -0.806414488316    -1.211269530019
    H           -0.288243993045    -1.249660062859     0.455471810625
    C            2.391434590773    -1.329107143369     0.527664286029
    H            1.495468301721     0.546444659974     1.068853638994
    H            1.989165258474     0.474492630813    -0.601716324986
    C            3.833588947139    -0.964840757401     0.877551661192
    H            1.941084207830    -1.864373255257     1.360050021829
    H            2.389280739378    -2.017274869325    -0.315427237195
    H            4.414892815652    -1.850345919923     1.113557774253
    H            3.872221681693    -0.303574315097     1.738414795991
    H            4.321885317391    -0.458713569085     0.049945158746

  Mulliken Charges: (a.u.)
   Center  Symbol    Alpha    Beta     Spin     Total
       1     O     4.28381  4.28381  0.00000 -0.56763
       2     C     2.62011  2.62011  0.00000  0.75977
       3     C     3.28150  3.28150  0.00000 -0.56300
       4     O     4.31141  4.31141  0.00000 -0.62283
       5     H     0.40064  0.40064  0.00000  0.19873
       6     H     0.39711  0.39711  0.00000  0.20577
       7     H     0.40074  0.40074  0.00000  0.19853
       8     C     2.99577  2.99577  0.00000  0.00846
       9     C     3.16491  3.16491  0.00000 -0.32982
      10     H     0.40935  0.40935  0.00000  0.18130
      11     H     0.41099  0.41099  0.00000  0.17802
      12     C     3.16060  3.16060  0.00000 -0.32121
      13     H     0.41208  0.41208  0.00000  0.17583
      14     H     0.41520  0.41520  0.00000  0.16959
      15     C     3.23953  3.23953  0.00000 -0.47906
      16     H     0.41921  0.41921  0.00000  0.16158
      17     H     0.42015  0.42015  0.00000  0.15971
      18     H     0.41695  0.41695  0.00000  0.16609
      19     H     0.41993  0.41993  0.00000  0.16015
      20     H     0.41999  0.41999  0.00000  0.16001

   Total alpha = 32.00000, Total beta = 32.00000, Total charge = -0.00000
