  ==> Input File <==

--------------------------------------------------------------------------
set {
	reference rhf
	basis 6-31G*
}

set_num_threads( 1 )
memory 2 gb

molecule MOL {
0 1

H	 0.921390	 1.071005	 -1.900496
O	 1.196311	 1.439145	 -1.071795
C	 0.709265	 0.639550	 -0.033818
C	 -0.793441	 0.596080	 0.058728
H	 1.118757	 1.050358	 0.882018
H	 1.091521	 -0.377331	 -0.116636
C	 -1.530462	 -0.493172	 -0.025500
H	 -1.268471	 1.554324	 0.202247
H	 -1.092586	 -1.461565	 -0.186463
H	 -2.602122	 -0.450675	 0.050101

	symmetry c1
}
set optking {
	frozen_dihedral = ("
		5 3 2 1,
		3 4 7 9
	")
}

ee = energy('scf')
oeprop('DIPOLE', 'QUADRUPOLE', 'MULLIKEN_CHARGES')
f=open( 'psi4out.xyz', 'w' )
f.write( "10  " )
f.write( str(ee) + "\n" )
f.write( MOL.save_string_xyz() )
f.close()
--------------------------------------------------------------------------

    Molecular point group: c1

    Geometry (in Angstrom), charge = 0, multiplicity = 1:

       Center              X                  Y                   Z               Mass
    ------------   -----------------  -----------------  -----------------  -----------------
           H          0.957340022206     0.496842541398    -1.586447763870     1.007825032070
           O          1.232261022206     0.864982541398    -0.757746763870    15.994914619560
           C          0.745215022206     0.065387541398     0.280230236130    12.000000000000
           C         -0.757490977794     0.021917541398     0.372776236130    12.000000000000
           H          1.154707022206     0.476195541398     1.196066236130     1.007825032070
           H          1.127471022206    -0.951493458602     0.197412236130     1.007825032070
           C         -1.494511977794    -1.067334458602     0.288548236130    12.000000000000
           H         -1.232520977794     0.980161541398     0.516295236130     1.007825032070
           H         -1.056635977794    -2.035727458602     0.127585236130     1.007825032070
           H         -2.566171977794    -1.024837458602     0.364149236130     1.007825032070

  Charge       = 0
  Multiplicity = 1
  Basis Set: 6-31G*
  Basis Set:

    Orbital Energies (a.u.)
    -----------------------

    Doubly Occupied:

       1A    -20.558730     2A    -11.276213     3A    -11.231715
       4A    -11.228003     5A     -1.367075     6A     -1.064015
       7A     -0.922232     8A     -0.774674     9A     -0.705130
      10A     -0.622918    11A     -0.616885    12A     -0.605643
      13A     -0.528403    14A     -0.489664    15A     -0.441761
      16A     -0.375052

  @DF-RHF Final Energy:  -191.91712197532624

   => Energetics <=

    Nuclear Repulsion Energy =            117.3629900294950232
    One-Electron Energy =                -492.9439748573666975
    Two-Electron Energy =                 183.6638628525454919
    DFT Exchange-Correlation Energy =       0.0000000000000000
    Empirical Dispersion Energy =           0.0000000000000000
    PCM Polarization Energy =               0.0000000000000000
    EFP Energy =                            0.0000000000000000
    Total Energy =                       -191.9171219753262108

  Mulliken Charges: (a.u.)
   Center  Symbol    Alpha    Beta     Spin     Total
       1     H     0.28140  0.28140  0.00000  0.43720
       2     O     4.36558  4.36558  0.00000 -0.73116
       3     C     3.00987  3.00987  0.00000 -0.01974
       4     C     3.08285  3.08285  0.00000 -0.16570
       5     H     0.41134  0.41134  0.00000  0.17732
       6     H     0.42689  0.42689  0.00000  0.14623
       7     C     3.19713  3.19713  0.00000 -0.39426
       8     H     0.40473  0.40473  0.00000  0.19054
       9     H     0.41208  0.41208  0.00000  0.17585
      10     H     0.40814  0.40814  0.00000  0.18373

   Total alpha = 16.00000, Total beta = 16.00000, Total charge = -0.00000
