  ==> Input File <==

--------------------------------------------------------------------------
set {
	reference rhf
	basis 6-31G*
}

set_num_threads( 4 )
memory 2 gb

molecule MOL {
0 1

H	 -3.135461	 -1.215070	 0.001379
O	 -2.310168	 -0.871793	 -0.309793
C	 -2.026376	 0.340750	 0.341611
C	 -0.673256	 0.843270	 -0.132153
H	 -2.792215	 1.080697	 0.115987
H	 -2.013526	 0.200402	 1.421792
C	 0.486613	 -0.083066	 0.235839
H	 -0.715586	 0.970948	 -1.210718
H	 -0.508072	 1.829858	 0.297090
C	 0.080684	 -1.557171	 0.281132
H	 0.887596	 0.214628	 1.199221
H	 1.291017	 0.045073	 -0.487595
C	 1.241133	 -2.483442	 0.643145
H	 -0.722141	 -1.686714	 1.003910
H	 -0.327634	 -1.851440	 -0.683817
H	 1.648694	 -2.236414	 1.619240
H	 0.923597	 -3.521419	 0.669954
H	 2.047571	 -2.402916	 -0.080515

	symmetry c1
}
set optking {
	frozen_dihedral = ("
		10 7 4 8
	")
}

ee = optimize('scf')
oeprop('DIPOLE', 'QUADRUPOLE', 'MULLIKEN_CHARGES')
f=open( 'psi4out.xyz', 'w' )
f.write( "18  " )
f.write( str(ee) + "\n" )
f.write( MOL.save_string_xyz() )
f.close()
--------------------------------------------------------------------------

    Molecular point group: c1
  Charge       = 0
  Multiplicity = 1
  Basis Set: 6-31G*
  Basis Set:
  @DF-RHF Final Energy:  -271.16359131073330
    Total Energy =                       -271.1635913107331817
    Molecular point group: c1
  Basis Set: 6-31G*
  Basis Set:
  Basis Set: 6-31G*
  Basis Set:
  @DF-RHF Final Energy:  -271.17158106121491
    Total Energy =                       -271.1715810612149085
  Basis Set: 6-31G*
  Basis Set:
  Basis Set: 6-31G*
  Basis Set:
  @DF-RHF Final Energy:  -271.17304830273389
    Total Energy =                       -271.1730483027338323
  Basis Set: 6-31G*
  Basis Set:
  Basis Set: 6-31G*
  Basis Set:
  @DF-RHF Final Energy:  -271.17343535476255
    Total Energy =                       -271.1734353547625460
  Basis Set: 6-31G*
  Basis Set:
  @DF-RHF Final Energy:  -271.17344667087292
    Total Energy =                       -271.1734466708727496
  Basis Set: 6-31G*
  Basis Set:
  @DF-RHF Final Energy:  -271.17349522207746
    Total Energy =                       -271.1734952220774062
  Basis Set: 6-31G*
  Basis Set:
  Basis Set: 6-31G*
  Basis Set:
  @DF-RHF Final Energy:  -271.17351653965466
    Total Energy =                       -271.1735165396546563
  Basis Set: 6-31G*
  Basis Set:
  Basis Set: 6-31G*
  Basis Set:
  @DF-RHF Final Energy:  -271.17352155115259
    Total Energy =                       -271.1735215511525894
  Basis Set: 6-31G*
  Basis Set:
  Charge       = 0
  Multiplicity = 1
  Basis Set: 6-31G*
  Basis Set:

    Orbital Energies (a.u.)
    -----------------------

    Doubly Occupied:

       1A    -20.553306     2A    -11.269269     3A    -11.213302
       4A    -11.210329     5A    -11.203397     6A    -11.201329
       7A     -1.360213     8A     -1.070826     9A     -1.005917
      10A     -0.912825    11A     -0.829981    12A     -0.768704
      13A     -0.702766    14A     -0.648718    15A     -0.618780
      16A     -0.578121    17A     -0.568343    18A     -0.550887
      19A     -0.531667    20A     -0.502778    21A     -0.485063
      22A     -0.465798    23A     -0.449059    24A     -0.447352
      25A     -0.426006

  @DF-RHF Final Energy:  -271.17352158935034

   => Energetics <=

    Nuclear Repulsion Energy =            254.9617733487540079
    One-Electron Energy =                -873.1211183089552605
    Two-Electron Energy =                 346.9858233708507669
    DFT Exchange-Correlation Energy =       0.0000000000000000
    Empirical Dispersion Energy =           0.0000000000000000
    PCM Polarization Energy =               0.0000000000000000
    EFP Energy =                            0.0000000000000000
    Total Energy =                       -271.1735215893504574
    Molecular point group: c1
  Basis Set: 6-31G*
  Basis Set:

  -Total Gradient:
     Atom            X                  Y                   Z
    ------   -----------------  -----------------  -----------------
       1       -0.000003661370    -0.000000509348     0.000000956808
       2        0.000002754726     0.000009346311     0.000011868056
       3       -0.000002616716     0.000002666098    -0.000003170670
       4       -0.004449582981    -0.005047145193     0.001191025164
       5       -0.000006474143    -0.000005983921    -0.000001786172
       6       -0.000005859160    -0.000005856704    -0.000003010667
       7        0.002211149117     0.000507569901    -0.005431227628
       8        0.003222809589     0.004177140249     0.000430376668
       9        0.000004126605     0.000000072298     0.000000325331
      10       -0.000977857004     0.000352622980     0.003798354652
      11        0.000002146549     0.000004487932     0.000000495178
      12       -0.000002160790    -0.000003589633     0.000000132204
      13        0.000001002363     0.000002238856     0.000001870913
      14        0.000005953400     0.000010114547    -0.000002779749
      15       -0.000005848971    -0.000004112537     0.000002547659
      16        0.000002510252    -0.000006088387     0.000005795094
      17        0.000000723482     0.000003308501    -0.000005356420
      18        0.000000885053     0.000003718048     0.000003583581

  **** Optimization is complete! (in 9 steps) ****
    Final optimized geometry and variables:
    Molecular point group: c1

    Geometry (in Angstrom), charge = 0, multiplicity = 1:

    H           -2.836508243262    -0.267308492728    -0.252143273849
    O           -1.987630501076    -0.011923996703    -0.584381607682
    C           -1.479451190192     1.048005867131     0.185423958905
    C           -0.090518616815     1.415966192130    -0.309869166438
    H           -2.128376124315     1.917013176590     0.094744526414
    H           -1.444867885006     0.778015050320     1.240052106658
    C            1.072527724096     0.479782313959     0.076014743222
    H           -0.125987068617     1.554425617596    -1.386484347431
    H            0.139445678310     2.401719084936     0.090622883127
    C            0.771660516818    -1.021070737257     0.140226062979
    H            1.443643786504     0.781968705417     1.054515811806
    H            1.892454045452     0.652903098263    -0.616463098818
    C            2.013111931760    -1.832895530890     0.510831624147
    H           -0.010009886355    -1.209493822588     0.868730132675
    H            0.381159520259    -1.362880002143    -0.812534225206
    H            2.407936225257    -1.532593674945     1.478024514053
    H            1.787109352542    -2.893751479452     0.562211831951
    H            2.804288232208    -1.699866365491    -0.222095774382

  Mulliken Charges: (a.u.)
   Center  Symbol    Alpha    Beta     Spin     Total
       1     H     0.28115  0.28115  0.00000  0.43771
       2     O     4.36794  4.36794  0.00000 -0.73588
       3     C     3.00155  3.00155  0.00000 -0.00309
       4     C     3.15946  3.15946  0.00000 -0.31891
       5     H     0.42816  0.42816  0.00000  0.14368
       6     H     0.43174  0.43174  0.00000  0.13651
       7     C     3.15471  3.15471  0.00000 -0.30941
       8     H     0.41237  0.41237  0.00000  0.17527
       9     H     0.42261  0.42261  0.00000  0.15478
      10     C     3.14685  3.14685  0.00000 -0.29371
      11     H     0.42684  0.42684  0.00000  0.14632
      12     H     0.42132  0.42132  0.00000  0.15735
      13     C     3.24101  3.24101  0.00000 -0.48202
      14     H     0.42336  0.42336  0.00000  0.15329
      15     H     0.41268  0.41268  0.00000  0.17463
      16     H     0.42474  0.42474  0.00000  0.15052
      17     H     0.42028  0.42028  0.00000  0.15943
      18     H     0.42323  0.42323  0.00000  0.15353

   Total alpha = 25.00000, Total beta = 25.00000, Total charge = -0.00000
