                              Psi4 1.0.54 Driver

  ==> Input File <==

--------------------------------------------------------------------------
set {
	reference rhf
	basis cc-pvtz
}

set_num_threads( 4 )
memory 2 gb

molecule MOL {
0 1

O	 2.508748	 1.909247	 0.434076
C	 1.731521	 1.881207	 1.331428
C	 0.470805	 1.041959	 1.285724
C	 1.951978	 2.689192	 2.590310
C	 0.288398	 0.247429	 0.000314
H	 0.486555	 0.380318	 2.148887
H	 -0.372596	 1.708922	 1.449558
C	 -0.993089	 -0.581367	 -0.000217
H	 1.146044	 -0.400089	 -0.142088
H	 0.286270	 0.929736	 -0.842055
C	 -2.258482	 0.271340	 0.000669
H	 -1.002280	 -1.233920	 -0.870484
H	 -1.002061	 -1.235367	 0.868958
C	 -3.544441	 -0.550271	 -0.000253
H	 -2.250545	 0.925250	 -0.867923
H	 -2.250598	 0.923423	 0.870642
C	 -4.804551	 0.308747	 0.000556
H	 -3.553737	 -1.201524	 -0.870151
H	 -3.553831	 -1.203282	 0.868313
H	 -4.842050	 0.949078	 -0.874436
H	 -5.698404	 -0.304480	 -0.000254
H	 -4.842277	 0.947103	 0.876982
H	 1.990894	 2.033810	 3.453449
H	 2.874673	 3.243292	 2.512864
H	 1.126073	 3.375041	 2.743720

	symmetry c1
}
set optking {
	frozen_dihedral = ("
		9 5 8 12
	")
}

ee,wfn = optimize('scf', return_wfn=True)
oeprop( wfn, 'DIPOLE', 'QUADRUPOLE', 'MULLIKEN_CHARGES')
f=open( 'psi4out.xyz', 'w' )
f.write( "25  " )
f.write( str(ee) + "\n" )
f.write( MOL.save_string_xyz() )
f.close()
--------------------------------------------------------------------------

    Molecular point group: c1
  Charge       = 0
  Multiplicity = 1
  Basis Set: CC-PVTZ
  Basis Set:
  @DF-RHF Final Energy:  -387.27218533182815
    Total Energy =                       -387.2721853318281546
    Molecular point group: c1
  Basis Set: CC-PVTZ
  Basis Set:
  Basis Set: CC-PVTZ
  Basis Set:
  @DF-RHF Final Energy:  -387.27241809906832
    Total Energy =                       -387.2724180990684317
  Basis Set: CC-PVTZ
  Basis Set:
  Basis Set: CC-PVTZ
  Basis Set:
  @DF-RHF Final Energy:  -387.27288805541008
    Total Energy =                       -387.2728880554099078
  Basis Set: CC-PVTZ
  Basis Set:
  Basis Set: CC-PVTZ
  Basis Set:
  @DF-RHF Final Energy:  -387.27271691173155
    Total Energy =                       -387.2727169117312087
  Basis Set: CC-PVTZ
  Basis Set:
  Basis Set: CC-PVTZ
  Basis Set:
  @DF-RHF Final Energy:  -387.27290239142178
    Total Energy =                       -387.2729023914217805
  Basis Set: CC-PVTZ
  Basis Set:
  Basis Set: CC-PVTZ
  Basis Set:
  @DF-RHF Final Energy:  -387.27290844304338
    Total Energy =                       -387.2729084430432067
  Basis Set: CC-PVTZ
  Basis Set:
  Charge       = 0
  Multiplicity = 1
  Basis Set: CC-PVTZ
  Basis Set:

    Orbital Energies (a.u.)
    -----------------------

    Doubly Occupied:

       1A    -20.538762     2A    -11.320431     3A    -11.229641
       4A    -11.226517     5A    -11.215508     6A    -11.215361
       7A    -11.214887     8A    -11.214027     9A    -11.208605
      10A     -1.398860    11A     -1.096025    12A     -1.057200
      13A     -1.015633    14A     -0.969112    15A     -0.898427
      16A     -0.816539    17A     -0.788442    18A     -0.732194
      19A     -0.660651    20A     -0.650989    21A     -0.639587
      22A     -0.623466    23A     -0.598665    24A     -0.580174
      25A     -0.568612    26A     -0.567798    27A     -0.543724
      28A     -0.529031    29A     -0.517215    30A     -0.495571
      31A     -0.489526    32A     -0.477826    33A     -0.463832
      34A     -0.459776    35A     -0.448163    36A     -0.402706

  @DF-RHF Final Energy:  -387.27290865322868

   => Energetics <=

    Nuclear Repulsion Energy =            445.1132004669016169
    One-Electron Energy =               -1407.0252598990114166
    Two-Electron Energy =                 574.6391507788808894
    DFT Exchange-Correlation Energy =       0.0000000000000000
    Empirical Dispersion Energy =           0.0000000000000000
    PCM Polarization Energy =               0.0000000000000000
    EFP Energy =                            0.0000000000000000
    Total Energy =                       -387.2729086532289102
    Molecular point group: c1
  Basis Set: CC-PVTZ
  Basis Set:

  -Total Gradient:
     Atom            X                  Y                   Z
    ------   -----------------  -----------------  -----------------
       1       -0.000017378578    -0.000031826934    -0.000020994600
       2       -0.000002281427     0.000023454156     0.000010425275
       3        0.000017470233     0.000016405777     0.000009046903
       4       -0.000024672025    -0.000015647332     0.000012303912
       5        0.000000212011     0.000016581612     0.000043156169
       6        0.000013782237     0.000002584434    -0.000000189811
       7        0.000015169240     0.000003610066     0.000004023508
       8       -0.000015158508     0.000011552090     0.000016300745
       9       -0.000000205561    -0.000007363899    -0.000048612723
      10        0.000000863691     0.000003532982     0.000000893429
      11       -0.000031535824     0.000008692775    -0.000043806396
      12        0.000019914258    -0.000022934300     0.000024869347
      13        0.000009650348    -0.000013285666     0.000004280016
      14        0.000008514206     0.000000728446     0.000016584411
      15       -0.000011823008    -0.000000255127    -0.000005309003
      16       -0.000023125554    -0.000013105194    -0.000012613016
      17        0.000019812684     0.000023496934    -0.000001271543
      18        0.000007680660     0.000017362410    -0.000011395177
      19        0.000015129827    -0.000012028237     0.000003150127
      20       -0.000008210196     0.000002210442    -0.000007105018
      21        0.000013823820    -0.000007401134     0.000009427192
      22        0.000001216738     0.000003229920     0.000001968584
      23       -0.000002776622     0.000001204267     0.000008716631
      24       -0.000003999466    -0.000011387071    -0.000015839720
      25       -0.000002073180     0.000000588583     0.000001990756

  **** Optimization is complete! (in 7 steps) ****
    Final optimized geometry and variables:
    Molecular point group: c1

    Geometry (in Angstrom), charge = 0, multiplicity = 1:

    O            3.101147751103     0.990891748968    -0.239355998713
    C            2.333463131132     1.055653274047     0.664158240384
    C            1.010233566422     0.316574364507     0.660595672326
    C            2.628537226136     1.890231305159     1.890196372858
    C            0.767344815199    -0.520260463527    -0.589334520416
    H            0.982288886763    -0.307629989989     1.551273754322
    H            0.229551280499     1.058029489143     0.802020632684
    C           -0.523165162212    -1.340439567523    -0.551318409638
    H            1.608368484357    -1.189454764171    -0.722977744675
    H            0.764335764930     0.128873617329    -1.457974966582
    C           -1.812537233463    -0.521324764543    -0.572352183478
    H           -0.523488898013    -2.006893203207    -1.408819247449
    H           -0.518896912590    -1.982137097675     0.327229627633
    C           -3.068990110528    -1.385597601913    -0.637990950284
    H           -1.795400875642     0.149897313791    -1.428096587274
    H           -1.869945795623     0.110548035892     0.309456201398
    C           -4.357879291368    -0.570647659915    -0.652006850789
    H           -3.028147256706    -2.009729024055    -1.526277600630
    H           -3.081733708081    -2.064800715023     0.210225032064
    H           -4.390812345519     0.094935374001    -1.508193721747
    H           -5.228887938399    -1.214002270894    -0.700294066970
    H           -4.446338885287     0.038254272551     0.241754632366
    H            2.625169485018     1.266258212086     2.777137688024
    H            3.590680750747     2.367458635229     1.785333922797
    H            1.860053167797     2.643719613381     2.023334803973

  Mulliken Charges: (a.u.)
   Center  Symbol    Alpha    Beta     Spin     Total
       1     O     4.17067  4.17067  0.00000 -0.34135
       2     C     2.86076  2.86076  0.00000  0.27849
       3     C     3.11332  3.11332  0.00000 -0.22664
       4     C     3.15072  3.15072  0.00000 -0.30144
       5     C     3.09302  3.09302  0.00000 -0.18603
       6     H     0.44552  0.44552  0.00000  0.10895
       7     H     0.44449  0.44449  0.00000  0.11103
       8     C     3.10109  3.10109  0.00000 -0.20218
       9     H     0.43986  0.43986  0.00000  0.12028
      10     H     0.44581  0.44581  0.00000  0.10838
      11     C     3.08905  3.08905  0.00000 -0.17809
      12     H     0.44581  0.44581  0.00000  0.10837
      13     H     0.45439  0.45439  0.00000  0.09121
      14     C     3.08404  3.08404  0.00000 -0.16809
      15     H     0.45320  0.45320  0.00000  0.09360
      16     H     0.45594  0.45594  0.00000  0.08813
      17     C     3.14969  3.14969  0.00000 -0.29938
      18     H     0.45297  0.45297  0.00000  0.09407
      19     H     0.45468  0.45468  0.00000  0.09064
      20     H     0.45464  0.45464  0.00000  0.09072
      21     H     0.44796  0.44796  0.00000  0.10408
      22     H     0.45608  0.45608  0.00000  0.08784
      23     H     0.45046  0.45046  0.00000  0.09908
      24     H     0.43526  0.43526  0.00000  0.12948
      25     H     0.45057  0.45057  0.00000  0.09886

   Total alpha = 36.00000, Total beta = 36.00000, Total charge = -0.00000

*** Psi4 exiting successfully. Buy a developer a beer!
