  ==> Input File <==

--------------------------------------------------------------------------
set {
	reference rhf
	basis cc-pvtz
}

set_num_threads( 4 )
memory 2 gb

molecule MOL {
0 1

H	 2.183650	 -1.324264	 0.007013
N	 2.433987	 -0.362316	 -0.080024
C	 1.263552	 0.494993	 0.021953
H	 2.879608	 -0.252990	 -0.967045
C	 -0.016533	 -0.325589	 -0.026925
H	 1.280915	 1.180773	 -0.818522
H	 1.263064	 1.106893	 0.925038
C	 -1.280353	 0.525521	 0.047747
H	 -0.016686	 -0.912532	 -0.939714
H	 -0.014099	 -1.037598	 0.796369
C	 -2.560681	 -0.301323	 -0.007747
H	 -1.279957	 1.241025	 -0.770189
H	 -1.270445	 1.110526	 0.963468
H	 -2.617064	 -0.872870	 -0.928010
H	 -3.439525	 0.331102	 0.043462
H	 -2.609427	 -1.002736	 0.818585

	symmetry c1
}
set optking {
	frozen_dihedral = ("
		1 2 3 6
	")
}

ee = optimize('scf')
oeprop('DIPOLE', 'QUADRUPOLE', 'MULLIKEN_CHARGES')
f=open( 'psi4out.xyz', 'w' )
f.write( "16  " )
f.write( str(ee) + "\n" )
f.write( MOL.save_string_xyz() )
f.close()
--------------------------------------------------------------------------

    Molecular point group: c1
  Charge       = 0
  Multiplicity = 1
  Basis Set: CC-PVTZ
  Basis Set:
  @DF-RHF Final Energy:  -212.39565093487678
    Total Energy =                       -212.3956509348765849
    Molecular point group: c1
  Basis Set: CC-PVTZ
  Basis Set:
  Basis Set: CC-PVTZ
  Basis Set:
  @DF-RHF Final Energy:  -212.39657335987124
    Total Energy =                       -212.3965733598712404
  Basis Set: CC-PVTZ
  Basis Set:
  Basis Set: CC-PVTZ
  Basis Set:
  @DF-RHF Final Energy:  -212.39671380798328
    Total Energy =                       -212.3967138079834172
  Basis Set: CC-PVTZ
  Basis Set:
  Basis Set: CC-PVTZ
  Basis Set:
  @DF-RHF Final Energy:  -212.39671530739318
    Total Energy =                       -212.3967153073930376
  Basis Set: CC-PVTZ
  Basis Set:
  Charge       = 0
  Multiplicity = 1
  Basis Set: CC-PVTZ
  Basis Set:

    Orbital Energies (a.u.)
    -----------------------

    Doubly Occupied:

       1A    -15.523880     2A    -11.238026     3A    -11.216038
       4A    -11.213580     5A    -11.208757     6A     -1.175779
       7A     -1.063584     8A     -0.961228     9A     -0.847805
      10A     -0.798115    11A     -0.669112    12A     -0.634977
      13A     -0.597664    14A     -0.585868    15A     -0.565100
      16A     -0.520938    17A     -0.511137    18A     -0.476105
      19A     -0.472618    20A     -0.465587    21A     -0.377991

  @DF-RHF Final Energy:  -212.39671558062042

   => Energetics <=

    Nuclear Repulsion Energy =            186.4697091221337928
    One-Electron Energy =                -655.4850713666719457
    Two-Electron Energy =                 256.6186466639176160
    DFT Exchange-Correlation Energy =       0.0000000000000000
    Empirical Dispersion Energy =           0.0000000000000000
    PCM Polarization Energy =               0.0000000000000000
    EFP Energy =                            0.0000000000000000
    Total Energy =                       -212.3967155806205369
    Molecular point group: c1
  Basis Set: CC-PVTZ
  Basis Set:

  -Total Gradient:
     Atom            X                  Y                   Z
    ------   -----------------  -----------------  -----------------
       1       -0.000110463984    -0.000097924322    -0.001457982635
       2       -0.000043304070    -0.000110049471     0.001633617109
       3        0.000794635722     0.001077995324     0.000568359983
       4       -0.000003881238     0.000006316515     0.000005513390
       5        0.000039684902     0.000011800756    -0.000007409541
       6       -0.000640193985    -0.000900794193    -0.000757009810
       7       -0.000017645949     0.000008092757     0.000008165163
       8        0.000017764891    -0.000008182086    -0.000002021232
       9        0.000010292022     0.000005310510     0.000004123417
      10       -0.000001119358     0.000002074366    -0.000010266107
      11       -0.000029842878     0.000009016836     0.000016111262
      12        0.000003980072    -0.000005033185     0.000001577431
      13       -0.000010019654     0.000003772135    -0.000005495292
      14        0.000006558853     0.000008044532     0.000002962828
      15       -0.000015140818    -0.000008143174     0.000001714466
      16       -0.000001304525    -0.000002297299    -0.000001960431

  **** Optimization is complete! (in 5 steps) ****
    Final optimized geometry and variables:
    Molecular point group: c1

    Geometry (in Angstrom), charge = 0, multiplicity = 1:

    H            2.261891851359    -1.304371346660     0.059588080962
    N            2.476287465362    -0.334189179100    -0.023140030516
    C            1.268737590248     0.486809131472     0.014001778734
    H            2.971871268641    -0.217642002359    -0.879089606122
    C           -0.021239148728    -0.323944480289    -0.033061528768
    H            1.277165707327     1.178665961426    -0.822136939759
    H            1.273643751683     1.089794666379     0.916887332297
    C           -1.278099520739     0.534764202951     0.067125124089
    H           -0.045441161014    -0.900611980609    -0.954917726878
    H           -0.013469700399    -1.044442772616     0.782523203242
    C           -2.565652248873    -0.281832656808     0.029164319607
    H           -1.286024842802     1.256037893371    -0.745602854290
    H           -1.245701141643     1.112494364584     0.986426528872
    H           -2.644582814078    -0.845538085072    -0.894449271046
    H           -3.438104344663     0.357176483030     0.101773981402
    H           -2.604510386174    -0.989035760064     0.850952228796

  Mulliken Charges: (a.u.)
   Center  Symbol    Alpha    Beta     Spin     Total
       1     H     0.42860  0.42860  0.00000  0.14280
       2     N     3.69580  3.69580  0.00000 -0.39161
       3     C     3.01719  3.01719  0.00000 -0.03439
       4     H     0.42812  0.42812  0.00000  0.14375
       5     C     3.08841  3.08841  0.00000 -0.17681
       6     H     0.46200  0.46200  0.00000  0.07600
       7     H     0.46135  0.46135  0.00000  0.07730
       8     C     3.08987  3.08987  0.00000 -0.17973
       9     H     0.45756  0.45756  0.00000  0.08488
      10     H     0.45577  0.45577  0.00000  0.08846
      11     C     3.14904  3.14904  0.00000 -0.29808
      12     H     0.45479  0.45479  0.00000  0.09043
      13     H     0.45344  0.45344  0.00000  0.09311
      14     H     0.45519  0.45519  0.00000  0.08961
      15     H     0.44816  0.44816  0.00000  0.10368
      16     H     0.45470  0.45470  0.00000  0.09060

   Total alpha = 21.00000, Total beta = 21.00000, Total charge = -0.00000
