  ==> Input File <==

--------------------------------------------------------------------------
set {
	reference rhf
	basis 6-31G*
}

set_num_threads( 4 )
memory 2 gb

molecule MOL {
0 1

O	 1.846825	 1.296220	 0.000415
C	 1.705091	 0.115954	 0.001797
C	 0.381791	 -0.609817	 0.001258
O	 2.721346	 -0.737485	 -0.000216
C	 -0.823008	 0.326187	 0.001381
H	 0.371250	 -1.265087	 -0.865474
H	 0.370908	 -1.265746	 0.867490
C	 -1.081396	 0.939461	 1.378404
H	 -1.700443	 -0.220357	 -0.329658
H	 -0.664546	 1.113174	 -0.729270
C	 -2.287152	 1.880561	 1.396912
H	 -1.235957	 0.145200	 2.107277
H	 -0.197093	 1.484140	 1.705841
C	 -2.544089	 2.493961	 2.772767
H	 -3.171885	 1.337280	 1.072513
H	 -2.133862	 2.675018	 0.669948
H	 -2.735447	 1.724828	 3.515754
H	 -3.404270	 3.155902	 2.753462
H	 -1.688917	 3.072863	 3.110204
C	 4.024888	 -0.184556	 -0.001949
H	 4.179030	 0.422472	 -0.882452
H	 4.701782	 -1.024608	 -0.003642
H	 4.181981	 0.421185	 0.878906

	symmetry c1
}
set optking {
	frozen_dihedral = ("
		9 5 3 6
	")
}

ee = optimize('scf')
oeprop('DIPOLE', 'QUADRUPOLE', 'MULLIKEN_CHARGES')
f=open( 'psi4out.xyz', 'w' )
f.write( "23  " )
f.write( str(ee) + "\n" )
f.write( MOL.save_string_xyz() )
f.close()
--------------------------------------------------------------------------

    Molecular point group: c1
  Charge       = 0
  Multiplicity = 1
  Basis Set: 6-31G*
  Basis Set:
  @DF-RHF Final Energy:  -422.97549781655351
    Total Energy =                       -422.9754978165537977
    Molecular point group: c1
  Basis Set: 6-31G*
  Basis Set:
  Basis Set: 6-31G*
  Basis Set:
  @DF-RHF Final Energy:  -422.97570304645399
    Total Energy =                       -422.9757030464543277
  Basis Set: 6-31G*
  Basis Set:
  Basis Set: 6-31G*
  Basis Set:
  @DF-RHF Final Energy:  -422.97557517427424
    Total Energy =                       -422.9755751742748089
  Basis Set: 6-31G*
  Basis Set:
  Basis Set: 6-31G*
  Basis Set:
  @DF-RHF Final Energy:  -422.97574810309521
    Total Energy =                       -422.9757481030944746
  Basis Set: 6-31G*
  Basis Set:
  Basis Set: 6-31G*
  Basis Set:
  @DF-RHF Final Energy:  -422.97576712126698
    Total Energy =                       -422.9757671212668129
  Basis Set: 6-31G*
  Basis Set:
  Basis Set: 6-31G*
  Basis Set:
  @DF-RHF Final Energy:  -422.97577092009260
    Total Energy =                       -422.9757709200930549
  Basis Set: 6-31G*
  Basis Set:
  Basis Set: 6-31G*
  Basis Set:
  @DF-RHF Final Energy:  -422.97577505305077
    Total Energy =                       -422.9757750530508247
  Basis Set: 6-31G*
  Basis Set:
  Charge       = 0
  Multiplicity = 1
  Basis Set: 6-31G*
  Basis Set:

    Orbital Energies (a.u.)
    -----------------------

    Doubly Occupied:

       1A    -20.604592     2A    -20.546395     3A    -11.373236
       4A    -11.281467     5A    -11.235633     6A    -11.219189
       7A    -11.212949     8A    -11.211803     9A    -11.206215
      10A     -1.470343    11A     -1.363564    12A     -1.090603
      13A     -1.041369    14A     -0.986106    15A     -0.930281
      16A     -0.843376    17A     -0.793465    18A     -0.766356
      19A     -0.702572    20A     -0.680898    21A     -0.672039
      22A     -0.639178    23A     -0.613032    24A     -0.598952
      25A     -0.568541    26A     -0.557050    27A     -0.552903
      28A     -0.530768    29A     -0.522627    30A     -0.499385
      31A     -0.490998    32A     -0.465865    33A     -0.464504
      34A     -0.455466    35A     -0.450773    36A     -0.437159

  @DF-RHF Final Energy:  -422.97577529948620

   => Energetics <=

    Nuclear Repulsion Energy =            461.9003939250265489
    One-Electron Energy =               -1491.5930296317292232
    Two-Electron Energy =                 606.7168604072165863
    DFT Exchange-Correlation Energy =       0.0000000000000000
    Empirical Dispersion Energy =           0.0000000000000000
    PCM Polarization Energy =               0.0000000000000000
    EFP Energy =                            0.0000000000000000
    Total Energy =                       -422.9757752994861448
    Molecular point group: c1
  Basis Set: 6-31G*
  Basis Set:

  -Total Gradient:
     Atom            X                  Y                   Z
    ------   -----------------  -----------------  -----------------
       1       -0.000002187746    -0.000003466065     0.000004586938
       2       -0.000006719924     0.000003807602     0.000002512679
       3        0.001067021247     0.001463846879    -0.001358909013
       4        0.000007076056    -0.000001166069    -0.000014333765
       5       -0.000547178873    -0.000811428640     0.002011010594
       6       -0.000803511279    -0.001088997328     0.000822046116
       7       -0.000001573115     0.000001502145    -0.000000916674
       8        0.000006324799     0.000007079966    -0.000010209506
       9        0.000270781878     0.000420828742    -0.001474272751
      10       -0.000001626748     0.000001004783     0.000005695602
      11        0.000008744866     0.000011935766     0.000002339990
      12        0.000005256702    -0.000002392755     0.000000997430
      13       -0.000000509376     0.000004428765     0.000000793304
      14       -0.000010699520    -0.000010652771     0.000000777075
      15        0.000002153998     0.000002408363     0.000001280979
      16        0.000002444564     0.000002301112    -0.000000884610
      17       -0.000000011141     0.000001545251     0.000003385873
      18       -0.000000402187     0.000000979159     0.000000318309
      19       -0.000000724484    -0.000002944872    -0.000005130742
      20        0.000004486539    -0.000000408769     0.000014847058
      21       -0.000004152695    -0.000000997565    -0.000001837752
      22        0.000001411928     0.000000445327    -0.000001608671
      23        0.000003594509     0.000000340975    -0.000002488461

  **** Optimization is complete! (in 8 steps) ****
    Final optimized geometry and variables:
    Molecular point group: c1

    Geometry (in Angstrom), charge = 0, multiplicity = 1:

    O            1.384351861761     0.675952191428    -0.764233605892
    C            1.231767835611    -0.498452358164    -0.656190001684
    C           -0.096502809976    -1.216931190947    -0.635355340179
    O            2.240467535673    -1.353714177054    -0.553166388638
    C           -1.307128915338    -0.284900881241    -0.595098332913
    H           -0.125362944560    -1.856913146528    -1.513165545716
    H           -0.091204694936    -1.894081221425     0.213777110946
    C           -1.565986966967     0.324953054804     0.783403482159
    H           -2.181040663076    -0.844430075861    -0.919170827155
    H           -1.163849317398     0.508360344674    -1.321073870925
    C           -2.772518282917     1.264628906762     0.801733083312
    H           -1.723205184684    -0.474417097907     1.506731466302
    H           -0.683260198161     0.869674187957     1.106464127103
    C           -3.037273719666     1.866967040856     2.181039936378
    H           -3.656549929709     0.724750803128     0.468083759484
    H           -2.613097157031     2.065202271400     0.083181238625
    H           -3.234052241493     1.092029172537     2.916757484043
    H           -3.896404126635     2.530424741687     2.162269229909
    H           -2.182957060750     2.441529204675     2.527254031278
    C            3.548725452682    -0.812298875882    -0.582595390900
    H            3.725044804969    -0.294967408577    -1.514663960830
    H            4.218075341845    -1.653196790830    -0.489118810500
    H            3.693773548015    -0.124979655968     0.238356628243

  Mulliken Charges: (a.u.)
   Center  Symbol    Alpha    Beta     Spin     Total
       1     O     4.28698  4.28698  0.00000 -0.57397
       2     C     2.60629  2.60629  0.00000  0.78742
       3     C     3.20955  3.20955  0.00000 -0.41911
       4     O     4.30624  4.30624  0.00000 -0.61249
       5     C     3.15605  3.15605  0.00000 -0.31210
       6     H     0.39767  0.39767  0.00000  0.20466
       7     H     0.40056  0.40056  0.00000  0.19887
       8     C     3.15535  3.15535  0.00000 -0.31070
       9     H     0.41944  0.41944  0.00000  0.16112
      10     H     0.40648  0.40648  0.00000  0.18704
      11     C     3.15235  3.15235  0.00000 -0.30470
      12     H     0.42684  0.42684  0.00000  0.14633
      13     H     0.41137  0.41137  0.00000  0.17726
      14     C     3.23953  3.23953  0.00000 -0.47906
      15     H     0.42456  0.42456  0.00000  0.15088
      16     H     0.41958  0.41958  0.00000  0.16083
      17     H     0.42281  0.42281  0.00000  0.15438
      18     H     0.41954  0.41954  0.00000  0.16092
      19     H     0.42018  0.42018  0.00000  0.15965
      20     C     3.09236  3.09236  0.00000 -0.18471
      21     H     0.40902  0.40902  0.00000  0.18195
      22     H     0.40831  0.40831  0.00000  0.18339
      23     H     0.40893  0.40893  0.00000  0.18215

   Total alpha = 36.00000, Total beta = 36.00000, Total charge = -0.00000
