  ==> Input File <==

--------------------------------------------------------------------------
set {
	reference rhf
	basis 6-31G*
}

set_num_threads( 4 )
memory 2 gb

molecule MOL {
0 1

H	 3.509112	 -1.463360	 -3.297703
C	 2.928946	 -1.658363	 -2.401528
C	 1.677079	 -0.783343	 -2.355351
H	 2.670558	 -2.713568	 -2.399446
H	 3.572173	 -1.474193	 -1.545614
C	 0.832398	 -1.025804	 -1.108705
H	 1.061098	 -0.963804	 -3.230788
H	 1.969071	 0.264869	 -2.392567
N	 -0.359703	 -0.200990	 -1.114581
H	 0.518978	 -2.066074	 -1.084850
H	 1.444739	 -0.866822	 -0.214758
C	 -1.217365	 -0.386708	 0.039277
H	 -0.096469	 0.764011	 -1.181812
C	 -2.452633	 0.504241	 -0.042481
H	 -1.527377	 -1.428039	 0.061166
H	 -0.693099	 -0.200331	 0.982565
C	 -3.758029	 -0.289423	 -0.010781
H	 -2.394220	 1.093569	 -0.952170
H	 -2.440793	 1.210787	 0.785871
H	 -3.816659	 -0.981993	 -0.845726
H	 -4.617837	 0.370165	 -0.069296
H	 -3.847478	 -0.867502	 0.904682

	symmetry c1
}
set optking {
	frozen_dihedral = ("
		15 12 14 18
	")
}

ee = optimize('scf')
oeprop('DIPOLE', 'QUADRUPOLE', 'MULLIKEN_CHARGES')
f=open( 'psi4out.xyz', 'w' )
f.write( "22  " )
f.write( str(ee) + "\n" )
f.write( MOL.save_string_xyz() )
f.close()
--------------------------------------------------------------------------

    Molecular point group: c1
  Charge       = 0
  Multiplicity = 1
  Basis Set: 6-31G*
  Basis Set:
  @DF-RHF Final Energy:  -290.37703682842380
    Total Energy =                       -290.3770368284240249
    Molecular point group: c1
  Basis Set: 6-31G*
  Basis Set:
  Basis Set: 6-31G*
  Basis Set:
  @DF-RHF Final Energy:  -290.37730119895133
    Total Energy =                       -290.3773011989511588
  Basis Set: 6-31G*
  Basis Set:
  Basis Set: 6-31G*
  Basis Set:
  @DF-RHF Final Energy:  -290.37739646234007
    Total Energy =                       -290.3773964623402435
  Basis Set: 6-31G*
  Basis Set:
  Charge       = 0
  Multiplicity = 1
  Basis Set: 6-31G*
  Basis Set:

    Orbital Energies (a.u.)
    -----------------------

    Doubly Occupied:

       1A    -15.534190     2A    -11.237939     3A    -11.237678
       4A    -11.213600     5A    -11.213179     6A    -11.209740
       7A    -11.207552     8A     -1.205090     9A     -1.057110
      10A     -1.024126    11A     -0.926983    12A     -0.868609
      13A     -0.811465    14A     -0.794227    15A     -0.663058
      16A     -0.630560    17A     -0.614303    18A     -0.607571
      19A     -0.573234    20A     -0.562990    21A     -0.538438
      22A     -0.524793    23A     -0.509474    24A     -0.487030
      25A     -0.476621    26A     -0.474868    27A     -0.465730
      28A     -0.449722    29A     -0.358118

  @DF-RHF Final Energy:  -290.37739704793375

   => Energetics <=

    Nuclear Repulsion Energy =            313.8920482935784548
    One-Electron Energy =               -1013.5828920716820676
    Two-Electron Energy =                 409.3134467301698578
    DFT Exchange-Correlation Energy =       0.0000000000000000
    Empirical Dispersion Energy =           0.0000000000000000
    PCM Polarization Energy =               0.0000000000000000
    EFP Energy =                            0.0000000000000000
    Total Energy =                       -290.3773970479337549
    Molecular point group: c1
  Basis Set: 6-31G*
  Basis Set:

  -Total Gradient:
     Atom            X                  Y                   Z
    ------   -----------------  -----------------  -----------------
       1        0.000012370849    -0.000008815034    -0.000002479781
       2        0.000014661145     0.000005608273    -0.000027353297
       3        0.000026314941    -0.000035632223     0.000005015770
       4       -0.000000904622     0.000001928716     0.000000484642
       5       -0.000004405564     0.000001934817    -0.000001637860
       6       -0.000005104996     0.000039596486    -0.000023134370
       7        0.000004033731     0.000001142353     0.000001742341
       8        0.000000235100    -0.000002565793     0.000005040704
       9       -0.000047084912    -0.000049594837     0.000102473011
      10        0.000008850289     0.000004276357    -0.000002247168
      11        0.000004586714    -0.000010877743     0.000003349498
      12        0.000103816411     0.000142942777    -0.000677146952
      13       -0.000027235022    -0.000018053789     0.000021445548
      14       -0.000374249418    -0.000477250953    -0.000188778042
      15       -0.000007532908     0.000015960943     0.000493181067
      16        0.000015680535    -0.000006593498     0.000013418681
      17        0.000017822596     0.000027951191     0.000016471460
      18        0.000260644749     0.000381548437     0.000244500651
      19       -0.000002841139    -0.000014002852     0.000000885243
      20        0.000016390640     0.000001279868     0.000013687491
      21       -0.000006433333     0.000002083628    -0.000007609916
      22       -0.000009615791    -0.000002867124     0.000008691281

  **** Optimization is complete! (in 4 steps) ****
    Final optimized geometry and variables:
    Molecular point group: c1

    Geometry (in Angstrom), charge = 0, multiplicity = 1:

    H            3.848434899147    -0.911157693253    -2.302362959226
    C            3.269727331595    -1.103360634624    -1.404607975966
    C            2.013638052345    -0.234174948361    -1.363132092381
    H            3.016474784454    -2.159745203529    -1.395718652852
    H            3.912516754760    -0.910669021052    -0.550242675553
    C            1.170123702894    -0.473811665189    -0.115063704673
    H            1.398593484158    -0.422574227104    -2.237518204422
    H            2.300561799567     0.815260746197    -1.406223656076
    N           -0.026431165887     0.344170684638    -0.125654898134
    H            0.862287368276    -1.515682423368    -0.084827013849
    H            1.781441986177    -0.306475902187     0.778193955100
    C           -0.878429526105     0.160372556235     1.035545735041
    H            0.232732723294     1.310158645665    -0.196488100175
    C           -2.129037322939     1.059203129041     0.968900915449
    H           -1.176052330326    -0.883752133941     1.058898665322
    H           -0.338421003527     0.339019293910     1.969763930596
    C           -3.440900097128     0.274991456403     0.986335319858
    H           -2.082278286663     1.651066381654     0.060076981256
    H           -2.124132161350     1.763972535224     1.795914558540
    H           -3.492623537620    -0.407333965562     0.143295664988
    H           -4.297405293318     0.939921648136     0.931788555846
    H           -3.535875761541    -0.312190266801     1.895664220958

  Mulliken Charges: (a.u.)
   Center  Symbol    Alpha    Beta     Spin     Total
       1     H     0.41774  0.41774  0.00000  0.16451
       2     C     3.24324  3.24324  0.00000 -0.48649
       3     C     3.15540  3.15540  0.00000 -0.31080
       4     H     0.42069  0.42069  0.00000  0.15863
       5     H     0.42167  0.42167  0.00000  0.15666
       6     C     3.04780  3.04780  0.00000 -0.09559
       7     H     0.41301  0.41301  0.00000  0.17399
       8     H     0.42670  0.42670  0.00000  0.14660
       9     N     3.85697  3.85697  0.00000 -0.71395
      10     H     0.42168  0.42168  0.00000  0.15664
      11     H     0.43628  0.43628  0.00000  0.12744
      12     C     3.05337  3.05337  0.00000 -0.10675
      13     H     0.33511  0.33511  0.00000  0.32978
      14     C     3.15993  3.15993  0.00000 -0.31985
      15     H     0.41868  0.41868  0.00000  0.16265
      16     H     0.43362  0.43362  0.00000  0.13277
      17     C     3.24190  3.24190  0.00000 -0.48380
      18     H     0.41403  0.41403  0.00000  0.17194
      19     H     0.42215  0.42215  0.00000  0.15571
      20     H     0.41682  0.41682  0.00000  0.16635
      21     H     0.42054  0.42054  0.00000  0.15892
      22     H     0.42268  0.42268  0.00000  0.15464

   Total alpha = 29.00000, Total beta = 29.00000, Total charge =  0.00000
