                              Psi4 1.0.54 Driver

  ==> Input File <==

--------------------------------------------------------------------------
set {
	reference rhf
	basis cc-pvtz
}

set_num_threads( 4 )
memory 2 gb

molecule MOL {
0 1

H	 -1.153498	 -1.506040	 0.000000
C	 -0.072644	 -1.459576	 0.000000
C	 0.366840	 -0.024419	 0.000000
H	 0.306541	 -1.958786	 -0.881562
H	 0.306541	 -1.958786	 0.881562
F	 -0.116854	 0.610266	 -1.076201
F	 -0.116854	 0.610266	 1.076201
H	 1.440356	 0.098865	 0.000000

	symmetry c1
}
ee,wfn = energy('scf', return_wfn=True)
oeprop( wfn, 'DIPOLE', 'QUADRUPOLE', 'MULLIKEN_CHARGES')
oeprop( wfn, 'GRID_ESP')
f=open( 'psi4out.xyz', 'w' )
f.write( "8  " )
f.write( str(ee) + "\n" )
f.write( MOL.save_string_xyz() )
f.close()
--------------------------------------------------------------------------

    Molecular point group: c1

    Geometry (in Angstrom), charge = 0, multiplicity = 1:

       Center              X                  Y                   Z               Mass
    ------------   -----------------  -----------------  -----------------  -----------------
           H         -1.153456430410    -1.506249089257     0.000000000000     1.007825032070
           C         -0.072602430410    -1.459785089257     0.000000000000    12.000000000000
           C          0.366881569590    -0.024628089257     0.000000000000    12.000000000000
           H          0.306582569590    -1.958995089257    -0.881562000000     1.007825032070
           H          0.306582569590    -1.958995089257     0.881562000000     1.007825032070
           F         -0.116812430410     0.610056910743    -1.076201000000    18.998403224000
           F         -0.116812430410     0.610056910743     1.076201000000    18.998403224000
           H          1.440397569590     0.098655910743     0.000000000000     1.007825032070

  Charge       = 0
  Multiplicity = 1
  Basis Set: CC-PVTZ
  Basis Set:

    Orbital Energies (a.u.)
    -----------------------

    Doubly Occupied:

       1A    -26.300348     2A    -26.300303     3A    -11.394910
       4A    -11.234065     5A     -1.664382     6A     -1.596919
       7A     -1.049939     8A     -0.895770     9A     -0.781494
      10A     -0.759961    11A     -0.730245    12A     -0.663240
      13A     -0.625072    14A     -0.615712    15A     -0.570095
      16A     -0.562864    17A     -0.509010

  @DF-RHF Final Energy:  -277.05584470122676

   => Energetics <=

    Nuclear Repulsion Energy =            134.0459811646178423
    One-Electron Energy =                -649.6950385355198705
    Two-Electron Energy =                 238.5932126696752107
    DFT Exchange-Correlation Energy =       0.0000000000000000
    Empirical Dispersion Energy =           0.0000000000000000
    PCM Polarization Energy =               0.0000000000000000
    EFP Energy =                            0.0000000000000000
    Total Energy =                       -277.0558447012268175

  Mulliken Charges: (a.u.)
   Center  Symbol    Alpha    Beta     Spin     Total
       1     H     0.44674  0.44674  0.00000  0.10653
       2     C     3.13853  3.13853  0.00000 -0.27705
       3     C     2.77111  2.77111  0.00000  0.45779
       4     H     0.45186  0.45186  0.00000  0.09628
       5     H     0.45186  0.45186  0.00000  0.09628
       6     F     4.63208  4.63208  0.00000 -0.26417
       7     F     4.63208  4.63208  0.00000 -0.26416
       8     H     0.47575  0.47575  0.00000  0.04850

   Total alpha = 17.00000, Total beta = 17.00000, Total charge =  0.00000

*** Psi4 exiting successfully. Buy a developer a beer!
