  ==> Input File <==

--------------------------------------------------------------------------
set {
	reference rhf
	basis cc-pvtz
}

set_num_threads( 4 )
memory 2 gb

molecule MOL {
0 1

H	 -2.682748	 -0.924300	 -0.395281
O	 -2.313989	 -0.142475	 -0.025864
C	 -0.943808	 -0.065018	 -0.330000
H	 -0.812293	 -0.225641	 -1.398673
C	 -0.231030	 -1.182113	 0.407592
C	 -0.353797	 1.300461	 0.050970
H	 -0.312800	 -0.992012	 1.473041
H	 -0.738841	 -2.119564	 0.220514
C	 1.246176	 -1.268044	 -0.015480
H	 -0.539537	 2.008579	 -0.751815
H	 -0.889989	 1.662858	 0.920677
C	 1.153605	 1.231851	 0.356834
H	 1.823096	 -1.684665	 0.802361
H	 1.352335	 -1.958223	 -0.845114
C	 1.826409	 0.100723	 -0.416008
H	 1.622968	 2.181508	 0.128734
H	 1.301983	 1.066493	 1.419367
H	 2.897299	 0.112407	 -0.249665
H	 1.683458	 0.265621	 -1.480024

	symmetry c1
}
set optking {
	frozen_dihedral = ("
		1 2 3 4
	")
}

ee = optimize('scf')
oeprop('DIPOLE', 'QUADRUPOLE', 'MULLIKEN_CHARGES')
f=open( 'psi4out.xyz', 'w' )
f.write( "19  " )
f.write( str(ee) + "\n" )
f.write( MOL.save_string_xyz() )
f.close()
--------------------------------------------------------------------------

    Molecular point group: c1
  Charge       = 0
  Multiplicity = 1
  Basis Set: CC-PVTZ
  Basis Set:
  @DF-RHF Final Energy:  -309.16199350389314
    Total Energy =                       -309.1619935038933704
    Molecular point group: c1
  Basis Set: CC-PVTZ
  Basis Set:
  Basis Set: CC-PVTZ
  Basis Set:
  @DF-RHF Final Energy:  -309.16357409562238
    Total Energy =                       -309.1635740956224367
  Basis Set: CC-PVTZ
  Basis Set:
  Basis Set: CC-PVTZ
  Basis Set:
  @DF-RHF Final Energy:  -309.16383412416661
    Total Energy =                       -309.1638341241671242
  Basis Set: CC-PVTZ
  Basis Set:
  Basis Set: CC-PVTZ
  Basis Set:
  @DF-RHF Final Energy:  -309.16384030772701
    Total Energy =                       -309.1638403077264456
  Basis Set: CC-PVTZ
  Basis Set:
  Charge       = 0
  Multiplicity = 1
  Basis Set: CC-PVTZ
  Basis Set:

    Orbital Energies (a.u.)
    -----------------------

    Doubly Occupied:

       1A    -20.543724     2A    -11.267724     3A    -11.215392
       4A    -11.213377     5A    -11.212132     6A    -11.210414
       7A    -11.207013     8A     -1.363541     9A     -1.109887
      10A     -1.002688    11A     -0.989453    12A     -0.847713
      13A     -0.831373    14A     -0.732890    15A     -0.710666
      16A     -0.656557    17A     -0.619293    18A     -0.608632
      19A     -0.568594    20A     -0.546580    21A     -0.532332
      22A     -0.519694    23A     -0.498909    24A     -0.486597
      25A     -0.468228    26A     -0.449570    27A     -0.429601
      28A     -0.411759

  @DF-RHF Final Energy:  -309.16384125104463

   => Energetics <=

    Nuclear Repulsion Energy =            331.9703465243183587
    One-Electron Energy =               -1077.7597138734854525
    Two-Electron Energy =                 436.6255260981225774
    DFT Exchange-Correlation Energy =       0.0000000000000000
    Empirical Dispersion Energy =           0.0000000000000000
    PCM Polarization Energy =               0.0000000000000000
    EFP Energy =                            0.0000000000000000
    Total Energy =                       -309.1638412510445733
    Molecular point group: c1
  Basis Set: CC-PVTZ
  Basis Set:

  -Total Gradient:
     Atom            X                  Y                   Z
    ------   -----------------  -----------------  -----------------
       1       -0.000099819252     0.000301821783    -0.000483611519
       2        0.000143119459    -0.000520351845     0.000593475975
       3       -0.000013027304     0.000717311781    -0.000121299032
       4       -0.000004476945    -0.000487721727     0.000101986901
       5       -0.000051128870     0.000022149633    -0.000048888743
       6        0.000022370412     0.000018202908    -0.000015693606
       7        0.000000857556     0.000003464325    -0.000010229448
       8       -0.000000876709    -0.000004660150    -0.000004660409
       9        0.000039864836     0.000020177533    -0.000005646196
      10        0.000005144174     0.000012649844    -0.000004966572
      11       -0.000018220413    -0.000039799178    -0.000011499013
      12        0.000002452951     0.000016724413    -0.000013835363
      13        0.000022560783    -0.000008066382     0.000017307857
      14        0.000001418154     0.000007286159     0.000014938369
      15       -0.000029582675    -0.000038279354     0.000000633894
      16       -0.000010895795     0.000001369252     0.000001232263
      17       -0.000009358533    -0.000001577847     0.000002129320
      18        0.000002949781    -0.000031478816    -0.000007560372
      19       -0.000003351622     0.000010777667    -0.000003814306

  **** Optimization is complete! (in 5 steps) ****
    Final optimized geometry and variables:
    Molecular point group: c1

    Geometry (in Angstrom), charge = 0, multiplicity = 1:

    H           -2.745594208916    -0.800766093623    -0.390395364711
    O           -2.317616733318    -0.050800098799    -0.019612354405
    C           -0.945758734581    -0.078341985914    -0.327572283023
    H           -0.827399092698    -0.245313671955    -1.396776610383
    C           -0.212537461812    -1.189050110839     0.410073219580
    C           -0.367649850379     1.290978007261     0.036097655264
    H           -0.290137926981    -0.998064985764     1.475476221566
    H           -0.703036803644    -2.140915314914     0.232066653545
    C            1.262794935443    -1.262880992268    -0.022447583489
    H           -0.553563409900     1.980466772159    -0.779564345210
    H           -0.919980153217     1.663474901734     0.890104422636
    C            1.134998335540     1.233394040120     0.359930846848
    H            1.847361054653    -1.682330913160     0.788524780626
    H            1.369318804968    -1.945554610008    -0.858433744090
    C            1.828081191544     0.115124668601    -0.413744079347
    H            1.596247498951     2.189427210392     0.142333855180
    H            1.275403756154     1.063379787460     1.423063613676
    H            2.897848415501     0.138451501294    -0.241636299309
    H            1.688206371266     0.283472834604    -1.477609530466

  Mulliken Charges: (a.u.)
   Center  Symbol    Alpha    Beta     Spin     Total
       1     H     0.39575  0.39575  0.00000  0.20850
       2     O     4.20201  4.20201  0.00000 -0.40403
       3     C     2.92775  2.92775  0.00000  0.14450
       4     H     0.46409  0.46409  0.00000  0.07182
       5     C     3.10042  3.10042  0.00000 -0.20083
       6     C     3.11028  3.11028  0.00000 -0.22056
       7     H     0.45273  0.45273  0.00000  0.09455
       8     H     0.45028  0.45028  0.00000  0.09944
       9     C     3.11452  3.11452  0.00000 -0.22903
      10     H     0.44816  0.44816  0.00000  0.10368
      11     H     0.44380  0.44380  0.00000  0.11240
      12     C     3.10059  3.10059  0.00000 -0.20118
      13     H     0.44715  0.44715  0.00000  0.10571
      14     H     0.44810  0.44810  0.00000  0.10381
      15     C     3.10176  3.10176  0.00000 -0.20352
      16     H     0.44189  0.44189  0.00000  0.11622
      17     H     0.45367  0.45367  0.00000  0.09265
      18     H     0.44296  0.44296  0.00000  0.11408
      19     H     0.45411  0.45411  0.00000  0.09179

   Total alpha = 28.00000, Total beta = 28.00000, Total charge =  0.00000
