  ==> Input File <==

--------------------------------------------------------------------------
set {
	reference rhf
	basis 6-31G*
}

set_num_threads( 4 )
memory 2 gb

molecule MOL {
0 1

H	 2.711255	 -0.770628	 0.599989
N	 2.332695	 -0.069570	 0.000000
C	 0.936681	 -0.007078	 0.000000
H	 2.781881	 0.807099	 0.156398
C	 0.227108	 -0.002120	 -1.198267
C	 0.227108	 -0.002120	 1.198267
H	 0.761569	 -0.014657	 -2.132680
C	 -1.156334	 0.010459	 -1.192360
H	 0.761569	 -0.014657	 2.132680
C	 -1.156334	 0.010459	 1.192360
H	 -1.684791	 0.014915	 -2.129421
C	 -1.862085	 0.017996	 0.000000
H	 -1.684791	 0.014915	 2.129421
H	 -2.936703	 0.028387	 0.000000

	symmetry c1
}
set optking {
	frozen_dihedral = ("
		1 2 3 5
	")
}

ee = optimize('scf')
oeprop('DIPOLE', 'QUADRUPOLE', 'MULLIKEN_CHARGES')
f=open( 'psi4out.xyz', 'w' )
f.write( "14  " )
f.write( str(ee) + "\n" )
f.write( MOL.save_string_xyz() )
f.close()
--------------------------------------------------------------------------

    Molecular point group: c1
  Charge       = 0
  Multiplicity = 1
  Basis Set: 6-31G*
  Basis Set:
  @DF-RHF Final Energy:  -285.72298430029593
    Total Energy =                       -285.7229843002960479
    Molecular point group: c1
  Basis Set: 6-31G*
  Basis Set:
  Basis Set: 6-31G*
  Basis Set:
  @DF-RHF Final Energy:  -285.72423489460203
    Total Energy =                       -285.7242348946016364
  Basis Set: 6-31G*
  Basis Set:
  Basis Set: 6-31G*
  Basis Set:
  @DF-RHF Final Energy:  -285.72452111880199
    Total Energy =                       -285.7245211188017606
  Basis Set: 6-31G*
  Basis Set:
  Basis Set: 6-31G*
  Basis Set:
  @DF-RHF Final Energy:  -285.72455944160777
    Total Energy =                       -285.7245594416076528
  Basis Set: 6-31G*
  Basis Set:
  Basis Set: 6-31G*
  Basis Set:
  @DF-RHF Final Energy:  -285.72456151435478
    Total Energy =                       -285.7245615143548321
  Basis Set: 6-31G*
  Basis Set:
  Charge       = 0
  Multiplicity = 1
  Basis Set: 6-31G*
  Basis Set:

    Orbital Energies (a.u.)
    -----------------------

    Doubly Occupied:

       1A    -15.546223     2A    -11.258904     3A    -11.229605
       4A    -11.227678     5A    -11.225642     6A    -11.225454
       7A    -11.220328     8A     -1.204514     9A     -1.126016
      10A     -1.011244    11A     -0.985447    12A     -0.825947
      13A     -0.806251    14A     -0.700760    15A     -0.660532
      16A     -0.645343    17A     -0.624877    18A     -0.589602
      19A     -0.581990    20A     -0.504963    21A     -0.494732
      22A     -0.491815    23A     -0.406556    24A     -0.330720
      25A     -0.323005

  @DF-RHF Final Energy:  -285.72456179071509

   => Energetics <=

    Nuclear Repulsion Energy =            272.3063504311068641
    One-Electron Energy =                -925.5655306908678313
    Two-Electron Energy =                 367.5346184690460518
    DFT Exchange-Correlation Energy =       0.0000000000000000
    Empirical Dispersion Energy =           0.0000000000000000
    PCM Polarization Energy =               0.0000000000000000
    EFP Energy =                            0.0000000000000000
    Total Energy =                       -285.7245617907149722
    Molecular point group: c1
  Basis Set: 6-31G*
  Basis Set:

  -Total Gradient:
     Atom            X                  Y                   Z
    ------   -----------------  -----------------  -----------------
       1       -0.000051650006    -0.000796128737    -0.000924855468
       2        0.000037173187     0.000561174265     0.001166134282
       3        0.000014168108     0.001186492272    -0.000265045042
       4       -0.000002869378     0.000000315565     0.000003317818
       5       -0.000035237313    -0.000968221408     0.000004340874
       6        0.000022947751     0.000012821323     0.000019213949
       7       -0.000002277254     0.000001437450     0.000000836860
       8        0.000037955888     0.000036671782     0.000003608955
       9       -0.000005658358    -0.000006627299    -0.000007607590
      10        0.000001021204    -0.000013673239    -0.000010087209
      11       -0.000001755122    -0.000004513194    -0.000005846760
      12       -0.000014761329    -0.000016040542     0.000010117335
      13       -0.000005435090     0.000006367649     0.000005419386
      14        0.000006377713    -0.000000075887     0.000000452609

  **** Optimization is complete! (in 6 steps) ****
    Final optimized geometry and variables:
    Molecular point group: c1

    Geometry (in Angstrom), charge = 0, multiplicity = 1:

    H            2.726903656745    -0.763560601292     0.542392674532
    N            2.358374197636    -0.047705953449    -0.052547297978
    C            0.927717716725    -0.013324256640    -0.001376657807
    H            2.756807695303     0.825143624012     0.235169512639
    C            0.224414272461    -0.011727596570    -1.196849308406
    C            0.221716265176     0.001246398203     1.195976650521
    H            0.776863596627    -0.035370002907    -2.117892626896
    C           -1.161335416600     0.016818272592    -1.197692076668
    H            0.759687258083    -0.002894746179     2.128799535848
    C           -1.163297337241     0.020747172521     1.196773919515
    H           -1.694147141943     0.020182698965    -2.132042028691
    C           -1.859590839544     0.031633092681    -0.001472863151
    H           -1.696720420240     0.030031441451     2.130783341337
    H           -2.934814111705     0.048823152882    -0.001848159273

  Mulliken Charges: (a.u.)
   Center  Symbol    Alpha    Beta     Spin     Total
       1     H     0.32556  0.32556  0.00000  0.34888
       2     N     3.93987  3.93987  0.00000 -0.87974
       3     C     2.90419  2.90419  0.00000  0.19162
       4     H     0.32414  0.32414  0.00000  0.35171
       5     C     3.09756  3.09756  0.00000 -0.19512
       6     C     3.11032  3.11032  0.00000 -0.22063
       7     H     0.39305  0.39305  0.00000  0.21389
       8     C     3.09994  3.09994  0.00000 -0.19987
       9     H     0.40319  0.40319  0.00000  0.19362
      10     C     3.09955  3.09955  0.00000 -0.19911
      11     H     0.39967  0.39967  0.00000  0.20066
      12     C     3.10250  3.10250  0.00000 -0.20500
      13     H     0.40006  0.40006  0.00000  0.19989
      14     H     0.40040  0.40040  0.00000  0.19920

   Total alpha = 25.00000, Total beta = 25.00000, Total charge = -0.00000
