  ==> Input File <==

--------------------------------------------------------------------------
set {
	reference rhf
	basis 6-31G*
}

set_num_threads( 4 )
memory 2 gb

molecule MOL {
0 1

H	 0.304885	 2.398002	 6.600881
C	 -0.221391	 1.493958	 6.310603
C	 -0.691338	 1.570484	 4.858546
H	 0.454077	 0.656405	 6.457542
H	 -1.059860	 1.366622	 6.989980
C	 -1.444103	 0.312946	 4.418366
H	 0.166563	 1.723516	 4.211871
H	 -1.337494	 2.438201	 4.735085
C	 -1.942804	 0.367826	 2.974222
H	 -0.804272	 -0.554291	 4.537359
H	 -2.301857	 0.165727	 5.070767
C	 -0.843125	 0.269395	 1.927198
H	 -2.622670	 -0.462267	 2.788484
H	 -2.525098	 1.269546	 2.798122
C	 -1.181045	 0.701995	 0.511084
O	 0.242433	 -0.148910	 2.197368
C	 -2.285934	 -0.139295	 -0.145128
H	 -0.267077	 0.636096	 -0.066872
H	 -1.487948	 1.746047	 0.532294
C	 -3.651768	 0.085446	 0.506485
H	 -2.346596	 0.110469	 -1.202272
H	 -2.034737	 -1.195320	 -0.088721
C	 -4.759797	 -0.746382	 -0.137905
H	 -3.908762	 1.140117	 0.445781
H	 -3.588286	 -0.154158	 1.565709
H	 -4.868882	 -0.505166	 -1.191300
H	 -4.548009	 -1.809175	 -0.062213
H	 -5.715422	 -0.564821	 0.343442

	symmetry c1
}
set optking {
	frozen_dihedral = ("
		12 15 17 21
	")
}

ee = optimize('scf')
oeprop('DIPOLE', 'QUADRUPOLE', 'MULLIKEN_CHARGES')
f=open( 'psi4out.xyz', 'w' )
f.write( "28  " )
f.write( str(ee) + "\n" )
f.write( MOL.save_string_xyz() )
f.close()
--------------------------------------------------------------------------

    Molecular point group: c1
  Charge       = 0
  Multiplicity = 1
  Basis Set: 6-31G*
  Basis Set:
  @DF-RHF Final Energy:  -426.15346567980873
    Total Energy =                       -426.1534656798088463
    Molecular point group: c1
  Basis Set: 6-31G*
  Basis Set:
  Basis Set: 6-31G*
  Basis Set:
  @DF-RHF Final Energy:  -426.16255003257015
    Total Energy =                       -426.1625500325701523
  Basis Set: 6-31G*
  Basis Set:
  Basis Set: 6-31G*
  Basis Set:
  @DF-RHF Final Energy:  -426.16408447093022
    Total Energy =                       -426.1640844709297653
  Basis Set: 6-31G*
  Basis Set:
  Basis Set: 6-31G*
  Basis Set:
  @DF-RHF Final Energy:  -426.16403985953013
    Total Energy =                       -426.1640398595295665
  Basis Set: 6-31G*
  Basis Set:
  @DF-RHF Final Energy:  -426.16461639895385
    Total Energy =                       -426.1646163989538536
  @DF-RHF Final Energy:  -426.16539463275672
    Total Energy =                       -426.1653946327567155
  @DF-RHF Final Energy:  -426.16666600664064
    Total Energy =                       -426.1666660066402983
  @DF-RHF Final Energy:  -426.16762413392485
    Total Energy =                       -426.1676241339248463
  @DF-RHF Final Energy:  -426.16850474623482
    Total Energy =                       -426.1685047462345892
  @DF-RHF Final Energy:  -426.16978478291878
    Total Energy =                       -426.1697847829181001
  @DF-RHF Final Energy:  -426.17031605607144
    Total Energy =                       -426.1703160560716697
  @DF-RHF Final Energy:  -426.17061817563558
    Total Energy =                       -426.1706181756359229
  @DF-RHF Final Energy:  -426.17100946279663
    Total Energy =                       -426.1710094627966328
  @DF-RHF Final Energy:  -426.17114936394660
    Total Energy =                       -426.1711493639470518
  @DF-RHF Final Energy:  -426.17123853667169
    Total Energy =                       -426.1712385366718081
  Basis Set: 6-31G*
  Basis Set:
  @DF-RHF Final Energy:  -426.17125527293945
    Total Energy =                       -426.1712552729396748
  Basis Set: 6-31G*
  Basis Set:
  Basis Set: 6-31G*
  Basis Set:
  @DF-RHF Final Energy:  -426.17125750736614
    Total Energy =                       -426.1712575073664766
  Basis Set: 6-31G*
  Basis Set:
  Basis Set: 6-31G*
  Basis Set:
  @DF-RHF Final Energy:  -426.17125956962434
    Total Energy =                       -426.1712595696247945
  Basis Set: 6-31G*
  Basis Set:
  Charge       = 0
  Multiplicity = 1
  Basis Set: 6-31G*
  Basis Set:

    Orbital Energies (a.u.)
    -----------------------

    Doubly Occupied:

       1A    -20.550516     2A    -11.324928     3A    -11.231479
       4A    -11.231435     5A    -11.217830     6A    -11.217405
       7A    -11.213076     8A    -11.212831     9A    -11.206376
      10A    -11.206353    11A     -1.396152    12A     -1.087642
      13A     -1.076418    14A     -1.021132    15A     -0.989742
      16A     -0.909884    17A     -0.865117    18A     -0.807670
      19A     -0.789614    20A     -0.722607    21A     -0.677040
      22A     -0.635968    23A     -0.633781    24A     -0.613721
      25A     -0.604738    26A     -0.587859    27A     -0.577589
      28A     -0.573604    29A     -0.540605    30A     -0.524317
      31A     -0.520481    32A     -0.510561    33A     -0.497496
      34A     -0.479228    35A     -0.469919    36A     -0.467696
      37A     -0.467488    38A     -0.458208    39A     -0.457406
      40A     -0.395161

  @DF-RHF Final Energy:  -426.17125972864767

   => Energetics <=

    Nuclear Repulsion Energy =            538.3410654992192121
    One-Electron Energy =               -1645.0825071623917211
    Two-Electron Energy =                 680.5701819345247259
    DFT Exchange-Correlation Energy =       0.0000000000000000
    Empirical Dispersion Energy =           0.0000000000000000
    PCM Polarization Energy =               0.0000000000000000
    EFP Energy =                            0.0000000000000000
    Total Energy =                       -426.1712597286477830
    Molecular point group: c1
  Basis Set: 6-31G*
  Basis Set:

  -Total Gradient:
     Atom            X                  Y                   Z
    ------   -----------------  -----------------  -----------------
       1       -0.000000027418    -0.000001079599    -0.000002867823
       2        0.000001890945    -0.000007090018    -0.000000969860
       3        0.000004593382     0.000004781929     0.000010337941
       4       -0.000001532680    -0.000000513782     0.000003689532
       5        0.000000687453     0.000000445210    -0.000003309312
       6        0.000002045424    -0.000007823490     0.000009680576
       7        0.000001613989     0.000000057691    -0.000002355575
       8       -0.000000990218     0.000002576170     0.000002076609
       9       -0.000026456096     0.000002359046    -0.000020088101
      10        0.000002675576    -0.000000174179     0.000008734272
      11        0.000000865076     0.000001174771    -0.000003047836
      12       -0.000618551873     0.000014933511     0.000106870912
      13        0.000001890860    -0.000001058826     0.000001353015
      14        0.000005271309    -0.000003251700     0.000001672745
      15        0.000683469512     0.000029555158    -0.000146482800
      16       -0.000005910151    -0.000000450091    -0.000011395021
      17        0.000781740494    -0.000154725865    -0.000033643471
      18        0.000007600072     0.000007297387     0.000004695303
      19        0.000009007554    -0.000006769418    -0.000009507372
      20       -0.000000705336    -0.000007224753     0.000039773585
      21       -0.000846197505     0.000110037860     0.000060349983
      22        0.000006033589     0.000008688428     0.000001560423
      23       -0.000001501308     0.000006307210    -0.000013179637
      24       -0.000014883218     0.000006454981    -0.000000582003
      25        0.000003245390     0.000000324343     0.000002480249
      26        0.000001311181    -0.000006633056    -0.000007217746
      27        0.000000950427    -0.000007666387     0.000001713666
      28        0.000001863566     0.000009467470    -0.000000342250

  **** Optimization is complete! (in 19 steps) ****
    Final optimized geometry and variables:
    Molecular point group: c1

    Geometry (in Angstrom), charge = 0, multiplicity = 1:

    H            3.557915664218     0.416076719732     3.773901122641
    C            2.472569104933     0.395069713851     3.781344765796
    C            1.902529975445     0.833918661245     2.433191815129
    H            2.163047494099    -0.617171056708     4.024098083965
    H            2.134535792629     1.046233777579     4.582922824105
    C            0.372340270393     0.822810436830     2.411295549801
    H            2.280021516057     0.179763368879     1.654067023670
    H            2.257894834827     1.836883528633     2.202028727628
    C           -0.226374659248     1.270838546609     1.078635877061
    H            0.012688279993    -0.173855258527     2.642487962166
    H            0.000913289793     1.482224252063     3.192387074875
    C           -0.062621203615     0.275333109337    -0.058130003475
    H           -1.298849952501     1.432816814242     1.184439985974
    H            0.183380315179     2.230381520553     0.769856951697
    C           -0.320849585911     0.812525732983    -1.456267822548
    O            0.252129932340    -0.860187086133     0.134884425468
    C           -0.537445699433    -0.258554911677    -2.524602154343
    H            0.544635859636     1.424683747748    -1.708940930850
    H           -1.163445288228     1.499939951903    -1.420718177696
    C           -1.849386959924    -1.031352522779    -2.366409163004
    H           -0.533050540766     0.227266865514    -3.497718091507
    H            0.297610273898    -0.950374462817    -2.509452054076
    C           -2.051562732230    -2.071731806785    -3.467373612517
    H           -2.682458006183    -0.330104972422    -2.377813040673
    H           -1.866310383099    -1.523898990193    -1.400125408699
    H           -2.066044921565    -1.608404900720    -4.450196989587
    H           -1.252470230596    -2.807150671428    -3.459695210380
    H           -2.989907185461    -2.602077086547    -3.338148698066

  Mulliken Charges: (a.u.)
   Center  Symbol    Alpha    Beta     Spin     Total
       1     H     0.41925  0.41925  0.00000  0.16151
       2     C     3.24012  3.24012  0.00000 -0.48025
       3     C     3.15655  3.15655  0.00000 -0.31310
       4     H     0.41835  0.41835  0.00000  0.16329
       5     H     0.42351  0.42351  0.00000  0.15298
       6     C     3.14947  3.14947  0.00000 -0.29894
       7     H     0.41006  0.41006  0.00000  0.17987
       8     H     0.42753  0.42753  0.00000  0.14495
       9     C     3.21011  3.21011  0.00000 -0.42022
      10     H     0.40729  0.40729  0.00000  0.18543
      11     H     0.42156  0.42156  0.00000  0.15689
      12     C     2.73036  2.73036  0.00000  0.53927
      13     H     0.40445  0.40445  0.00000  0.19111
      14     H     0.41150  0.41150  0.00000  0.17700
      15     C     3.20975  3.20975  0.00000 -0.41950
      16     O     4.27032  4.27032  0.00000 -0.54065
      17     C     3.14875  3.14875  0.00000 -0.29751
      18     H     0.40420  0.40420  0.00000  0.19160
      19     H     0.41192  0.41192  0.00000  0.17616
      20     C     3.15723  3.15723  0.00000 -0.31447
      21     H     0.42158  0.42158  0.00000  0.15684
      22     H     0.40799  0.40799  0.00000  0.18403
      23     C     3.24010  3.24010  0.00000 -0.48019
      24     H     0.42777  0.42777  0.00000  0.14446
      25     H     0.40897  0.40897  0.00000  0.18205
      26     H     0.42359  0.42359  0.00000  0.15281
      27     H     0.41852  0.41852  0.00000  0.16296
      28     H     0.41920  0.41920  0.00000  0.16161

   Total alpha = 40.00000, Total beta = 40.00000, Total charge = -0.00000
