  ==> Input File <==

--------------------------------------------------------------------------
set {
	reference rhf
	basis cc-pvtz
}

set_num_threads( 4 )
memory 2 gb

molecule MOL {
0 1

H	 -0.595392	 1.839435	 0.250387
O	 0.057669	 1.301365	 -0.158528
C	 0.004145	 -0.005141	 0.363049
C	 1.199168	 -0.827145	 -0.096690
C	 -1.316386	 -0.602081	 -0.083515
H	 0.012026	 0.043363	 1.450619
H	 1.216685	 -0.896776	 -1.178167
H	 2.129940	 -0.372354	 0.228035
H	 1.160783	 -1.829622	 0.314294
H	 -1.357882	 -0.655920	 -1.165207
H	 -2.140147	 0.011735	 0.257253
H	 -1.440790	 -1.601175	 0.317669

	symmetry c1
}
set optking {
	frozen_dihedral = ("
		1 2 3 4
	")
}

ee = optimize('scf')
oeprop('DIPOLE', 'QUADRUPOLE', 'MULLIKEN_CHARGES')
f=open( 'psi4out.xyz', 'w' )
f.write( "12  " )
f.write( str(ee) + "\n" )
f.write( MOL.save_string_xyz() )
f.close()
--------------------------------------------------------------------------

    Molecular point group: c1
  Charge       = 0
  Multiplicity = 1
  Basis Set: CC-PVTZ
  Basis Set:
  @DF-RHF Final Energy:  -193.19413786278432
    Total Energy =                       -193.1941378627842312
    Molecular point group: c1
  Basis Set: CC-PVTZ
  Basis Set:
  Basis Set: CC-PVTZ
  Basis Set:
  @DF-RHF Final Energy:  -193.19566904089987
    Total Energy =                       -193.1956690408998156
  Basis Set: CC-PVTZ
  Basis Set:
  Basis Set: CC-PVTZ
  Basis Set:
  @DF-RHF Final Energy:  -193.19597007847977
    Total Energy =                       -193.1959700784796041
  Basis Set: CC-PVTZ
  Basis Set:
  Basis Set: CC-PVTZ
  Basis Set:
  @DF-RHF Final Energy:  -193.19597398342083
    Total Energy =                       -193.1959739834209131
  Basis Set: CC-PVTZ
  Basis Set:
  Charge       = 0
  Multiplicity = 1
  Basis Set: CC-PVTZ
  Basis Set:

    Orbital Energies (a.u.)
    -----------------------

    Doubly Occupied:

       1A    -20.544267     2A    -11.274120     3A    -11.209833
       4A    -11.205074     5A     -1.364652     6A     -1.043112
       7A     -0.939685     8A     -0.802608     9A     -0.705362
      10A     -0.624073    11A     -0.605034    12A     -0.547944
      13A     -0.537159    14A     -0.528962    15A     -0.510592
      16A     -0.468101    17A     -0.433302

  @DF-RHF Final Energy:  -193.19597450984145

   => Energetics <=

    Nuclear Repulsion Energy =            135.7000847887834425
    One-Electron Energy =                -531.1043620581987170
    Two-Electron Energy =                 202.2083027595736269
    DFT Exchange-Correlation Energy =       0.0000000000000000
    Empirical Dispersion Energy =           0.0000000000000000
    PCM Polarization Energy =               0.0000000000000000
    EFP Energy =                            0.0000000000000000
    Total Energy =                       -193.1959745098416477
    Molecular point group: c1
  Basis Set: CC-PVTZ
  Basis Set:

  -Total Gradient:
     Atom            X                  Y                   Z
    ------   -----------------  -----------------  -----------------
       1        0.000473951657     0.000146554124     0.000538682228
       2       -0.000502827033    -0.000151317566    -0.000553928028
       3       -0.000199399681    -0.000090687563    -0.000391607051
       4        0.000206855077     0.000109010031     0.000393509112
       5        0.000002804451     0.000001562885     0.000007764076
       6       -0.000000385038    -0.000018464514    -0.000016501958
       7       -0.000010851082     0.000005043189    -0.000002809879
       8       -0.000006759398     0.000007853339     0.000010773903
       9        0.000004777147    -0.000005453171    -0.000008714490
      10        0.000011505398     0.000015122937     0.000012967610
      11        0.000019529434    -0.000004215560    -0.000001982417
      12        0.000000799068    -0.000015008127     0.000011846893

  **** Optimization is complete! (in 5 steps) ****
    Final optimized geometry and variables:
    Molecular point group: c1

    Geometry (in Angstrom), charge = 0, multiplicity = 1:

    H           -0.491972873181     1.868452445110     0.223068005195
    O            0.146247243567     1.293894468835    -0.158390549784
    C           -0.001197086208    -0.006637806170     0.360991404291
    C            1.202244326276    -0.804901631828    -0.101830568428
    C           -1.318346243589    -0.624811142479    -0.083774873420
    H            0.013370830218     0.038578525861     1.448522436379
    H            1.228270579857    -0.851326393172    -1.184445384420
    H            2.116678550000    -0.337286831492     0.239493100295
    H            1.164530185280    -1.816201321062     0.286076671648
    H           -1.359944083139    -0.686364674082    -1.164994465820
    H           -2.158946213981    -0.026392347484     0.252687333531
    H           -1.436377719789    -1.622123288687     0.325074661117

  Mulliken Charges: (a.u.)
   Center  Symbol    Alpha    Beta     Spin     Total
       1     H     0.39591  0.39591  0.00000  0.20819
       2     O     4.20468  4.20468  0.00000 -0.40937
       3     C     2.92279  2.92279  0.00000  0.15443
       4     C     3.14198  3.14198  0.00000 -0.28396
       5     C     3.14386  3.14386  0.00000 -0.28772
       6     H     0.46675  0.46675  0.00000  0.06651
       7     H     0.45236  0.45236  0.00000  0.09529
       8     H     0.44698  0.44698  0.00000  0.10604
       9     H     0.45889  0.45889  0.00000  0.08222
      10     H     0.45128  0.45128  0.00000  0.09744
      11     H     0.45768  0.45768  0.00000  0.08463
      12     H     0.45685  0.45685  0.00000  0.08630

   Total alpha = 17.00000, Total beta = 17.00000, Total charge =  0.00000
