  ==> Input File <==

--------------------------------------------------------------------------
set {
	reference rhf
	basis 6-31G*
}

set_num_threads( 1 )
memory 2 gb

molecule MOL {
0 1

H	 1.290797	 -2.906963	 -1.499844
O	 1.357501	 -2.349593	 -0.730659
C	 0.577928	 -1.285657	 -0.922288
C	 0.624473	 -0.343591	 0.253101
O	 -0.058270	 -1.139629	 -1.914732
C	 -0.265902	 0.883932	 0.072916
H	 0.352875	 -0.919468	 1.131721
H	 1.663592	 -0.057541	 0.395089
C	 -1.728698	 0.646073	 0.462102
H	 -0.209144	 1.219470	 -0.958188
H	 0.135059	 1.692851	 0.673903
C	 -2.482460	 -0.343073	 -0.431425
H	 -2.245265	 1.602650	 0.432430
H	 -1.779332	 0.308348	 1.496285
C	 -3.960546	 -0.461025	 -0.060175
H	 -2.395034	 -0.026811	 -1.468912
H	 -2.024850	 -1.327147	 -0.371646
H	 -4.472726	 -1.168004	 -0.705284
H	 -4.465146	 0.496508	 -0.151489
H	 -4.081218	 -0.800940	 0.964585

	symmetry c1
}
set optking {
	frozen_dihedral = ("
		16 12 9 6,
		12 9 6 10,
		5 3 4 7,
		1 2 3 5
	")
}

ee = energy('scf')
oeprop('DIPOLE', 'QUADRUPOLE', 'MULLIKEN_CHARGES')
f=open( 'psi4out.xyz', 'w' )
f.write( "20  " )
f.write( str(ee) + "\n" )
f.write( MOL.save_string_xyz() )
f.close()
--------------------------------------------------------------------------

    Molecular point group: c1

    Geometry (in Angstrom), charge = 0, multiplicity = 1:

       Center              X                  Y                   Z               Mass
    ------------   -----------------  -----------------  -----------------  -----------------
           H          2.017982599217    -2.316426208978    -1.070120890589     1.007825032070
           O          2.084686599217    -1.759056208978    -0.300935890589    15.994914619560
           C          1.305113599217    -0.695120208978    -0.492564890589    12.000000000000
           C          1.351658599217     0.246945791022     0.682824109411    12.000000000000
           O          0.668915599217    -0.549092208978    -1.485008890589    15.994914619560
           C          0.461283599217     1.474468791022     0.502639109411    12.000000000000
           H          1.080060599217    -0.328931208978     1.561444109411     1.007825032070
           H          2.390777599217     0.532995791022     0.824812109411     1.007825032070
           C         -1.001512400783     1.236609791022     0.891825109411    12.000000000000
           H          0.518041599217     1.810006791022    -0.528464890589     1.007825032070
           H          0.862244599217     2.283387791022     1.103626109411     1.007825032070
           C         -1.755274400783     0.247463791022    -0.001701890589    12.000000000000
           H         -1.518079400783     2.193186791022     0.862153109411     1.007825032070
           H         -1.052146400783     0.898884791022     1.926008109411     1.007825032070
           C         -3.233360400783     0.129511791022     0.369548109411    12.000000000000
           H         -1.667848400783     0.563725791022    -1.039188890589     1.007825032070
           H         -1.297664400783    -0.736610208978     0.058077109411     1.007825032070
           H         -3.745540400783    -0.577467208978    -0.275560890589     1.007825032070
           H         -3.737960400783     1.087044791022     0.278234109411     1.007825032070
           H         -3.354032400783    -0.210403208978     1.394308109411     1.007825032070

  Charge       = 0
  Multiplicity = 1
  Basis Set: 6-31G*
  Basis Set:

    Orbital Energies (a.u.)
    -----------------------

    Doubly Occupied:

       1A    -20.614001     2A    -20.552255     3A    -11.382058
       4A    -11.240757     5A    -11.222307     6A    -11.214575
       7A    -11.205683     8A    -11.202496     9A     -1.476252
      10A     -1.367637    11A     -1.092833    12A     -1.034473
      13A     -0.956263    14A     -0.867891    15A     -0.811166
      16A     -0.771043    17A     -0.702861    18A     -0.692487
      19A     -0.663989    20A     -0.626126    21A     -0.600821
      22A     -0.588571    23A     -0.571307    24A     -0.549448
      25A     -0.538554    26A     -0.511408    27A     -0.493735
      28A     -0.483400    29A     -0.462426    30A     -0.453240
      31A     -0.452312    32A     -0.440429

  @DF-RHF Final Energy:  -383.94393158977124

   => Energetics <=

    Nuclear Repulsion Energy =            393.3955355417817259
    One-Electron Energy =               -1302.9933210033718751
    Two-Electron Energy =                 525.6538538718180007
    DFT Exchange-Correlation Energy =       0.0000000000000000
    Empirical Dispersion Energy =           0.0000000000000000
    PCM Polarization Energy =               0.0000000000000000
    EFP Energy =                            0.0000000000000000
    Total Energy =                       -383.9439315897720917

  Mulliken Charges: (a.u.)
   Center  Symbol    Alpha    Beta     Spin     Total
       1     H     0.26783  0.26783  0.00000  0.46433
       2     O     4.35099  4.35099  0.00000 -0.70199
       3     C     2.62470  2.62470  0.00000  0.75061
       4     C     3.21094  3.21094  0.00000 -0.42188
       5     O     4.27853  4.27853  0.00000 -0.55706
       6     C     3.15957  3.15957  0.00000 -0.31913
       7     H     0.39718  0.39718  0.00000  0.20564
       8     H     0.39538  0.39538  0.00000  0.20924
       9     C     3.15538  3.15538  0.00000 -0.31076
      10     H     0.40459  0.40459  0.00000  0.19082
      11     H     0.41663  0.41663  0.00000  0.16675
      12     C     3.14790  3.14790  0.00000 -0.29580
      13     H     0.42075  0.42075  0.00000  0.15851
      14     H     0.42603  0.42603  0.00000  0.14794
      15     C     3.23980  3.23980  0.00000 -0.47960
      16     H     0.41064  0.41064  0.00000  0.17872
      17     H     0.42562  0.42562  0.00000  0.14877
      18     H     0.41891  0.41891  0.00000  0.16219
      19     H     0.42348  0.42348  0.00000  0.15305
      20     H     0.42517  0.42517  0.00000  0.14966

   Total alpha = 32.00000, Total beta = 32.00000, Total charge =  0.00000
