                              Psi4 1.0.54 Driver

  ==> Input File <==

--------------------------------------------------------------------------
set {
	reference rhf
	basis cc-pvtz
}

set_num_threads( 4 )
memory 2 gb

molecule MOL {
0 1

O	 -0.711310	 0.830494	 -2.696185
C	 -1.231780	 0.709053	 -1.635150
C	 -0.881910	 -0.448129	 -0.720509
C	 -2.250270	 1.705240	 -1.134094
C	 0.376695	 -0.140025	 0.100361
H	 -0.706072	 -1.316265	 -1.343029
H	 -1.711217	 -0.666738	 -0.056186
C	 1.630207	 -0.772146	 -0.501001
H	 0.486632	 0.935267	 0.162725
H	 0.248225	 -0.501310	 1.117842
C	 2.907848	 -0.545876	 0.309149
H	 1.772784	 -0.391628	 -1.509394
H	 1.468529	 -1.842059	 -0.599744
C	 3.373802	 0.906639	 0.372125
H	 3.699140	 -1.146831	 -0.127906
H	 2.764321	 -0.923458	 1.318191
H	 3.519798	 1.311927	 -0.623875
H	 4.316899	 0.983758	 0.900700
H	 2.661122	 1.540651	 0.885346
H	 -3.222706	 1.225954	 -1.082618
H	 -2.301139	 2.552455	 -1.800583
H	 -2.002358	 2.034874	 -0.131362

	symmetry c1
}
set optking {
	frozen_dihedral = ("
		6 3 5 8
	")
}

ee,wfn = optimize('scf', return_wfn=True)
oeprop( wfn, 'DIPOLE', 'QUADRUPOLE', 'MULLIKEN_CHARGES')
f=open( 'psi4out.xyz', 'w' )
f.write( "22  " )
f.write( str(ee) + "\n" )
f.write( MOL.save_string_xyz() )
f.close()
--------------------------------------------------------------------------

    Molecular point group: c1
  Charge       = 0
  Multiplicity = 1
  Basis Set: CC-PVTZ
  Basis Set:
  @DF-RHF Final Energy:  -348.21925629811659
    Total Energy =                       -348.2192562981169885
    Molecular point group: c1
  Basis Set: CC-PVTZ
  Basis Set:
  Basis Set: CC-PVTZ
  Basis Set:
  @DF-RHF Final Energy:  -348.21947716029860
    Total Energy =                       -348.2194771602986521
  Basis Set: CC-PVTZ
  Basis Set:
  Basis Set: CC-PVTZ
  Basis Set:
  @DF-RHF Final Energy:  -348.21748507826283
    Total Energy =                       -348.2174850782629392
  Basis Set: CC-PVTZ
  Basis Set:
  Basis Set: CC-PVTZ
  Basis Set:
  @DF-RHF Final Energy:  -348.21968750976566
    Total Energy =                       -348.2196875097657767
  Basis Set: CC-PVTZ
  Basis Set:
  @DF-RHF Final Energy:  -348.21971559429136
    Total Energy =                       -348.2197155942914151
  Basis Set: CC-PVTZ
  Basis Set:
  @DF-RHF Final Energy:  -348.21972057788713
    Total Energy =                       -348.2197205778869034
  Basis Set: CC-PVTZ
  Basis Set:
  Basis Set: CC-PVTZ
  Basis Set:
  @DF-RHF Final Energy:  -348.21972961674936
    Total Energy =                       -348.2197296167491913
  Basis Set: CC-PVTZ
  Basis Set:
  Basis Set: CC-PVTZ
  Basis Set:
  @DF-RHF Final Energy:  -348.21973220095447
    Total Energy =                       -348.2197322009544678
  Basis Set: CC-PVTZ
  Basis Set:
  Charge       = 0
  Multiplicity = 1
  Basis Set: CC-PVTZ
  Basis Set:

    Orbital Energies (a.u.)
    -----------------------

    Doubly Occupied:

       1A    -20.536725     2A    -11.319190     3A    -11.229271
       4A    -11.227595     5A    -11.226762     6A    -11.216153
       7A    -11.215220     8A    -11.207939     9A     -1.396671
      10A     -1.094703    11A     -1.044128    12A     -0.998579
      13A     -0.937045    14A     -0.859061    15A     -0.786035
      16A     -0.735236    17A     -0.661311    18A     -0.643932
      19A     -0.627967    20A     -0.611299    21A     -0.602214
      22A     -0.587244    23A     -0.555741    24A     -0.549099
      25A     -0.533357    26A     -0.520613    27A     -0.504659
      28A     -0.487209    29A     -0.468714    30A     -0.462542
      31A     -0.455060    32A     -0.398196

  @DF-RHF Final Energy:  -348.21973296349717

   => Energetics <=

    Nuclear Repulsion Energy =            379.3857671598454431
    One-Electron Energy =               -1223.8120570043161024
    Two-Electron Energy =                 496.2065568809732667
    DFT Exchange-Correlation Energy =       0.0000000000000000
    Empirical Dispersion Energy =           0.0000000000000000
    PCM Polarization Energy =               0.0000000000000000
    EFP Energy =                            0.0000000000000000
    Total Energy =                       -348.2197329634973357
    Molecular point group: c1
  Basis Set: CC-PVTZ
  Basis Set:

  -Total Gradient:
     Atom            X                  Y                   Z
    ------   -----------------  -----------------  -----------------
       1       -0.000017456819     0.000042206859     0.000010952398
       2        0.000054642676    -0.000035666052    -0.000024158476
       3       -0.001527114565    -0.003298113699     0.003388337498
       4       -0.000055950848    -0.000039375747    -0.000060236791
       5        0.000775065603     0.003271505248    -0.002253825174
       6        0.001067564384     0.002028651259    -0.002335308257
       7       -0.000002500344    -0.000013810671     0.000003094275
       8       -0.000342325826    -0.001992310636     0.001236647777
       9        0.000015404140     0.000001662060     0.000022561449
      10        0.000007295481    -0.000001757127    -0.000029869935
      11       -0.000019350249     0.000003519921     0.000003791723
      12       -0.000019751568     0.000010105111     0.000006827511
      13        0.000007359572    -0.000004375950    -0.000005254559
      14        0.000015335007    -0.000005477206    -0.000005233821
      15        0.000001432181    -0.000007694303    -0.000002581156
      16        0.000005773092    -0.000000024534     0.000010017433
      17       -0.000002065816     0.000001408445     0.000003815967
      18       -0.000008228967    -0.000000703100    -0.000003223449
      19       -0.000003709256     0.000002931228     0.000002262666
      20        0.000028554633     0.000012707659     0.000014738745
      21       -0.000002516432     0.000017048485     0.000006301336
      22        0.000022543924     0.000007562750     0.000010342843

  **** Optimization is complete! (in 9 steps) ****
    Final optimized geometry and variables:
    Molecular point group: c1

    Geometry (in Angstrom), charge = 0, multiplicity = 1:

    O           -1.198358533290     0.477648581372    -1.989162930177
    C           -1.642909345544     0.393812216681    -0.890173240843
    C           -1.305487773826    -0.776985354292     0.011429151828
    C           -2.554321318226     1.458116992234    -0.324643299445
    C           -0.042283131455    -0.475336797148     0.852190761985
    H           -1.127233388259    -1.623577949949    -0.637213005096
    H           -2.146939793196    -0.996630951677     0.656720148485
    C            1.226573031774    -1.072921598202     0.245177921918
    H            0.068512049318     0.595505813545     0.980022950455
    H           -0.176227637774    -0.883675097914     1.848427309313
    C            2.500635817311    -0.806548216829     1.047886909472
    H            1.350468904877    -0.700646407385    -0.767482542488
    H            1.087225869089    -2.146559641053     0.160663553869
    C            2.948224496264     0.653183265739     1.069937282595
    H            3.299541429725    -1.407375333725     0.624960801085
    H            2.365428533724    -1.159101223917     2.067397903518
    H            3.083782530844     1.033196857685     0.062856021510
    H            3.892336795029     0.756925723370     1.592212155580
    H            2.230500051526     1.292420269136     1.570325149303
    H           -3.557565102020     1.052782100321    -0.239194928132
    H           -2.570259437347     2.318684785280    -0.975654792772
    H           -2.240608753844     1.749186797521     0.671195192558

  Mulliken Charges: (a.u.)
   Center  Symbol    Alpha    Beta     Spin     Total
       1     O     4.17833  4.17833  0.00000 -0.35666
       2     C     2.85836  2.85836  0.00000  0.28329
       3     C     3.10857  3.10857  0.00000 -0.21715
       4     C     3.15455  3.15455  0.00000 -0.30909
       5     C     3.10485  3.10485  0.00000 -0.20969
       6     H     0.44026  0.44026  0.00000  0.11948
       7     H     0.43827  0.43827  0.00000  0.12347
       8     C     3.09271  3.09271  0.00000 -0.18541
       9     H     0.45074  0.45074  0.00000  0.09853
      10     H     0.44628  0.44628  0.00000  0.10745
      11     C     3.09228  3.09228  0.00000 -0.18456
      12     H     0.44225  0.44225  0.00000  0.11550
      13     H     0.44871  0.44871  0.00000  0.10259
      14     C     3.15219  3.15219  0.00000 -0.30438
      15     H     0.44722  0.44722  0.00000  0.10555
      16     H     0.45570  0.45570  0.00000  0.08861
      17     H     0.45115  0.45115  0.00000  0.09770
      18     H     0.44628  0.44628  0.00000  0.10745
      19     H     0.45638  0.45638  0.00000  0.08723
      20     H     0.44784  0.44784  0.00000  0.10431
      21     H     0.43639  0.43639  0.00000  0.12723
      22     H     0.45070  0.45070  0.00000  0.09859

   Total alpha = 32.00000, Total beta = 32.00000, Total charge =  0.00000

*** Psi4 exiting successfully. Buy a developer a beer!
