                              Psi4 1.0.54 Driver

  ==> Input File <==

--------------------------------------------------------------------------
set {
	reference rhf
	basis cc-pvtz
}

set_num_threads( 4 )
memory 2 gb

molecule MOL {
0 1

H	 -0.000342	 -0.223902	 -3.352295
C	 -0.027146	 0.371068	 -2.446756
C	 0.024493	 -0.518541	 -1.216015
H	 -0.932586	 0.964979	 -2.449855
H	 0.819708	 1.049865	 -2.473332
N	 -0.042516	 0.263377	 0.000000
H	 -0.822211	 -1.197105	 -1.225584
H	 0.921114	 -1.142847	 -1.255206
C	 0.024493	 -0.518541	 1.216015
H	 0.682568	 0.950412	 0.000000
C	 1.222535	 -0.120664	 2.061700
H	 -0.887426	 -0.344134	 1.777652
H	 0.062007	 -1.592242	 1.013578
H	 1.179347	 0.931922	 2.312219
H	 1.251557	 -0.694324	 2.980819
H	 2.152139	 -0.301577	 1.530908

	symmetry c1
}
set optking {
	frozen_dihedral = ("
		12 9 6 3
	")
}

ee,wfn = optimize('scf', return_wfn=True)
oeprop( wfn, 'DIPOLE', 'QUADRUPOLE', 'MULLIKEN_CHARGES')
f=open( 'psi4out.xyz', 'w' )
f.write( "16  " )
f.write( str(ee) + "\n" )
f.write( MOL.save_string_xyz() )
f.close()
--------------------------------------------------------------------------

    Molecular point group: c1
  Charge       = 0
  Multiplicity = 1
  Basis Set: CC-PVTZ
  Basis Set:
  @DF-RHF Final Energy:  -212.38854998193463
    Total Energy =                       -212.3885499819344886
    Molecular point group: c1
  Basis Set: CC-PVTZ
  Basis Set:
  Basis Set: CC-PVTZ
  Basis Set:
  @DF-RHF Final Energy:  -212.38916754306624
    Total Energy =                       -212.3891675430663781
  Basis Set: CC-PVTZ
  Basis Set:
  Basis Set: CC-PVTZ
  Basis Set:
  @DF-RHF Final Energy:  -212.38929650133895
    Total Energy =                       -212.3892965013387197
  Basis Set: CC-PVTZ
  Basis Set:
  Basis Set: CC-PVTZ
  Basis Set:
  @DF-RHF Final Energy:  -212.38930113122200
    Total Energy =                       -212.3893011312221688
  Basis Set: CC-PVTZ
  Basis Set:
  Charge       = 0
  Multiplicity = 1
  Basis Set: CC-PVTZ
  Basis Set:

    Orbital Energies (a.u.)
    -----------------------

    Doubly Occupied:

       1A    -15.525198     2A    -11.239234     3A    -11.238688
       4A    -11.211120     5A    -11.206062     6A     -1.202937
       7A     -1.028979     8A     -0.964514     9A     -0.837755
      10A     -0.822550    11A     -0.643580    12A     -0.629446
      13A     -0.622600    14A     -0.579872    15A     -0.554623
      16A     -0.523258    17A     -0.506701    18A     -0.497039
      19A     -0.487892    20A     -0.472791    21A     -0.354859

  @DF-RHF Final Energy:  -212.38930188169863

   => Energetics <=

    Nuclear Repulsion Energy =            189.9165244218746409
    One-Electron Energy =                -662.3122560526085181
    Two-Electron Energy =                 260.0064297490350782
    DFT Exchange-Correlation Energy =       0.0000000000000000
    Empirical Dispersion Energy =           0.0000000000000000
    PCM Polarization Energy =               0.0000000000000000
    EFP Energy =                            0.0000000000000000
    Total Energy =                       -212.3893018816987706
    Molecular point group: c1
  Basis Set: CC-PVTZ
  Basis Set:

  -Total Gradient:
     Atom            X                  Y                   Z
    ------   -----------------  -----------------  -----------------
       1        0.000002272798     0.000008596503    -0.000015376408
       2        0.000003789856    -0.000007699000    -0.000011430156
       3        0.000389140433    -0.000002713403    -0.000024777184
       4        0.000003636192    -0.000010193786     0.000009096993
       5        0.000002446314    -0.000000905129    -0.000000344487
       6       -0.000546781174     0.000127541903     0.000039378923
       7       -0.000000796556     0.000003875294     0.000007298884
       8       -0.000010354415     0.000022527093     0.000010567983
       9       -0.000061979935    -0.000545511047    -0.000220038370
      10        0.000014243709    -0.000004397832     0.000013935345
      11       -0.000007318921    -0.000012693113    -0.000059358140
      12        0.000254776724     0.000414149926     0.000213621121
      13        0.000008133876    -0.000000089149     0.000004250233
      14       -0.000001046428     0.000004594373     0.000000679783
      15       -0.000009861709    -0.000012587866     0.000023527331
      16       -0.000040300765     0.000015505232     0.000008968151

  **** Optimization is complete! (in 5 steps) ****
    Final optimized geometry and variables:
    Molecular point group: c1

    Geometry (in Angstrom), charge = 0, multiplicity = 1:

    H           -0.273242555430    -0.034512278590    -3.285087603251
    C           -0.293745333096     0.533375250104    -2.362141394591
    C           -0.247587123110    -0.392855805490    -1.158869082907
    H           -1.194236112839     1.134634844604    -2.345570208798
    H            0.558810597959     1.205641994078    -2.369754950590
    N           -0.305072171121     0.357298878198     0.078228980778
    H           -1.100693161651    -1.062208478816    -1.190046709010
    H            0.643364111787    -1.023370782445    -1.221056773105
    C           -0.225242623446    -0.431708922174     1.300403114166
    H            0.394233319178     1.067268099166     0.076829129337
    C            0.988403401245    -0.086314163613     2.152692690716
    H           -1.123501123143    -0.280363058766     1.891224083857
    H           -0.193771827444    -1.487756521657     1.050895733604
    H            0.979157220521     0.963714611604     2.427086081883
    H            0.996010712204    -0.666024592335     3.068641090120
    H            1.911376599140    -0.286588418072     1.618547637840

  Mulliken Charges: (a.u.)
   Center  Symbol    Alpha    Beta     Spin     Total
       1     H     0.45369  0.45369  0.00000  0.09262
       2     C     3.14405  3.14405  0.00000 -0.28810
       3     C     3.02022  3.02022  0.00000 -0.04044
       4     H     0.44937  0.44937  0.00000  0.10127
       5     H     0.45974  0.45974  0.00000  0.08051
       6     N     3.64161  3.64161  0.00000 -0.28322
       7     H     0.45793  0.45793  0.00000  0.08414
       8     H     0.47548  0.47548  0.00000  0.04904
       9     C     3.02266  3.02266  0.00000 -0.04532
      10     H     0.44378  0.44378  0.00000  0.11244
      11     C     3.15042  3.15042  0.00000 -0.30084
      12     H     0.45677  0.45677  0.00000  0.08645
      13     H     0.46416  0.46416  0.00000  0.07169
      14     H     0.45421  0.45421  0.00000  0.09158
      15     H     0.45136  0.45136  0.00000  0.09729
      16     H     0.45455  0.45455  0.00000  0.09090

   Total alpha = 21.00000, Total beta = 21.00000, Total charge = -0.00000

*** Psi4 exiting successfully. Buy a developer a beer!
