  ==> Input File <==

--------------------------------------------------------------------------
set {
	reference rhf
	basis 6-31G*
}

set_num_threads( 4 )
memory 2 gb

molecule MOL {
0 1

H	 3.455193	 -0.233900	 -1.002635
N	 3.092854	 -0.246221	 -0.068770
C	 1.865559	 0.531981	 0.018834
H	 3.800970	 0.147313	 0.521597
C	 0.645745	 -0.382037	 -0.029944
H	 1.841966	 1.207024	 -0.831236
H	 1.815756	 1.155410	 0.915079
C	 -0.679275	 0.379305	 0.025956
H	 0.698998	 -0.976915	 -0.937203
H	 0.693479	 -1.083846	 0.802235
C	 -1.903357	 -0.536963	 -0.023547
H	 -0.726309	 1.082987	 -0.803784
H	 -0.717680	 0.977832	 0.934877
C	 -3.225172	 0.228290	 0.028445
H	 -1.867824	 -1.134999	 -0.931459
H	 -1.860449	 -1.239604	 0.805977
H	 -3.313397	 0.915643	 -0.808262
H	 -4.073500	 -0.448134	 -0.008893
H	 -3.306061	 0.809945	 0.942516

	symmetry c1
}
set optking {
	frozen_dihedral = ("
		1 2 3 6
	")
}

ee = optimize('scf')
oeprop('DIPOLE', 'QUADRUPOLE', 'MULLIKEN_CHARGES')
f=open( 'psi4out.xyz', 'w' )
f.write( "19  " )
f.write( str(ee) + "\n" )
f.write( MOL.save_string_xyz() )
f.close()
--------------------------------------------------------------------------

    Molecular point group: c1
  Charge       = 0
  Multiplicity = 1
  Basis Set: 6-31G*
  Basis Set:
  @DF-RHF Final Energy:  -251.34788506809969
    Total Energy =                       -251.3478850680996857
    Molecular point group: c1
  Basis Set: 6-31G*
  Basis Set:
  Basis Set: 6-31G*
  Basis Set:
  @DF-RHF Final Energy:  -251.34902406879775
    Total Energy =                       -251.3490240687979167
  Basis Set: 6-31G*
  Basis Set:
  Basis Set: 6-31G*
  Basis Set:
  @DF-RHF Final Energy:  -251.34927494625956
    Total Energy =                       -251.3492749462597544
  Basis Set: 6-31G*
  Basis Set:
  Basis Set: 6-31G*
  Basis Set:
  @DF-RHF Final Energy:  -251.34927794893073
    Total Energy =                       -251.3492779489307622
  Basis Set: 6-31G*
  Basis Set:
  Basis Set: 6-31G*
  Basis Set:
  @DF-RHF Final Energy:  -251.34928213846510
    Total Energy =                       -251.3492821384650142
  Basis Set: 6-31G*
  Basis Set:
  Charge       = 0
  Multiplicity = 1
  Basis Set: 6-31G*
  Basis Set:

    Orbital Energies (a.u.)
    -----------------------

    Doubly Occupied:

       1A    -15.532244     2A    -11.240635     3A    -11.211918
       4A    -11.209986     5A    -11.206069     6A    -11.203442
       7A     -1.174296     8A     -1.070631     9A     -0.996853
      10A     -0.899674    11A     -0.810094    12A     -0.785285
      13A     -0.673742    14A     -0.634651    15A     -0.614343
      16A     -0.579196    17A     -0.567644    18A     -0.552285
      19A     -0.519408    20A     -0.503576    21A     -0.473617
      22A     -0.462433    23A     -0.457587    24A     -0.454126
      25A     -0.378869

  @DF-RHF Final Energy:  -251.34928229501423

   => Energetics <=

    Nuclear Repulsion Energy =            245.2211627689723059
    One-Electron Energy =                -824.7156781941567942
    Two-Electron Energy =                 328.1452331301703680
    DFT Exchange-Correlation Energy =       0.0000000000000000
    Empirical Dispersion Energy =           0.0000000000000000
    PCM Polarization Energy =               0.0000000000000000
    EFP Energy =                            0.0000000000000000
    Total Energy =                       -251.3492822950141772
    Molecular point group: c1
  Basis Set: 6-31G*
  Basis Set:

  -Total Gradient:
     Atom            X                  Y                   Z
    ------   -----------------  -----------------  -----------------
       1        0.001375632788     0.002182230347     0.000640053256
       2       -0.002058084277    -0.003162477347    -0.001181532423
       3        0.001801240574     0.002676730250     0.001909446103
       4        0.000030644902    -0.000009423462     0.000010281253
       5        0.000007058111     0.000025048665     0.000004741267
       6       -0.001135145773    -0.001717167799    -0.001374234646
       7       -0.000016375464     0.000005156109     0.000010531688
       8       -0.000004524810    -0.000004707578    -0.000023276281
       9        0.000003530056     0.000015731722     0.000002161188
      10        0.000000166587    -0.000009281206     0.000007267055
      11       -0.000006795931     0.000004806465     0.000001770885
      12        0.000003264293    -0.000003189711    -0.000010763356
      13       -0.000000583750    -0.000001672599    -0.000013399464
      14       -0.000001134854    -0.000003041405     0.000017369337
      15       -0.000001766397     0.000009483894    -0.000002919313
      16        0.000003036868    -0.000008460241    -0.000002374876
      17        0.000003835306    -0.000003747586     0.000000465367
      18       -0.000000117478     0.000000280288     0.000003202838
      19       -0.000003880745     0.000003701196     0.000001210122

  **** Optimization is complete! (in 6 steps) ****
    Final optimized geometry and variables:
    Molecular point group: c1

    Geometry (in Angstrom), charge = 0, multiplicity = 1:

    H            3.493373060204    -0.230750752204    -0.963687095422
    N            3.101036467385    -0.250478240340    -0.043182930459
    C            1.863340646665     0.526927630818     0.015720701265
    H            3.795554268065     0.139410038566     0.562592055205
    C            0.641157664172    -0.387536311779    -0.023593198191
    H            1.792704957708     1.238735042459    -0.806558845799
    H            1.849778708274     1.104696745506     0.934824496034
    C           -0.683522931945     0.374542160688     0.027764567123
    H            0.684585816130    -0.989199699844    -0.929319097487
    H            0.706489758334    -1.083993738692     0.807779048296
    C           -1.908912064541    -0.540776218525    -0.006575386382
    H           -0.735969740190     1.071868440564    -0.807554147606
    H           -0.717838324215     0.981924948543     0.931521582194
    C           -3.230130067868     0.225171712657     0.050425428072
    H           -1.880655482187    -1.144888050031    -0.910846847450
    H           -1.859605024637    -1.238061459375     0.826840022464
    H           -3.324803172439     0.907118456187    -0.790088885963
    H           -4.079145940276    -0.451070368075     0.024333873391
    H           -3.303703362310     0.812973687508     0.961196197394

  Mulliken Charges: (a.u.)
   Center  Symbol    Alpha    Beta     Spin     Total
       1     H     0.33300  0.33300  0.00000  0.33400
       2     N     3.92388  3.92388  0.00000 -0.84776
       3     C     3.06809  3.06809  0.00000 -0.13618
       4     H     0.33189  0.33189  0.00000  0.33622
       5     C     3.14069  3.14069  0.00000 -0.28137
       6     H     0.42965  0.42965  0.00000  0.14069
       7     H     0.42339  0.42339  0.00000  0.15323
       8     C     3.15672  3.15672  0.00000 -0.31343
       9     H     0.42422  0.42422  0.00000  0.15157
      10     H     0.41775  0.41775  0.00000  0.16449
      11     C     3.15022  3.15022  0.00000 -0.30043
      12     H     0.42599  0.42599  0.00000  0.14802
      13     H     0.42562  0.42562  0.00000  0.14876
      14     C     3.23911  3.23911  0.00000 -0.47821
      15     H     0.42296  0.42296  0.00000  0.15409
      16     H     0.42232  0.42232  0.00000  0.15537
      17     H     0.42252  0.42252  0.00000  0.15495
      18     H     0.41969  0.41969  0.00000  0.16063
      19     H     0.42231  0.42231  0.00000  0.15538

   Total alpha = 25.00000, Total beta = 25.00000, Total charge =  0.00000
