  ==> Input File <==

--------------------------------------------------------------------------
set {
	reference rhf
	basis 6-31G*
}

set_num_threads( 4 )
memory 2 gb

molecule MOL {
0 1

H	 -1.725254	 1.711381	 -0.614277
C	 -1.028093	 1.474388	 0.182682
N	 -0.528168	 0.128977	 -0.000000
H	 -1.565819	 1.539004	 1.121677
H	 -0.247907	 2.240267	 0.180600
C	 0.248044	 -0.037491	 -1.209632
H	 0.019888	 -0.138780	 0.793076
H	 0.998722	 0.743888	 -1.266824
H	 -0.398417	 0.061950	 -2.074060
H	 0.763621	 -0.999315	 -1.275517

	symmetry c1
}
set optking {
	frozen_dihedral = ("
		2 3 6 8
	")
}

ee = optimize('scf')
oeprop('DIPOLE', 'QUADRUPOLE', 'MULLIKEN_CHARGES')
f=open( 'psi4out.xyz', 'w' )
f.write( "10  " )
f.write( str(ee) + "\n" )
f.write( MOL.save_string_xyz() )
f.close()
--------------------------------------------------------------------------

    Molecular point group: c1
  Charge       = 0
  Multiplicity = 1
  Basis Set: 6-31G*
  Basis Set:
  @DF-RHF Final Energy:  -134.23728394149248
    Total Energy =                       -134.2372839414925636
    Molecular point group: c1
  Basis Set: 6-31G*
  Basis Set:
  Basis Set: 6-31G*
  Basis Set:
  @DF-RHF Final Energy:  -134.23844584156092
    Total Energy =                       -134.2384458415610311
  Basis Set: 6-31G*
  Basis Set:
  Basis Set: 6-31G*
  Basis Set:
  @DF-RHF Final Energy:  -134.23864693291716
    Total Energy =                       -134.2386469329172769
  Basis Set: 6-31G*
  Basis Set:
  Charge       = 0
  Multiplicity = 1
  Basis Set: 6-31G*
  Basis Set:

    Orbital Energies (a.u.)
    -----------------------

    Doubly Occupied:

       1A    -15.538441     2A    -11.236061     3A    -11.236022
       4A     -1.199891     5A     -0.947888     6A     -0.854172
       7A     -0.661832     8A     -0.613026     9A     -0.591790
      10A     -0.539317    11A     -0.510022    12A     -0.506585
      13A     -0.362319

  @DF-RHF Final Energy:  -134.23864834712339

   => Energetics <=

    Nuclear Repulsion Energy =             84.6642076715900913
    One-Electron Energy =                -348.2109773573155280
    Two-Electron Energy =                 129.3081213386021204
    DFT Exchange-Correlation Energy =       0.0000000000000000
    Empirical Dispersion Energy =           0.0000000000000000
    PCM Polarization Energy =               0.0000000000000000
    EFP Energy =                            0.0000000000000000
    Total Energy =                       -134.2386483471233305
    Molecular point group: c1
  Basis Set: 6-31G*
  Basis Set:

  -Total Gradient:
     Atom            X                  Y                   Z
    ------   -----------------  -----------------  -----------------
       1       -0.000035319174     0.000019621076    -0.000008408456
       2        0.000923669159     0.000240979816     0.000344959560
       3       -0.001433463460    -0.000108866507    -0.000897839055
       4        0.000047703508    -0.000092162854    -0.000011105152
       5        0.000001630172     0.000008982348     0.000029959188
       6        0.001405171142    -0.000848742813     0.001129252905
       7        0.000021021386    -0.000021021093    -0.000038189513
       8       -0.000879570720     0.000806238274    -0.000627957599
       9       -0.000025478773    -0.000002269138     0.000015315483
      10       -0.000025363240    -0.000002759109     0.000064012640

  **** Optimization is complete! (in 4 steps) ****
    Final optimized geometry and variables:
    Molecular point group: c1

    Geometry (in Angstrom), charge = 0, multiplicity = 1:

    H           -1.306768174900     1.173663585549    -0.266141650555
    C           -0.614676659367     0.928803155212     0.533040069127
    N           -0.108332036958    -0.412595187918     0.338794450689
    H           -1.159608753011     0.980324571867     1.468622198160
    H            0.163697166892     1.696235991475     0.545366132302
    C            0.677056960733    -0.559965594881    -0.867911183912
    H            0.440478628675    -0.680321507559     1.131474883214
    H            1.455249361545     0.199244783138    -0.981881561814
    H            0.026192798566    -0.489985957119    -1.733775142438
    H            1.143210677409    -1.538105050365    -0.883740630854

  Mulliken Charges: (a.u.)
   Center  Symbol    Alpha    Beta     Spin     Total
       1     H     0.41802  0.41802  0.00000  0.16396
       2     C     3.14577  3.14577  0.00000 -0.29155
       3     N     3.83743  3.83743  0.00000 -0.67486
       4     H     0.41663  0.41663  0.00000  0.16674
       5     H     0.43444  0.43444  0.00000  0.13113
       6     C     3.14554  3.14554  0.00000 -0.29108
       7     H     0.33272  0.33272  0.00000  0.33456
       8     H     0.43452  0.43452  0.00000  0.13097
       9     H     0.41775  0.41775  0.00000  0.16450
      10     H     0.41718  0.41718  0.00000  0.16563

   Total alpha = 13.00000, Total beta = 13.00000, Total charge = -0.00000
