  ==> Input File <==

--------------------------------------------------------------------------
set {
	reference rhf
	basis 6-31G*
}

set_num_threads( 4 )
memory 2 gb

molecule MOL {
0 1

H	 3.802221	 0.436754	 0.649056
N	 2.981291	 -0.136892	 0.672497
C	 1.865559	 0.531981	 0.018834
H	 2.772891	 -0.304537	 1.638569
C	 0.645745	 -0.382037	 -0.029944
H	 2.173522	 0.773227	 -0.993993
H	 1.592053	 1.476312	 0.496153
C	 -0.679275	 0.379305	 0.025956
H	 0.698998	 -0.976915	 -0.937203
H	 0.693479	 -1.083846	 0.802235
C	 -1.903357	 -0.536963	 -0.023547
H	 -0.726309	 1.082987	 -0.803784
H	 -0.717680	 0.977832	 0.934877
C	 -3.225172	 0.228290	 0.028445
H	 -1.867824	 -1.134999	 -0.931459
H	 -1.860449	 -1.239604	 0.805977
H	 -3.313397	 0.915643	 -0.808262
H	 -4.073500	 -0.448134	 -0.008893
H	 -3.306061	 0.809945	 0.942516

	symmetry c1
}
set optking {
	frozen_dihedral = ("
		6 3 5 9
	")
}

ee = optimize('scf')
oeprop('DIPOLE', 'QUADRUPOLE', 'MULLIKEN_CHARGES')
f=open( 'psi4out.xyz', 'w' )
f.write( "19  " )
f.write( str(ee) + "\n" )
f.write( MOL.save_string_xyz() )
f.close()
--------------------------------------------------------------------------

    Molecular point group: c1
  Charge       = 0
  Multiplicity = 1
  Basis Set: 6-31G*
  Basis Set:
  @DF-RHF Final Energy:  -251.34817116591853
    Total Energy =                       -251.3481711659186431
    Molecular point group: c1
  Basis Set: 6-31G*
  Basis Set:
  Basis Set: 6-31G*
  Basis Set:
  @DF-RHF Final Energy:  -251.34847153517961
    Total Energy =                       -251.3484715351800105
  Basis Set: 6-31G*
  Basis Set:
  Basis Set: 6-31G*
  Basis Set:
  @DF-RHF Final Energy:  -251.34856289409649
    Total Energy =                       -251.3485628940965171
  Basis Set: 6-31G*
  Basis Set:
  Basis Set: 6-31G*
  Basis Set:
  @DF-RHF Final Energy:  -251.34856126150189
    Total Energy =                       -251.3485612615020273
  Basis Set: 6-31G*
  Basis Set:
  Basis Set: 6-31G*
  Basis Set:
  @DF-RHF Final Energy:  -251.34856489507172
    Total Energy =                       -251.3485648950717177
  Basis Set: 6-31G*
  Basis Set:
  Charge       = 0
  Multiplicity = 1
  Basis Set: 6-31G*
  Basis Set:

    Orbital Energies (a.u.)
    -----------------------

    Doubly Occupied:

       1A    -15.532091     2A    -11.240036     3A    -11.213862
       4A    -11.212545     5A    -11.209704     6A    -11.207655
       7A     -1.175518     8A     -1.072636     9A     -0.997352
      10A     -0.899712    11A     -0.813769    12A     -0.788686
      13A     -0.668189    14A     -0.636480    15A     -0.618843
      16A     -0.583332    17A     -0.569382    18A     -0.547828
      19A     -0.527107    20A     -0.502886    21A     -0.482237
      22A     -0.464899    23A     -0.460945    24A     -0.446148
      25A     -0.380380

  @DF-RHF Final Energy:  -251.34856504254691

   => Energetics <=

    Nuclear Repulsion Energy =            245.6689660287343600
    One-Electron Energy =                -825.5306193251569766
    Two-Electron Energy =                 328.5130882538758215
    DFT Exchange-Correlation Energy =       0.0000000000000000
    Empirical Dispersion Energy =           0.0000000000000000
    PCM Polarization Energy =               0.0000000000000000
    EFP Energy =                            0.0000000000000000
    Total Energy =                       -251.3485650425468521
    Molecular point group: c1
  Basis Set: 6-31G*
  Basis Set:

  -Total Gradient:
     Atom            X                  Y                   Z
    ------   -----------------  -----------------  -----------------
       1       -0.000004964562    -0.000001864585    -0.000000919882
       2       -0.000011018575     0.000008635549     0.000006099049
       3       -0.004094531832     0.005405995548    -0.000465758491
       4        0.000001235366     0.000000762365    -0.000003926081
       5        0.003717205728    -0.004936376475     0.002816244968
       6        0.002857878713    -0.003761546622    -0.000057698488
       7        0.000001910424    -0.000009616803    -0.000003299418
       8        0.000000660656     0.000005483472    -0.000006915096
       9       -0.002473839873     0.003296682911    -0.002292862882
      10        0.000000606157    -0.000001023672     0.000003343196
      11       -0.000002042557    -0.000004519841     0.000011172802
      12        0.000004338755     0.000005397124    -0.000003413328
      13       -0.000000141481    -0.000009139062     0.000000041735
      14        0.000001979824     0.000001794313    -0.000006075582
      15       -0.000001584270    -0.000001757930     0.000001269239
      16        0.000002114190     0.000000387104     0.000001807346
      17        0.000000150441     0.000003787421     0.000001762130
      18        0.000001691538    -0.000000095633    -0.000003425842
      19       -0.000001648642    -0.000002985186     0.000002554627

  **** Optimization is complete! (in 6 steps) ****
    Final optimized geometry and variables:
    Molecular point group: c1

    Geometry (in Angstrom), charge = 0, multiplicity = 1:

    H            3.854226104104     0.407559922647     0.425918944213
    N            3.030714478614    -0.158417929720     0.498808196539
    C            1.884139826225     0.517208903982    -0.097409166371
    H            2.875235238286    -0.320310112492     1.475737247287
    C            0.663060540398    -0.410633713849    -0.109170516090
    H            2.169232103381     0.751258946380    -1.117571155268
    H            1.636447243508     1.456289882006     0.400881847407
    C           -0.664358904431     0.352103389532    -0.082331295640
    H            0.689073997028    -1.020228263593    -1.007645437551
    H            0.711855061459    -1.086827473262     0.740378324698
    C           -1.888242544710    -0.561145324913    -0.167489833363
    H           -0.690299184566     1.062214670574    -0.908184245649
    H           -0.722602360928     0.945872779363     0.828730239771
    C           -3.210119868704     0.204911148105    -0.129748105703
    H           -1.837013857141    -1.147239634852    -1.082501282746
    H           -1.861438079547    -1.275373471924     0.652909840981
    H           -3.281367818104     0.904775854325    -0.957669458244
    H           -4.058339494837    -0.469723147521    -0.193531009076
    H           -3.308160386764     0.773056298232     0.791105084595

  Mulliken Charges: (a.u.)
   Center  Symbol    Alpha    Beta     Spin     Total
       1     H     0.33327  0.33327  0.00000  0.33347
       2     N     3.92221  3.92221  0.00000 -0.84441
       3     C     3.06255  3.06255  0.00000 -0.12510
       4     H     0.33587  0.33587  0.00000  0.32826
       5     C     3.15076  3.15076  0.00000 -0.30151
       6     H     0.41909  0.41909  0.00000  0.16182
       7     H     0.43230  0.43230  0.00000  0.13540
       8     C     3.15652  3.15652  0.00000 -0.31304
       9     H     0.41683  0.41683  0.00000  0.16634
      10     H     0.42159  0.42159  0.00000  0.15681
      11     C     3.15111  3.15111  0.00000 -0.30222
      12     H     0.42448  0.42448  0.00000  0.15105
      13     H     0.42520  0.42520  0.00000  0.14959
      14     C     3.23910  3.23910  0.00000 -0.47820
      15     H     0.42243  0.42243  0.00000  0.15514
      16     H     0.42305  0.42305  0.00000  0.15391
      17     H     0.42198  0.42198  0.00000  0.15603
      18     H     0.41938  0.41938  0.00000  0.16125
      19     H     0.42229  0.42229  0.00000  0.15542

   Total alpha = 25.00000, Total beta = 25.00000, Total charge = -0.00000
