                              Psi4 1.0.54 Driver

  ==> Input File <==

--------------------------------------------------------------------------
set {
	reference rhf
	basis cc-pvtz
}

set_num_threads( 4 )
memory 2 gb

molecule MOL {
0 1

H	 3.083659	 -1.378387	 0.000000
O	 2.179005	 -1.633391	 0.000000
C	 1.366950	 -0.558201	 0.000000
C	 1.083063	 0.155438	 1.154473
C	 0.810479	 -0.173247	 -1.202568
H	 1.517416	 -0.145832	 2.090424
C	 0.244709	 1.250687	 1.104018
H	 1.027785	 -0.722342	 -2.095942
C	 -0.028646	 0.925620	 -1.244145
H	 0.032265	 1.795159	 2.003597
C	 -0.316026	 1.642329	 -0.094987
C	 -0.634502	 1.350660	 -2.533198
H	 -0.968303	 2.493581	 -0.137323
O	 -0.457222	 0.812167	 -3.571474
H	 -1.283271	 2.229381	 -2.465765

	symmetry c1
}
set optking {
	frozen_dihedral = ("
		4 3 2 1
	")
}

ee,wfn = optimize('scf', return_wfn=True)
oeprop( wfn, 'DIPOLE', 'QUADRUPOLE', 'MULLIKEN_CHARGES')
f=open( 'psi4out.xyz', 'w' )
f.write( "15  " )
f.write( str(ee) + "\n" )
f.write( MOL.save_string_xyz() )
f.close()
--------------------------------------------------------------------------

    Molecular point group: c1
  Charge       = 0
  Multiplicity = 1
  Basis Set: CC-PVTZ
  Basis Set:
  @DF-RHF Final Energy:  -418.43457608510931
    Total Energy =                       -418.4345760851094838
    Molecular point group: c1
  Basis Set: CC-PVTZ
  Basis Set:
  Basis Set: CC-PVTZ
  Basis Set:
  @DF-RHF Final Energy:  -418.43524972299269
    Total Energy =                       -418.4352497229924666
  Basis Set: CC-PVTZ
  Basis Set:
  Basis Set: CC-PVTZ
  Basis Set:
  @DF-RHF Final Energy:  -418.43465121217798
    Total Energy =                       -418.4346512121778687
  Basis Set: CC-PVTZ
  Basis Set:
  Basis Set: CC-PVTZ
  Basis Set:
  @DF-RHF Final Energy:  -418.43536006138118
    Total Energy =                       -418.4353600613811750
  Basis Set: CC-PVTZ
  Basis Set:
  Basis Set: CC-PVTZ
  Basis Set:
  @DF-RHF Final Energy:  -418.43537220805052
    Total Energy =                       -418.4353722080502394
  Basis Set: CC-PVTZ
  Basis Set:
  Charge       = 0
  Multiplicity = 1
  Basis Set: CC-PVTZ
  Basis Set:

    Orbital Energies (a.u.)
    -----------------------

    Doubly Occupied:

       1A    -20.582135     2A    -20.554990     3A    -11.328738
       4A    -11.303237     5A    -11.251087     6A    -11.249985
       7A    -11.249051     8A    -11.247602     9A    -11.241988
      10A     -1.411174    11A     -1.409843    12A     -1.175266
      13A     -1.052647    14A     -1.030436    15A     -0.900456
      16A     -0.849974    17A     -0.806285    18A     -0.745277
      19A     -0.701954    20A     -0.686779    21A     -0.654772
      22A     -0.639968    23A     -0.623086    24A     -0.610586
      25A     -0.562122    26A     -0.549179    27A     -0.536520
      28A     -0.503813    29A     -0.492387    30A     -0.427292
      31A     -0.357207    32A     -0.346482

  @DF-RHF Final Energy:  -418.43537402314689

   => Energetics <=

    Nuclear Repulsion Energy =            403.5299035128972491
    One-Electron Energy =               -1369.7659215948524434
    Two-Electron Energy =                 547.8006440588080750
    DFT Exchange-Correlation Energy =       0.0000000000000000
    Empirical Dispersion Energy =           0.0000000000000000
    PCM Polarization Energy =               0.0000000000000000
    EFP Energy =                            0.0000000000000000
    Total Energy =                       -418.4353740231471193
    Molecular point group: c1
  Basis Set: CC-PVTZ
  Basis Set:

  -Total Gradient:
     Atom            X                  Y                   Z
    ------   -----------------  -----------------  -----------------
       1       -0.000006226676    -0.000010792679    -0.000556733154
       2       -0.000072987212    -0.000196626612     0.000692313341
       3        0.000340143989     0.000523541546    -0.000026918206
       4       -0.000207101443    -0.000412895101    -0.000010279233
       5       -0.000041957030     0.000041692218    -0.000070467760
       6       -0.000007585061    -0.000010662440    -0.000006660637
       7       -0.000102610512     0.000215831253    -0.000129195889
       8       -0.000008986147     0.000000934775     0.000005663570
       9        0.000090427665    -0.000093010841    -0.000189981273
      10        0.000008162421    -0.000015755992    -0.000001656673
      11        0.000003300596    -0.000044255169     0.000272925466
      12       -0.000042889976     0.000043199388    -0.000072980606
      13       -0.000006289301    -0.000001752350    -0.000027607072
      14       -0.000022900224     0.000067027166     0.000138688562
      15        0.000077498905    -0.000106475160    -0.000017110437

  **** Optimization is complete! (in 6 steps) ****
    Final optimized geometry and variables:
    Molecular point group: c1

    Geometry (in Angstrom), charge = 0, multiplicity = 1:

    H            2.583319691162    -1.788837814941     0.818496989487
    O            1.674821222422    -2.032680208169     0.784239063572
    C            0.876967555916    -0.926484733580     0.734136137902
    C            0.590256216656    -0.223254737899     1.894804836479
    C            0.313479819307    -0.546673143422    -0.461202841659
    H            1.023831758936    -0.547688577759     2.821206677856
    C           -0.250224305623     0.868916528732     1.853152106906
    H            0.522964141836    -1.096927927856    -1.356158104218
    C           -0.536437597334     0.550139658773    -0.500405888483
    H           -0.467970703142     1.409619265229     2.753576125941
    C           -0.816813291095     1.258213272919     0.652764565864
    C           -1.150916404279     0.974063383112    -1.783432969621
    H           -1.475687282805     2.105336102041     0.616396539380
    O           -0.967939467385     0.444737865669    -2.825710014451
    H           -1.811647745687     1.843396017470    -1.709021850133

  Mulliken Charges: (a.u.)
   Center  Symbol    Alpha    Beta     Spin     Total
       1     H     0.38730  0.38730  0.00000  0.22541
       2     O     4.18765  4.18765  0.00000 -0.37529
       3     C     2.86213  2.86213  0.00000  0.27574
       4     C     3.10596  3.10596  0.00000 -0.21192
       5     C     3.11830  3.11830  0.00000 -0.23661
       6     H     0.41480  0.41480  0.00000  0.17040
       7     C     3.06740  3.06740  0.00000 -0.13481
       8     H     0.40202  0.40202  0.00000  0.19595
       9     C     2.98012  2.98012  0.00000  0.03976
      10     H     0.41870  0.41870  0.00000  0.16260
      11     C     3.09751  3.09751  0.00000 -0.19502
      12     C     2.90893  2.90893  0.00000  0.18213
      13     H     0.42232  0.42232  0.00000  0.15536
      14     O     4.17035  4.17035  0.00000 -0.34070
      15     H     0.45650  0.45650  0.00000  0.08701

   Total alpha = 32.00000, Total beta = 32.00000, Total charge = -0.00000

*** Psi4 exiting successfully. Buy a developer a beer!
