                              Psi4 1.0.54 Driver

  ==> Input File <==

--------------------------------------------------------------------------
set {
	reference rhf
	basis cc-pvtz
}

set_num_threads( 4 )
memory 2 gb

molecule MOL {
0 1

O	 -2.875198	 1.185312	 0.497615
C	 -2.664672	 0.129869	 0.003507
C	 -3.714505	 -0.687781	 -0.699047
O	 -1.481217	 -0.452708	 0.001092
H	 -4.124336	 -0.099124	 -1.508741
H	 -3.315256	 -1.613483	 -1.081561
H	 -4.515907	 -0.890896	 -0.001499
C	 -0.332055	 0.384012	 -0.000250
C	 0.892252	 -0.506059	 -0.000295
H	 -0.360822	 1.020205	 -0.874146
H	 -0.359817	 1.021310	 0.872861
C	 2.188199	 0.299473	 -0.001416
H	 0.857046	 -1.152781	 -0.871031
H	 0.857910	 -1.151798	 0.871202
C	 3.437151	 -0.577593	 -0.000991
H	 2.209565	 0.950707	 -0.871712
H	 2.210062	 0.952234	 0.867721
C	 4.732399	 0.226982	 -0.000914
H	 3.417321	 -1.229122	 -0.869998
H	 3.416993	 -1.228707	 0.868337
H	 4.797903	 0.863451	 -0.876963
H	 5.598517	 -0.424436	 -0.000420
H	 4.797415	 0.864118	 0.874691

	symmetry c1
}
set optking {
	frozen_dihedral = ("
		1 2 4 8
	")
}

ee,wfn = optimize('scf', return_wfn=True)
oeprop( wfn, 'DIPOLE', 'QUADRUPOLE', 'MULLIKEN_CHARGES')
f=open( 'psi4out.xyz', 'w' )
f.write( "23  " )
f.write( str(ee) + "\n" )
f.write( MOL.save_string_xyz() )
f.close()
--------------------------------------------------------------------------

    Molecular point group: c1
  Charge       = 0
  Multiplicity = 1
  Basis Set: CC-PVTZ
  Basis Set:
  @DF-RHF Final Energy:  -423.12928554425247
    Total Energy =                       -423.1292855442527525
    Molecular point group: c1
  Basis Set: CC-PVTZ
  Basis Set:
  Basis Set: CC-PVTZ
  Basis Set:
  @DF-RHF Final Energy:  -423.12528773624109
    Total Energy =                       -423.1252877362416029
  Basis Set: CC-PVTZ
  Basis Set:
  Basis Set: CC-PVTZ
  Basis Set:
  @DF-RHF Final Energy:  -423.12331757047707
    Total Energy =                       -423.1233175704771838
  Basis Set: CC-PVTZ
  Basis Set:
  Basis Set: CC-PVTZ
  Basis Set:
  @DF-RHF Final Energy:  -423.12985801803927
    Total Energy =                       -423.1298580180392719
  Basis Set: CC-PVTZ
  Basis Set:
  @DF-RHF Final Energy:  -423.12989583034454
    Total Energy =                       -423.1298958303448217
  @DF-RHF Final Energy:  -423.12993547779507
    Total Energy =                       -423.1299354777947883
  @DF-RHF Final Energy:  -423.12996631073173
    Total Energy =                       -423.1299663107317883
  @DF-RHF Final Energy:  -423.12805337465255
    Total Energy =                       -423.1280533746528363
  @DF-RHF Final Energy:  -422.96504392982388
    Total Energy =                       -422.9650439298241054
  @DF-RHF Final Energy:  -423.06088542337159
    Total Energy =                       -423.0608854233715874
  @DF-RHF Final Energy:  -423.04453103000020
    Total Energy =                       -423.0445310300000301
  @DF-RHF Final Energy:  -423.11950385171724
    Total Energy =                       -423.1195038517167859
  @DF-RHF Final Energy:  -423.12951135168379
    Total Energy =                       -423.1295113516837318
  @DF-RHF Final Energy:  -423.13033694847229
    Total Energy =                       -423.1303369484729728
  @DF-RHF Final Energy:  -423.12983500984842
    Total Energy =                       -423.1298350098479659
  @DF-RHF Final Energy:  -423.13039148404033
    Total Energy =                       -423.1303914840398193
  @DF-RHF Final Energy:  -423.09490270733357
    Total Energy =                       -423.0949027073336310
  @DF-RHF Final Energy:  -423.12684632594653
    Total Energy =                       -423.1268463259468717
  @DF-RHF Final Energy:  -423.12827326175500
    Total Energy =                       -423.1282732617552256
  @DF-RHF Final Energy:  -423.13070048377085
    Total Energy =                       -423.1307004837711929
  @DF-RHF Final Energy:  -423.13082285004174
    Total Energy =                       -423.1308228500420228
  @DF-RHF Final Energy:  -423.13094223439390
    Total Energy =                       -423.1309422343937285
  @DF-RHF Final Energy:  -423.13100052467036
    Total Energy =                       -423.1310005246701849
  @DF-RHF Final Energy:  -423.13103794398950
    Total Energy =                       -423.1310379439890994
  @DF-RHF Final Energy:  -423.13057131152601
    Total Energy =                       -423.1305713115261824
  @DF-RHF Final Energy:  -423.13103568921184
    Total Energy =                       -423.1310356892120126
  Basis Set: CC-PVTZ
  Basis Set:
  @DF-RHF Final Energy:  -423.13111193002652
    Total Energy =                       -423.1311119300266910
  Basis Set: CC-PVTZ
  Basis Set:
  Basis Set: CC-PVTZ
  Basis Set:
  @DF-RHF Final Energy:  -423.13114349115625
    Total Energy =                       -423.1311434911563083
  Basis Set: CC-PVTZ
  Basis Set:
  Basis Set: CC-PVTZ
  Basis Set:
  @DF-RHF Final Energy:  -423.13114871514080
    Total Energy =                       -423.1311487151407391
  Basis Set: CC-PVTZ
  Basis Set:
  Charge       = 0
  Multiplicity = 1
  Basis Set: CC-PVTZ
  Basis Set:

    Orbital Energies (a.u.)
    -----------------------

    Doubly Occupied:

       1A    -20.589356     2A    -20.534440     3A    -11.366831
       4A    -11.281267     5A    -11.231516     6A    -11.222602
       7A    -11.221734     8A    -11.219771     9A    -11.211177
      10A     -1.467452    11A     -1.365263    12A     -1.095358
      13A     -1.042960    14A     -1.005241    15A     -0.931411
      16A     -0.841857    17A     -0.803267    18A     -0.775398
      19A     -0.695746    20A     -0.688014    21A     -0.668387
      22A     -0.648637    23A     -0.608720    24A     -0.589471
      25A     -0.585012    26A     -0.567075    27A     -0.559999
      28A     -0.542049    29A     -0.521668    30A     -0.505349
      31A     -0.494198    32A     -0.478682    33A     -0.471808
      34A     -0.468964    35A     -0.453265    36A     -0.438389

  @DF-RHF Final Energy:  -423.13114887045163

   => Energetics <=

    Nuclear Repulsion Energy =            450.2309673531699445
    One-Electron Energy =               -1468.3395682249924903
    Two-Electron Energy =                 594.9774520013706933
    DFT Exchange-Correlation Energy =       0.0000000000000000
    Empirical Dispersion Energy =           0.0000000000000000
    PCM Polarization Energy =               0.0000000000000000
    EFP Energy =                            0.0000000000000000
    Total Energy =                       -423.1311488704518524
    Molecular point group: c1
  Basis Set: CC-PVTZ
  Basis Set:

  -Total Gradient:
     Atom            X                  Y                   Z
    ------   -----------------  -----------------  -----------------
       1       -0.002260422740    -0.004676508942     0.006455543117
       2        0.003546291409     0.007456001975    -0.012788053651
       3        0.000062403487     0.000030766348    -0.000032270047
       4       -0.001810620891    -0.003678137678     0.012853902056
       5        0.000018035451    -0.000002266583    -0.000042455097
       6        0.000003327598    -0.000037121860     0.000015825650
       7       -0.000051272396     0.000022959973     0.000015085634
       8        0.000481492556     0.000878371387    -0.006488010162
       9        0.000005483629     0.000001897432    -0.000010975751
      10        0.000000893449     0.000009106570     0.000000621016
      11        0.000005928864     0.000004590986     0.000011878099
      12       -0.000009554053    -0.000005858245     0.000011806358
      13        0.000003102922    -0.000009231095    -0.000010352169
      14       -0.000001854497     0.000001295276     0.000004021670
      15        0.000000950668     0.000000291922     0.000002533825
      16        0.000001632872     0.000002627741     0.000000462045
      17        0.000001593189     0.000000099836     0.000011927976
      18        0.000000726641     0.000001297433    -0.000009817766
      19       -0.000001036636    -0.000007808672    -0.000007251407
      20       -0.000003535019     0.000001513628     0.000006416254
      21        0.000002165713     0.000007962564    -0.000003886257
      22        0.000003956138    -0.000000087231    -0.000001838229
      23        0.000000311640    -0.000001762763     0.000004886832

  **** Optimization is complete! (in 30 steps) ****
    Final optimized geometry and variables:
    Molecular point group: c1

    Geometry (in Angstrom), charge = 0, multiplicity = 1:

    O           -2.960162011536     1.013953179842     0.518608392091
    C           -2.674534517227     0.042211707825    -0.091208157548
    C           -3.637959526800    -0.765497717577    -0.912872825517
    O           -1.467202110550    -0.507172206927    -0.068307108047
    H           -3.350813311386    -0.709151210858    -1.955981176261
    H           -3.589665118637    -1.804774511788    -0.616015346428
    H           -4.637619457081    -0.382654371808    -0.785694258694
    C           -0.352922868496     0.350354925387     0.140544811312
    C            0.907470712848    -0.471556642461    -0.022375218178
    H           -0.393528477191     1.156176603772    -0.581977148899
    H           -0.413748222795     0.786335084302     1.127785980444
    C            2.168847094835     0.361456528768     0.185898683048
    H            0.914178775530    -0.914933851858    -1.012884231769
    H            0.882880724612    -1.291630367100     0.687868403164
    C            3.452611978631    -0.447835119375     0.024633755435
    H            2.178041283450     1.189091047865    -0.519390674815
    H            2.149430626031     0.806718126275     1.177478084307
    C            4.713437818100     0.384366077585     0.231421862527
    H            3.473023782016    -0.893540552363    -0.965921565665
    H            3.445841707021    -1.273827058186     0.730190222553
    H            4.766061681241     1.199631992791    -0.482454507088
    H            5.605461904676    -0.219065499506     0.109995306338
    H            4.738967796917     0.815727497891     1.226513760138

  Mulliken Charges: (a.u.)
   Center  Symbol    Alpha    Beta     Spin     Total
       1     O     4.19172  4.19172  0.00000 -0.38344
       2     C     2.81144  2.81144  0.00000  0.37712
       3     C     3.13758  3.13758  0.00000 -0.27516
       4     O     4.15450  4.15450  0.00000 -0.30899
       5     H     0.44882  0.44882  0.00000  0.10236
       6     H     0.44419  0.44419  0.00000  0.11162
       7     H     0.43838  0.43838  0.00000  0.12325
       8     C     2.97857  2.97857  0.00000  0.04286
       9     C     3.08162  3.08162  0.00000 -0.16325
      10     H     0.46066  0.46066  0.00000  0.07869
      11     H     0.44916  0.44916  0.00000  0.10168
      12     C     3.09845  3.09845  0.00000 -0.19691
      13     H     0.45167  0.45167  0.00000  0.09665
      14     H     0.44915  0.44915  0.00000  0.10170
      15     C     3.08502  3.08502  0.00000 -0.17004
      16     H     0.45356  0.45356  0.00000  0.09288
      17     H     0.45239  0.45239  0.00000  0.09522
      18     C     3.14952  3.14952  0.00000 -0.29904
      19     H     0.45367  0.45367  0.00000  0.09267
      20     H     0.45315  0.45315  0.00000  0.09370
      21     H     0.45479  0.45479  0.00000  0.09042
      22     H     0.44764  0.44764  0.00000  0.10473
      23     H     0.45436  0.45436  0.00000  0.09127

   Total alpha = 36.00000, Total beta = 36.00000, Total charge = -0.00000

*** Psi4 exiting successfully. Buy a developer a beer!
