                              Psi4 1.0.54 Driver

  ==> Input File <==

--------------------------------------------------------------------------
set {
	reference rhf
	basis cc-pvtz
}

set_num_threads( 4 )
memory 2 gb

molecule MOL {
0 1

O	 -2.071633	 -1.227563	 -0.223463
C	 -1.652164	 -0.152425	 0.058082
C	 -0.327811	 0.006324	 0.778296
C	 -2.402515	 1.108629	 -0.298924
C	 0.843231	 -0.001575	 -0.211665
H	 -0.319484	 0.928173	 1.350354
H	 -0.227804	 -0.823091	 1.466705
C	 2.197693	 0.138030	 0.476937
H	 0.722944	 0.805202	 -0.930230
H	 0.813976	 -0.926978	 -0.776588
C	 3.256729	 -0.793439	 -0.102692
H	 2.538378	 1.166652	 0.396971
H	 2.080566	 -0.063735	 1.537649
H	 3.421758	 -0.592177	 -1.155922
H	 2.957897	 -1.831767	 -0.008119
H	 4.204543	 -0.673882	 0.408929
H	 -3.240910	 0.874416	 -0.936711
H	 -1.747554	 1.818823	 -0.790984
H	 -2.760419	 1.579708	 0.610998

	symmetry c1
}
set optking {
	frozen_dihedral = ("
		11 8 5 9
	")
}

ee,wfn = optimize('scf', return_wfn=True)
oeprop( wfn, 'DIPOLE', 'QUADRUPOLE', 'MULLIKEN_CHARGES')
f=open( 'psi4out.xyz', 'w' )
f.write( "19  " )
f.write( str(ee) + "\n" )
f.write( MOL.save_string_xyz() )
f.close()
--------------------------------------------------------------------------

    Molecular point group: c1
  Charge       = 0
  Multiplicity = 1
  Basis Set: CC-PVTZ
  Basis Set:
  @DF-RHF Final Energy:  -309.17264536496077
    Total Energy =                       -309.1726453649611130
    Molecular point group: c1
  Basis Set: CC-PVTZ
  Basis Set:
  Basis Set: CC-PVTZ
  Basis Set:
  @DF-RHF Final Energy:  -309.17289054222829
    Total Energy =                       -309.1728905422285152
  Basis Set: CC-PVTZ
  Basis Set:
  Basis Set: CC-PVTZ
  Basis Set:
  @DF-RHF Final Energy:  -309.05732650432344
    Total Energy =                       -309.0573265043229867
  Basis Set: CC-PVTZ
  Basis Set:
  Basis Set: CC-PVTZ
  Basis Set:
  @DF-RHF Final Energy:  -309.15957166597116
    Total Energy =                       -309.1595716659713275
  Basis Set: CC-PVTZ
  Basis Set:
  @DF-RHF Final Energy:  -309.17281330980131
    Total Energy =                       -309.1728133098014268
  @DF-RHF Final Energy:  -309.03467577737155
    Total Energy =                       -309.0346757773716604
  @DF-RHF Final Energy:  -309.15620038763086
    Total Energy =                       -309.1562003876309745
  @DF-RHF Final Energy:  -309.17224967754674
    Total Energy =                       -309.1722496775465743
  @DF-RHF Final Energy:  -309.16707173361988
    Total Energy =                       -309.1670717336200482
  @DF-RHF Final Energy:  -309.17248164573692
    Total Energy =                       -309.1724816457368092
  @DF-RHF Final Energy:  -309.17227500613961
    Total Energy =                       -309.1722750061395573
  @DF-RHF Final Energy:  -309.17296343461595
    Total Energy =                       -309.1729634346164062
  Basis Set: CC-PVTZ
  Basis Set:
  @DF-RHF Final Energy:  -309.17261912528215
    Total Energy =                       -309.1726191252821536
  Basis Set: CC-PVTZ
  Basis Set:
  Basis Set: CC-PVTZ
  Basis Set:
  @DF-RHF Final Energy:  -309.17295868118356
    Total Energy =                       -309.1729586811832178
  Basis Set: CC-PVTZ
  Basis Set:
  Basis Set: CC-PVTZ
  Basis Set:
  @DF-RHF Final Energy:  -309.17297830418147
    Total Energy =                       -309.1729783041818678
  Basis Set: CC-PVTZ
  Basis Set:
  Charge       = 0
  Multiplicity = 1
  Basis Set: CC-PVTZ
  Basis Set:

    Orbital Energies (a.u.)
    -----------------------

    Doubly Occupied:

       1A    -20.536963     2A    -11.319221     3A    -11.228757
       4A    -11.228001     5A    -11.227046     6A    -11.222909
       7A    -11.212698     8A     -1.396996     9A     -1.090961
      10A     -1.029754    11A     -0.984448    12A     -0.890545
      13A     -0.807408    14A     -0.735451    15A     -0.660319
      16A     -0.651565    17A     -0.619758    18A     -0.615364
      19A     -0.586545    20A     -0.579374    21A     -0.547466
      22A     -0.535057    23A     -0.522604    24A     -0.498162
      25A     -0.481553    26A     -0.475821    27A     -0.467030
      28A     -0.398861

  @DF-RHF Final Energy:  -309.17297898556814

   => Energetics <=

    Nuclear Repulsion Energy =            301.9344309213938118
    One-Electron Energy =               -1017.1135427422393605
    Two-Electron Energy =                 406.0061328352775831
    DFT Exchange-Correlation Energy =       0.0000000000000000
    Empirical Dispersion Energy =           0.0000000000000000
    PCM Polarization Energy =               0.0000000000000000
    EFP Energy =                            0.0000000000000000
    Total Energy =                       -309.1729789855679087
    Molecular point group: c1
  Basis Set: CC-PVTZ
  Basis Set:

  -Total Gradient:
     Atom            X                  Y                   Z
    ------   -----------------  -----------------  -----------------
       1        0.000043967211     0.000000534119    -0.000003688091
       2       -0.000028832100    -0.000039560081    -0.000044209586
       3       -0.000011667759     0.000011589390     0.000002402306
       4       -0.000058480215     0.000095965374     0.000080837069
       5        0.000661553724    -0.004333656401     0.001678310040
       6       -0.000004740880     0.000003581568     0.000000741684
       7       -0.000001938233     0.000001793516     0.000005071057
       8        0.000591771762    -0.000170802043    -0.003796515467
       9       -0.000703416234     0.003740861104    -0.000510464422
      10        0.000001731121    -0.000012687012    -0.000002899594
      11       -0.000546583818     0.000752790484     0.002644054323
      12        0.000004449955     0.000004524838    -0.000005021071
      13       -0.000002906889     0.000004391043     0.000003454748
      14       -0.000001805633    -0.000005157983    -0.000002603977
      15        0.000000424649    -0.000000222738     0.000006067424
      16        0.000000881595     0.000002358188    -0.000003808091
      17        0.000017953210    -0.000013035456     0.000000386044
      18        0.000017476723    -0.000028525075    -0.000012298539
      19        0.000020161807    -0.000014742833    -0.000039815858

  **** Optimization is complete! (in 16 steps) ****
    Final optimized geometry and variables:
    Molecular point group: c1

    Geometry (in Angstrom), charge = 0, multiplicity = 1:

    O           -2.220414886766    -0.231673118185     0.759376698106
    C           -1.590934521696     0.414557099304    -0.013645609873
    C           -0.134205768139     0.742254787882     0.246861078876
    C           -2.199040364462     0.926565844074    -1.297641166408
    C            0.780760137939    -0.401731355457    -0.213984335169
    H            0.142095605436     1.660160301945    -0.261805944368
    H           -0.016802808186     0.894409778283     1.312152466577
    C            2.271596694464    -0.090539536495     0.005129288675
    H            0.599131297106    -0.579298254676    -1.269521224408
    H            0.498272344297    -1.301490170853     0.318201463763
    C            3.068080293530    -1.288845199653     0.512145550184
    H            2.709004785941     0.282204330757    -0.914757230195
    H            2.367638523927     0.712211839134     0.729562368203
    H            3.009691401549    -2.123699729605    -0.178656044079
    H            2.686773341144    -1.626469209060     1.469412077689
    H            4.114835709556    -1.037845359776     0.639420905608
    H           -3.182343300856     0.504549326544    -1.437361460934
    H           -1.566879939308     0.684727172724    -2.144721450478
    H           -2.272270945460     2.008382920201    -1.251078835724

  Mulliken Charges: (a.u.)
   Center  Symbol    Alpha    Beta     Spin     Total
       1     O     4.17694  4.17694  0.00000 -0.35389
       2     C     2.85889  2.85889  0.00000  0.28222
       3     C     3.10032  3.10032  0.00000 -0.20064
       4     C     3.15513  3.15513  0.00000 -0.31025
       5     C     3.09975  3.09975  0.00000 -0.19950
       6     H     0.44814  0.44814  0.00000  0.10372
       7     H     0.43934  0.43934  0.00000  0.12132
       8     C     3.08786  3.08786  0.00000 -0.17572
       9     H     0.45008  0.45008  0.00000  0.09984
      10     H     0.44093  0.44093  0.00000  0.11814
      11     C     3.14718  3.14718  0.00000 -0.29436
      12     H     0.45060  0.45060  0.00000  0.09879
      13     H     0.45407  0.45407  0.00000  0.09186
      14     H     0.45373  0.45373  0.00000  0.09254
      15     H     0.45271  0.45271  0.00000  0.09459
      16     H     0.44884  0.44884  0.00000  0.10232
      17     H     0.43605  0.43605  0.00000  0.12791
      18     H     0.45107  0.45107  0.00000  0.09786
      19     H     0.44837  0.44837  0.00000  0.10326

   Total alpha = 28.00000, Total beta = 28.00000, Total charge = -0.00000

*** Psi4 exiting successfully. Buy a developer a beer!
