  ==> Input File <==

--------------------------------------------------------------------------
set {
	reference rhf
	basis cc-pvtz
}

set_num_threads( 4 )
memory 2 gb

molecule MOL {
0 1

H	 0.989368	 0.355381	 -1.910861
O	 1.214182	 1.006176	 -1.270255
C	 0.706474	 0.636793	 -0.025501
C	 -0.793473	 0.591216	 0.050087
H	 1.077369	 1.365589	 0.685551
H	 1.103432	 -0.328128	 0.284421
C	 -1.534243	 -0.493009	 -0.013340
H	 -1.266611	 1.552628	 0.164437
H	 -1.101195	 -1.466332	 -0.144046
H	 -2.604242	 -0.437780	 0.050785

	symmetry c1
}
set optking {
	frozen_dihedral = ("
		5 3 4 7
	")
}

ee = optimize('scf')
oeprop('DIPOLE', 'QUADRUPOLE', 'MULLIKEN_CHARGES')
f=open( 'psi4out.xyz', 'w' )
f.write( "10  " )
f.write( str(ee) + "\n" )
f.write( MOL.save_string_xyz() )
f.close()
--------------------------------------------------------------------------

    Molecular point group: c1
  Charge       = 0
  Multiplicity = 1
  Basis Set: CC-PVTZ
  Basis Set:
  @DF-RHF Final Energy:  -191.99672886860481
    Total Energy =                       -191.9967288686048335
    Molecular point group: c1
  Basis Set: CC-PVTZ
  Basis Set:
  Basis Set: CC-PVTZ
  Basis Set:
  @DF-RHF Final Energy:  -191.99787096265581
    Total Energy =                       -191.9978709626556395
  Basis Set: CC-PVTZ
  Basis Set:
  Basis Set: CC-PVTZ
  Basis Set:
  @DF-RHF Final Energy:  -191.99798680392445
    Total Energy =                       -191.9979868039245616
  Basis Set: CC-PVTZ
  Basis Set:
  Basis Set: CC-PVTZ
  Basis Set:
  @DF-RHF Final Energy:  -191.99800206157209
    Total Energy =                       -191.9980020615719809
  Basis Set: CC-PVTZ
  Basis Set:
  Charge       = 0
  Multiplicity = 1
  Basis Set: CC-PVTZ
  Basis Set:

    Orbital Energies (a.u.)
    -----------------------

    Doubly Occupied:

       1A    -20.550191     2A    -11.275404     3A    -11.232485
       4A    -11.227358     5A     -1.368277     6A     -1.068490
       7A     -0.925792     8A     -0.778487     9A     -0.706601
      10A     -0.626936    11A     -0.625952    12A     -0.600664
      13A     -0.535640    14A     -0.491800    15A     -0.446464
      16A     -0.381633

  @DF-RHF Final Energy:  -191.99800283508029

   => Energetics <=

    Nuclear Repulsion Energy =            118.1291162839919480
    One-Electron Energy =                -494.5698874343676152
    Two-Electron Energy =                 184.4427683152952682
    DFT Exchange-Correlation Energy =       0.0000000000000000
    Empirical Dispersion Energy =           0.0000000000000000
    PCM Polarization Energy =               0.0000000000000000
    EFP Energy =                            0.0000000000000000
    Total Energy =                       -191.9980028350803991
    Molecular point group: c1
  Basis Set: CC-PVTZ
  Basis Set:

  -Total Gradient:
     Atom            X                  Y                   Z
    ------   -----------------  -----------------  -----------------
       1        0.000009071029     0.000006068107    -0.000028699696
       2        0.000016574329    -0.000012096680    -0.000047999888
       3        0.000030208358    -0.002501057927     0.001343254976
       4        0.000027123364     0.000199412570     0.003657249554
       5       -0.000083188273     0.002064255158    -0.002140533084
       6        0.000010652130    -0.000005983330     0.000012462877
       7       -0.000012139535     0.000246449441    -0.002782908236
       8        0.000001622389     0.000005980385    -0.000006941170
       9       -0.000006207404     0.000004167121     0.000002112324
      10        0.000006283614    -0.000007194845    -0.000007997658

  **** Optimization is complete! (in 5 steps) ****
    Final optimized geometry and variables:
    Molecular point group: c1

    Geometry (in Angstrom), charge = 0, multiplicity = 1:

    H            0.865085404408     0.013512972118    -1.563790410893
    O            1.233896218755     0.561155872717    -0.894164136799
    C            0.746416912819     0.158943253325     0.360304238158
    C           -0.756061034737     0.158162931527     0.397524306965
    H            1.138572422079     0.886666379263     1.057478264445
    H            1.129459653734    -0.819919827653     0.630991481058
    C           -1.491495078156    -0.931164202703     0.336384992466
    H           -1.231262570597     1.124116279032     0.401767815192
    H           -1.046681993895    -1.910575505456     0.319690979615
    H           -2.564194038143    -0.888267597720     0.316282465061

  Mulliken Charges: (a.u.)
   Center  Symbol    Alpha    Beta     Spin     Total
       1     H     0.39406  0.39406  0.00000  0.21188
       2     O     4.20036  4.20036  0.00000 -0.40072
       3     C     2.95086  2.95086  0.00000  0.09828
       4     C     3.08026  3.08026  0.00000 -0.16052
       5     H     0.45812  0.45812  0.00000  0.08376
       6     H     0.47053  0.47053  0.00000  0.05894
       7     C     3.17303  3.17303  0.00000 -0.34606
       8     H     0.41898  0.41898  0.00000  0.16205
       9     H     0.42813  0.42813  0.00000  0.14373
      10     H     0.42567  0.42567  0.00000  0.14866

   Total alpha = 16.00000, Total beta = 16.00000, Total charge = -0.00000
