  ==> Input File <==

--------------------------------------------------------------------------
set {
	reference rhf
	basis 6-31G*
}

set_num_threads( 1 )
memory 2 gb

molecule MOL {
0 1

H	 2.645699	 -0.788361	 0.803141
N	 2.434251	 -0.367735	 -0.081097
C	 1.267428	 0.496480	 0.024474
H	 2.259239	 -1.117059	 -0.723591
C	 -0.016086	 -0.325158	 -0.029487
H	 1.288818	 1.183521	 -0.816092
H	 1.267576	 1.109062	 0.929528
C	 -1.282277	 0.529072	 0.046735
H	 -0.012495	 -0.908639	 -0.945788
H	 -0.015903	 -1.041248	 0.791956
C	 -2.563920	 -0.301775	 -0.006060
H	 -1.284084	 1.244622	 -0.773004
H	 -1.271387	 1.115393	 0.963286
H	 -2.621848	 -0.873522	 -0.927727
H	 -3.445135	 0.329952	 0.047812
H	 -2.609542	 -1.004582	 0.821105

	symmetry c1
}
set optking {
	frozen_dihedral = ("
		6 3 5 9,
		12 8 5 9
	")
}

ee = energy('scf')
oeprop('DIPOLE', 'QUADRUPOLE', 'MULLIKEN_CHARGES')
f=open( 'psi4out.xyz', 'w' )
f.write( "16  " )
f.write( str(ee) + "\n" )
f.write( MOL.save_string_xyz() )
f.close()
--------------------------------------------------------------------------

    Molecular point group: c1

    Geometry (in Angstrom), charge = 0, multiplicity = 1:

       Center              X                  Y                   Z               Mass
    ------------   -----------------  -----------------  -----------------  -----------------
           H          2.657739814410    -0.772999910968     0.810470434579     1.007825032070
           N          2.446291814410    -0.352373910968    -0.073767565421    14.003074004780
           C          1.279468814410     0.511841089032     0.031803434579    12.000000000000
           H          2.271279814410    -1.101697910968    -0.716261565421     1.007825032070
           C         -0.004045185590    -0.309796910968    -0.022157565421    12.000000000000
           H          1.300858814410     1.198882089032    -0.808762565421     1.007825032070
           H          1.279616814410     1.124423089032     0.936857434579     1.007825032070
           C         -1.270236185590     0.544433089032     0.054064434579    12.000000000000
           H         -0.000454185590    -0.893277910968    -0.938458565421     1.007825032070
           H         -0.003862185590    -1.025886910968     0.799285434579     1.007825032070
           C         -2.551879185590    -0.286413910968     0.001269434579    12.000000000000
           H         -1.272043185590     1.259983089032    -0.765674565421     1.007825032070
           H         -1.259346185590     1.130754089032     0.970615434579     1.007825032070
           H         -2.609807185590    -0.858160910968    -0.920397565421     1.007825032070
           H         -3.433094185590     0.345313089032     0.055141434579     1.007825032070
           H         -2.597501185590    -0.989220910968     0.828434434579     1.007825032070

  Charge       = 0
  Multiplicity = 1
  Basis Set: 6-31G*
  Basis Set:

    Orbital Energies (a.u.)
    -----------------------

    Doubly Occupied:

       1A    -15.530786     2A    -11.240627     3A    -11.217543
       4A    -11.213238     5A    -11.210612     6A     -1.178444
       7A     -1.061591     8A     -0.959379     9A     -0.847681
      10A     -0.798310    11A     -0.677591    12A     -0.626219
      13A     -0.596209    14A     -0.589090    15A     -0.555549
      16A     -0.527818    17A     -0.504205    18A     -0.485207
      19A     -0.474365    20A     -0.466559    21A     -0.372434

  @DF-RHF Final Energy:  -212.31374932268341

   => Energetics <=

    Nuclear Repulsion Energy =            186.8165312669054856
    One-Electron Energy =                -655.9936696780686134
    Two-Electron Energy =                 256.8633890884799484
    DFT Exchange-Correlation Energy =       0.0000000000000000
    Empirical Dispersion Energy =           0.0000000000000000
    PCM Polarization Energy =               0.0000000000000000
    EFP Energy =                            0.0000000000000000
    Total Energy =                       -212.3137493226831793

  Mulliken Charges: (a.u.)
   Center  Symbol    Alpha    Beta     Spin     Total
       1     H     0.33458  0.33458  0.00000  0.33084
       2     N     3.92001  3.92001  0.00000 -0.84002
       3     C     3.06002  3.06002  0.00000 -0.12003
       4     H     0.33351  0.33351  0.00000  0.33298
       5     C     3.15879  3.15879  0.00000 -0.31758
       6     H     0.41837  0.41837  0.00000  0.16325
       7     H     0.41983  0.41983  0.00000  0.16035
       8     C     3.15598  3.15598  0.00000 -0.31196
       9     H     0.42640  0.42640  0.00000  0.14720
      10     H     0.42670  0.42670  0.00000  0.14659
      11     C     3.23865  3.23865  0.00000 -0.47730
      12     H     0.42176  0.42176  0.00000  0.15647
      13     H     0.42283  0.42283  0.00000  0.15435
      14     H     0.42161  0.42161  0.00000  0.15678
      15     H     0.41898  0.41898  0.00000  0.16204
      16     H     0.42197  0.42197  0.00000  0.15606

   Total alpha = 21.00000, Total beta = 21.00000, Total charge =  0.00000
