  ==> Input File <==

--------------------------------------------------------------------------
set {
	reference rhf
	basis 6-31G*
}

set_num_threads( 4 )
memory 2 gb

molecule MOL {
0 1

O	 -2.042549	 -1.228399	 -0.269030
C	 -1.653912	 -0.146171	 0.050137
C	 -0.332303	 0.024011	 0.778412
C	 -2.438579	 1.106236	 -0.272369
C	 -0.253679	 -0.907243	 1.998435
H	 0.500084	 -0.173004	 0.108562
H	 -0.267199	 1.055996	 1.105049
C	 1.051211	 -0.745541	 2.779553
H	 -0.353566	 -1.942811	 1.677959
H	 -1.099071	 -0.699503	 2.647510
C	 1.128248	 -1.664014	 3.998438
H	 1.893870	 -0.945948	 2.121383
H	 1.150946	 0.289114	 3.099098
H	 1.065396	 -2.708769	 3.707597
H	 0.315978	 -1.464357	 4.691112
H	 2.061946	 -1.525685	 4.534256
H	 -3.277823	 0.863061	 -0.908988
H	 -1.806773	 1.843019	 -0.759671
H	 -2.802853	 1.554979	 0.648059

	symmetry c1
}
set optking {
	frozen_dihedral = ("
		5 3 2 4
	")
}

ee = optimize('scf')
oeprop('DIPOLE', 'QUADRUPOLE', 'MULLIKEN_CHARGES')
f=open( 'psi4out.xyz', 'w' )
f.write( "19  " )
f.write( str(ee) + "\n" )
f.write( MOL.save_string_xyz() )
f.close()
--------------------------------------------------------------------------

    Molecular point group: c1
  Charge       = 0
  Multiplicity = 1
  Basis Set: 6-31G*
  Basis Set:
  @DF-RHF Final Energy:  -309.06449485919160
    Total Energy =                       -309.0644948591917682
    Molecular point group: c1
  Basis Set: 6-31G*
  Basis Set:
  Basis Set: 6-31G*
  Basis Set:
  @DF-RHF Final Energy:  -309.06363140012053
    Total Energy =                       -309.0636314001203573
  Basis Set: 6-31G*
  Basis Set:
  Basis Set: 6-31G*
  Basis Set:
  @DF-RHF Final Energy:  -309.06495814076806
    Total Energy =                       -309.0649581407678852
  Basis Set: 6-31G*
  Basis Set:
  Basis Set: 6-31G*
  Basis Set:
  @DF-RHF Final Energy:  -309.06541057849819
    Total Energy =                       -309.0654105784983585
  Basis Set: 6-31G*
  Basis Set:
  Basis Set: 6-31G*
  Basis Set:
  @DF-RHF Final Energy:  -309.06537737913391
    Total Energy =                       -309.0653773791339063
  Basis Set: 6-31G*
  Basis Set:
  Basis Set: 6-31G*
  Basis Set:
  @DF-RHF Final Energy:  -309.06540766948956
    Total Energy =                       -309.0654076694898436
  Basis Set: 6-31G*
  Basis Set:
  Basis Set: 6-31G*
  Basis Set:
  @DF-RHF Final Energy:  -309.06542619049566
    Total Energy =                       -309.0654261904958844
  Basis Set: 6-31G*
  Basis Set:
  Charge       = 0
  Multiplicity = 1
  Basis Set: 6-31G*
  Basis Set:

    Orbital Energies (a.u.)
    -----------------------

    Doubly Occupied:

       1A    -20.548337     2A    -11.325952     3A    -11.230572
       4A    -11.228848     5A    -11.223305     6A    -11.221472
       7A    -11.212028     8A     -1.394382     9A     -1.087376
      10A     -1.028905    11A     -0.984352    12A     -0.887319
      13A     -0.803296    14A     -0.732067    15A     -0.660697
      16A     -0.646626    17A     -0.622784    18A     -0.611667
      19A     -0.582064    20A     -0.572691    21A     -0.553041
      22A     -0.533997    23A     -0.514583    24A     -0.491480
      25A     -0.477631    26A     -0.473243    27A     -0.467076
      28A     -0.397936

  @DF-RHF Final Energy:  -309.06542647464079

   => Energetics <=

    Nuclear Repulsion Energy =            300.8632105221852839
    One-Electron Energy =               -1014.8298193246271239
    Two-Electron Energy =                 404.9011823278012798
    DFT Exchange-Correlation Energy =       0.0000000000000000
    Empirical Dispersion Energy =           0.0000000000000000
    PCM Polarization Energy =               0.0000000000000000
    EFP Energy =                            0.0000000000000000
    Total Energy =                       -309.0654264746406170
    Molecular point group: c1
  Basis Set: 6-31G*
  Basis Set:

  -Total Gradient:
     Atom            X                  Y                   Z
    ------   -----------------  -----------------  -----------------
       1        0.000009103996    -0.000028935585     0.000009202320
       2        0.000405482473     0.000286579082    -0.000722805315
       3        0.000251925079    -0.000676669248    -0.000236719093
       4       -0.000315239397    -0.000051652134     0.000545166118
       5       -0.000300612033     0.000442625747     0.000348840323
       6       -0.000011299087     0.000003832650     0.000000573474
       7        0.000000962124     0.000021349452    -0.000016946983
       8       -0.000005198495     0.000010928307     0.000012579145
       9       -0.000006060546    -0.000021674731     0.000034954440
      10        0.000003260006     0.000011348030    -0.000015104438
      11        0.000008317459    -0.000018100387    -0.000012529709
      12        0.000002372307     0.000012106107    -0.000000613742
      13       -0.000011149407     0.000002592601     0.000006072747
      14       -0.000009383007    -0.000002536296     0.000005340245
      15        0.000005902450     0.000006904148     0.000001697929
      16        0.000004046165    -0.000007150064    -0.000006004511
      17       -0.000001583494    -0.000000591647     0.000012401556
      18       -0.000018755439     0.000013031207     0.000016536793
      19       -0.000012091157    -0.000003987238     0.000017358695

  **** Optimization is complete! (in 8 steps) ****
    Final optimized geometry and variables:
    Molecular point group: c1

    Geometry (in Angstrom), charge = 0, multiplicity = 1:

    O           -1.343194761719    -0.716773019041    -1.613713433319
    C           -0.992578603673     0.371516948138    -1.272095729775
    C            0.291149735505     0.566363219799    -0.478827279798
    C           -1.800781829817     1.605341976917    -1.603275142334
    C            0.378444177503    -0.371751279683     0.729410599942
    H            1.116544851641     0.366337731766    -1.158892513541
    H            0.386412958271     1.601387400765    -0.163680132900
    C            1.699581605073    -0.236466721188     1.487434180390
    H            0.248922115537    -1.392312841861     0.387011033555
    H           -0.448580957618    -0.164614925187     1.405851613941
    C            1.786383569805    -1.170752468529     2.693653395257
    H            2.525208945377    -0.443969245567     0.810068748690
    H            1.826601480606     0.792402872907     1.817963171442
    H            1.693785748871    -2.209670288477     2.391154544873
    H            0.994964794000    -0.963245159563     3.408216858060
    H            2.735096044724    -1.058737199285     3.209070002887
    H           -2.657541081829     1.337168107244    -2.205516713931
    H           -1.188560604897     2.328270725961    -2.135176488750
    H           -2.134844704840     2.082877011970    -0.685864656986

  Mulliken Charges: (a.u.)
   Center  Symbol    Alpha    Beta     Spin     Total
       1     O     4.26334  4.26334  0.00000 -0.52667
       2     C     2.73472  2.73472  0.00000  0.53055
       3     C     3.20570  3.20570  0.00000 -0.41139
       4     C     3.28893  3.28893  0.00000 -0.57786
       5     C     3.15498  3.15498  0.00000 -0.30996
       6     H     0.40286  0.40286  0.00000  0.19429
       7     H     0.41589  0.41589  0.00000  0.16823
       8     C     3.15276  3.15276  0.00000 -0.30551
       9     H     0.40292  0.40292  0.00000  0.19416
      10     H     0.42095  0.42095  0.00000  0.15810
      11     C     3.23986  3.23986  0.00000 -0.47972
      12     H     0.42135  0.42135  0.00000  0.15729
      13     H     0.42363  0.42363  0.00000  0.15273
      14     H     0.41892  0.41892  0.00000  0.16217
      15     H     0.42106  0.42106  0.00000  0.15787
      16     H     0.41845  0.41845  0.00000  0.16309
      17     H     0.39720  0.39720  0.00000  0.20561
      18     H     0.40861  0.40861  0.00000  0.18279
      19     H     0.40788  0.40788  0.00000  0.18423

   Total alpha = 28.00000, Total beta = 28.00000, Total charge =  0.00000
