                              Psi4 1.0.54 Driver

  ==> Input File <==

--------------------------------------------------------------------------
set {
	reference rhf
	basis cc-pvtz
}

set_num_threads( 4 )
memory 2 gb

molecule MOL {
0 1

H	 -2.498963	 -0.741158	 -0.729149
O	 -2.346257	 -0.289210	 0.080372
C	 -1.183935	 0.486039	 -0.009831
C	 0.062853	 -0.375310	 0.027457
H	 -1.178881	 1.094526	 -0.908634
H	 -1.184406	 1.155156	 0.838676
O	 -0.310728	 -1.694655	 -0.198856
H	 0.553764	 -0.277695	 0.997185
H	 0.764686	 -0.031866	 -0.729544
C	 0.743811	 -2.599417	 -0.222811
H	 1.277230	 -2.613222	 0.725107
H	 0.333225	 -3.581662	 -0.405294
H	 1.452378	 -2.362827	 -1.013051

	symmetry c1
}
set optking {
	frozen_dihedral = ("
		8 4 3 5
	")
}

ee,wfn = optimize('scf', return_wfn=True)
oeprop( wfn, 'DIPOLE', 'QUADRUPOLE', 'MULLIKEN_CHARGES')
f=open( 'psi4out.xyz', 'w' )
f.write( "13  " )
f.write( str(ee) + "\n" )
f.write( MOL.save_string_xyz() )
f.close()
--------------------------------------------------------------------------

    Molecular point group: c1
  Charge       = 0
  Multiplicity = 1
  Basis Set: CC-PVTZ
  Basis Set:
  @DF-RHF Final Energy:  -268.05143104994710
    Total Energy =                       -268.0514310499470412
    Molecular point group: c1
  Basis Set: CC-PVTZ
  Basis Set:
  Basis Set: CC-PVTZ
  Basis Set:
  @DF-RHF Final Energy:  -268.05342994549818
    Total Energy =                       -268.0534299454980669
  Basis Set: CC-PVTZ
  Basis Set:
  Basis Set: CC-PVTZ
  Basis Set:
  @DF-RHF Final Energy:  -268.05509323118702
    Total Energy =                       -268.0550932311869587
  Basis Set: CC-PVTZ
  Basis Set:
  Basis Set: CC-PVTZ
  Basis Set:
  @DF-RHF Final Energy:  -268.05555827467305
    Total Energy =                       -268.0555582746729328
  Basis Set: CC-PVTZ
  Basis Set:
  @DF-RHF Final Energy:  -268.05588790293439
    Total Energy =                       -268.0558879029343871
  @DF-RHF Final Energy:  -268.05615923277287
    Total Energy =                       -268.0561592327729841
  Basis Set: CC-PVTZ
  Basis Set:
  @DF-RHF Final Energy:  -268.05660043982090
    Total Energy =                       -268.0566004398209543
  Basis Set: CC-PVTZ
  Basis Set:
  Basis Set: CC-PVTZ
  Basis Set:
  @DF-RHF Final Energy:  -268.05673593376889
    Total Energy =                       -268.0567359337688913
  Basis Set: CC-PVTZ
  Basis Set:
  Basis Set: CC-PVTZ
  Basis Set:
  @DF-RHF Final Energy:  -268.05674358454189
    Total Energy =                       -268.0567435845418913
  Basis Set: CC-PVTZ
  Basis Set:
  Charge       = 0
  Multiplicity = 1
  Basis Set: CC-PVTZ
  Basis Set:

    Orbital Energies (a.u.)
    -----------------------

    Doubly Occupied:

       1A    -20.566885     2A    -20.536930     3A    -11.276762
       4A    -11.275174     5A    -11.267009     6A     -1.404252
       7A     -1.355151     8A     -1.017721     9A     -0.927951
      10A     -0.837052    11A     -0.702517    12A     -0.687488
      13A     -0.672866    14A     -0.631953    15A     -0.599763
      16A     -0.573922    17A     -0.547626    18A     -0.498809
      19A     -0.477149    20A     -0.447952    21A     -0.416003

  @DF-RHF Final Energy:  -268.05674397611710

   => Energetics <=

    Nuclear Repulsion Energy =            195.0865211186064414
    One-Electron Energy =                -752.8446643111983576
    Two-Electron Energy =                 289.7013992164748970
    DFT Exchange-Correlation Energy =       0.0000000000000000
    Empirical Dispersion Energy =           0.0000000000000000
    PCM Polarization Energy =               0.0000000000000000
    EFP Energy =                            0.0000000000000000
    Total Energy =                       -268.0567439761169908
    Molecular point group: c1
  Basis Set: CC-PVTZ
  Basis Set:

  -Total Gradient:
     Atom            X                  Y                   Z
    ------   -----------------  -----------------  -----------------
       1       -0.000004556557     0.000009701922     0.000006846356
       2       -0.000011610834    -0.000022874896     0.000007623230
       3       -0.003255932738    -0.004741744898    -0.004427456598
       4       -0.003761228405    -0.005130821048     0.004039997772
       5        0.003409387627     0.004864259376     0.003001351924
       6        0.000003637292    -0.000015685626     0.000009262363
       7        0.000006563427     0.000039872336    -0.000001208735
       8        0.003621642735     0.005014436406    -0.002612757285
       9       -0.000007431097    -0.000001155993    -0.000012368556
      10        0.000001410109    -0.000022783908    -0.000018206052
      11       -0.000007665587     0.000010713007    -0.000001643910
      12        0.000007736669    -0.000007404632     0.000001995934
      13       -0.000001952647     0.000003487954     0.000006563558

  **** Optimization is complete! (in 10 steps) ****
    Final optimized geometry and variables:
    Molecular point group: c1

    Geometry (in Angstrom), charge = 0, multiplicity = 1:

    H           -1.657026365860    -0.171291430579    -0.088093701072
    O           -1.757569493351     0.702271559451     0.247004658312
    C           -0.570653951012     1.398959927502     0.051547182633
    C            0.683575620962     0.505881949710     0.072829151043
    H           -0.589159076619     1.980639391303    -0.865911449445
    H           -0.489144204523     2.122793024448     0.853462701520
    O            0.324715714026    -0.816227914678    -0.166804236781
    H            1.221703812638     0.611465924784     1.011921393535
    H            1.369534705912     0.845816349524    -0.701520953989
    C            1.389073623793    -1.711652517952    -0.196842926936
    H            1.921843582651    -1.721125455429     0.750265397228
    H            0.986878939808    -2.696599823292    -0.382085225134
    H            2.091797233941    -1.463400531436    -0.988029741125

  Mulliken Charges: (a.u.)
   Center  Symbol    Alpha    Beta     Spin     Total
       1     H     0.38239  0.38239  0.00000  0.23522
       2     O     4.20531  4.20531  0.00000 -0.41063
       3     C     2.95763  2.95763  0.00000  0.08474
       4     C     2.96992  2.96992  0.00000  0.06016
       5     H     0.47675  0.47675  0.00000  0.04650
       6     H     0.46801  0.46801  0.00000  0.06399
       7     O     4.18057  4.18057  0.00000 -0.36114
       8     H     0.47264  0.47264  0.00000  0.05472
       9     H     0.47406  0.47406  0.00000  0.05188
      10     C     3.03082  3.03082  0.00000 -0.06165
      11     H     0.46769  0.46769  0.00000  0.06462
      12     H     0.44587  0.44587  0.00000  0.10825
      13     H     0.46833  0.46833  0.00000  0.06334

   Total alpha = 21.00000, Total beta = 21.00000, Total charge = -0.00000

*** Psi4 exiting successfully. Buy a developer a beer!
