  ==> Input File <==

--------------------------------------------------------------------------
set {
	reference rhf
	basis cc-pvtz
}

set_num_threads( 4 )
memory 2 gb

molecule MOL {
0 1

H	 -1.835082	 1.385983	 0.000069
C	 -1.300516	 0.441153	 -0.000028
O	 -0.006604	 0.654344	 -0.000106
O	 -1.828920	 -0.612308	 0.000113
C	 0.852093	 -0.482521	 -0.000161
C	 2.216836	 -0.029523	 -0.461651
H	 0.437374	 -1.233399	 -0.657540
H	 0.885018	 -0.895397	 0.998044
H	 2.168069	 0.384969	 -1.460545
H	 2.896176	 -0.873455	 -0.473027
H	 2.617956	 0.724695	 0.203350

	symmetry c1
}
set optking {
	frozen_dihedral = ("
		7 5 3 2
	")
}

ee = optimize('scf')
oeprop('DIPOLE', 'QUADRUPOLE', 'MULLIKEN_CHARGES')
f=open( 'psi4out.xyz', 'w' )
f.write( "11  " )
f.write( str(ee) + "\n" )
f.write( MOL.save_string_xyz() )
f.close()
--------------------------------------------------------------------------

    Molecular point group: c1
  Charge       = 0
  Multiplicity = 1
  Basis Set: CC-PVTZ
  Basis Set:
  @DF-RHF Final Energy:  -266.93132830176211
    Total Energy =                       -266.9313283017619369
    Molecular point group: c1
  Basis Set: CC-PVTZ
  Basis Set:
  Basis Set: CC-PVTZ
  Basis Set:
  @DF-RHF Final Energy:  -266.93136866114401
    Total Energy =                       -266.9313686611438925
  Basis Set: CC-PVTZ
  Basis Set:
  Basis Set: CC-PVTZ
  Basis Set:
  @DF-RHF Final Energy:  -266.93097510522853
    Total Energy =                       -266.9309751052285264
  Basis Set: CC-PVTZ
  Basis Set:
  Basis Set: CC-PVTZ
  Basis Set:
  @DF-RHF Final Energy:  -266.93139940244032
    Total Energy =                       -266.9313994024403200
  Basis Set: CC-PVTZ
  Basis Set:
  Charge       = 0
  Multiplicity = 1
  Basis Set: CC-PVTZ
  Basis Set:

    Orbital Energies (a.u.)
    -----------------------

    Doubly Occupied:

       1A    -20.605445     2A    -20.545512     3A    -11.370368
       4A    -11.289714     5A    -11.225284     6A     -1.478950
       7A     -1.377483     8A     -1.053866     9A     -0.904636
      10A     -0.805438    11A     -0.741950    12A     -0.691539
      13A     -0.681738    14A     -0.595606    15A     -0.577268
      16A     -0.558499    17A     -0.523854    18A     -0.512204
      19A     -0.463655    20A     -0.457183

  @DF-RHF Final Energy:  -266.93141249355585

   => Energetics <=

    Nuclear Repulsion Energy =            179.5888237459045911
    One-Electron Energy =                -720.1200891670657711
    Two-Electron Energy =                 273.5998529276052977
    DFT Exchange-Correlation Energy =       0.0000000000000000
    Empirical Dispersion Energy =           0.0000000000000000
    PCM Polarization Energy =               0.0000000000000000
    EFP Energy =                            0.0000000000000000
    Total Energy =                       -266.9314124935558539
    Molecular point group: c1
  Basis Set: CC-PVTZ
  Basis Set:

  -Total Gradient:
     Atom            X                  Y                   Z
    ------   -----------------  -----------------  -----------------
       1        0.000016275317     0.000010160918     0.000005384407
       2       -0.000098239558     0.000009104388    -0.001241733689
       3       -0.000154717325    -0.000168256594     0.002017956809
       4        0.000075240401     0.000013808526     0.000009122762
       5        0.000870960831     0.000616292079    -0.001846495308
       6        0.000015249078     0.000017728471     0.000000668746
       7       -0.000692625976    -0.000508830647     0.001060061371
       8       -0.000015274505     0.000013484854     0.000004708068
       9       -0.000010374828     0.000004139248    -0.000008859390
      10       -0.000009691101    -0.000002770435     0.000003237296
      11        0.000003197666    -0.000004860807    -0.000004051071

  **** Optimization is complete! (in 5 steps) ****
    Final optimized geometry and variables:
    Molecular point group: c1

    Geometry (in Angstrom), charge = 0, multiplicity = 1:

    H           -1.815765816092     1.401087734887     0.079377714198
    C           -1.289322661881     0.451875746599     0.095911418197
    O            0.006120260682     0.656786815203     0.087015563611
    O           -1.827709926544    -0.596195252812     0.119941745262
    C            0.868917280259    -0.477385459240     0.073753026138
    C            2.236736008192    -0.017884767519    -0.371643128374
    H            0.456631795121    -1.228017704258    -0.582605599787
    H            0.898155663853    -0.893811479775     1.072080037504
    H            2.197909847494     0.391877693683    -1.373002561954
    H            2.921349869837    -0.857689807694    -0.370436626012
    H            2.624930928553     0.741612138879     0.294949947634

  Mulliken Charges: (a.u.)
   Center  Symbol    Alpha    Beta     Spin     Total
       1     H     0.44867  0.44867  0.00000  0.10266
       2     C     2.84489  2.84489  0.00000  0.31021
       3     O     4.14503  4.14503  0.00000 -0.29007
       4     O     4.19528  4.19528  0.00000 -0.39057
       5     C     2.97401  2.97401  0.00000  0.05197
       6     C     3.13264  3.13264  0.00000 -0.26529
       7     H     0.44934  0.44934  0.00000  0.10133
       8     H     0.45499  0.45499  0.00000  0.09002
       9     H     0.45063  0.45063  0.00000  0.09874
      10     H     0.45430  0.45430  0.00000  0.09140
      11     H     0.45020  0.45020  0.00000  0.09959

   Total alpha = 20.00000, Total beta = 20.00000, Total charge = -0.00000
