  ==> Input File <==

--------------------------------------------------------------------------
set {
	reference rhf
	basis cc-pvtz
}

set_num_threads( 4 )
memory 2 gb

molecule MOL {
0 1

H	 -1.835082	 1.385983	 0.000069
C	 -1.300516	 0.441153	 -0.000028
O	 -0.006604	 0.654344	 -0.000106
O	 -1.828920	 -0.612308	 0.000113
C	 0.852093	 -0.482521	 -0.000161
C	 1.498268	 -0.572360	 1.361856
H	 1.587116	 -0.364970	 -0.783667
H	 0.266058	 -1.362851	 -0.222748
H	 2.078321	 0.317034	 1.572776
H	 2.159973	 -1.429614	 1.395249
H	 0.750618	 -0.685837	 2.136524

	symmetry c1
}
set optking {
	frozen_dihedral = ("
		7 5 3 2
	")
}

ee = optimize('scf')
oeprop('DIPOLE', 'QUADRUPOLE', 'MULLIKEN_CHARGES')
f=open( 'psi4out.xyz', 'w' )
f.write( "11  " )
f.write( str(ee) + "\n" )
f.write( MOL.save_string_xyz() )
f.close()
--------------------------------------------------------------------------

    Molecular point group: c1
  Charge       = 0
  Multiplicity = 1
  Basis Set: CC-PVTZ
  Basis Set:
  @DF-RHF Final Energy:  -266.92913993222987
    Total Energy =                       -266.9291399322301004
    Molecular point group: c1
  Basis Set: CC-PVTZ
  Basis Set:
  Basis Set: CC-PVTZ
  Basis Set:
  @DF-RHF Final Energy:  -266.92967837039856
    Total Energy =                       -266.9296783703987330
  Basis Set: CC-PVTZ
  Basis Set:
  Basis Set: CC-PVTZ
  Basis Set:
  @DF-RHF Final Energy:  -266.92506617256322
    Total Energy =                       -266.9250661725629925
  Basis Set: CC-PVTZ
  Basis Set:
  Basis Set: CC-PVTZ
  Basis Set:
  @DF-RHF Final Energy:  -266.93005139457591
    Total Energy =                       -266.9300513945757416
  Basis Set: CC-PVTZ
  Basis Set:
  Basis Set: CC-PVTZ
  Basis Set:
  @DF-RHF Final Energy:  -266.93012189567906
    Total Energy =                       -266.9301218956792923
  Basis Set: CC-PVTZ
  Basis Set:
  Basis Set: CC-PVTZ
  Basis Set:
  @DF-RHF Final Energy:  -266.93013004986909
    Total Energy =                       -266.9301300498692058
  Basis Set: CC-PVTZ
  Basis Set:
  Charge       = 0
  Multiplicity = 1
  Basis Set: CC-PVTZ
  Basis Set:

    Orbital Energies (a.u.)
    -----------------------

    Doubly Occupied:

       1A    -20.604549     2A    -20.544878     3A    -11.371347
       4A    -11.288658     5A    -11.224277     6A     -1.477116
       7A     -1.377532     8A     -1.051694     9A     -0.910398
      10A     -0.799198    11A     -0.748903    12A     -0.687592
      13A     -0.663214    14A     -0.619054    15A     -0.573824
      16A     -0.549320    17A     -0.537771    18A     -0.502697
      19A     -0.459014    20A     -0.458566

  @DF-RHF Final Energy:  -266.93013079041492

   => Energetics <=

    Nuclear Repulsion Energy =            180.6578937243602354
    One-Electron Energy =                -722.2768436295883703
    Two-Electron Energy =                 274.6888191148131568
    DFT Exchange-Correlation Energy =       0.0000000000000000
    Empirical Dispersion Energy =           0.0000000000000000
    PCM Polarization Energy =               0.0000000000000000
    EFP Energy =                            0.0000000000000000
    Total Energy =                       -266.9301307904150349
    Molecular point group: c1
  Basis Set: CC-PVTZ
  Basis Set:

  -Total Gradient:
     Atom            X                  Y                   Z
    ------   -----------------  -----------------  -----------------
       1       -0.000014922619     0.000010457757    -0.000001183551
       2       -0.000014898039    -0.000016934286    -0.000806614150
       3       -0.000111167195    -0.000077980282     0.001039848311
       4        0.000058932493     0.000014466495    -0.000006805618
       5        0.000608938653     0.000521983195     0.000348653667
       6        0.000022010888    -0.000010289610    -0.000001382665
       7       -0.000547488131    -0.000416463056    -0.000563801015
       8       -0.000010620339    -0.000022350539    -0.000008286689
       9       -0.000001015974    -0.000000694263     0.000001936681
      10        0.000009501620    -0.000004237978     0.000009910807
      11        0.000000728642     0.000002042567    -0.000012275779

  **** Optimization is complete! (in 7 steps) ****
    Final optimized geometry and variables:
    Molecular point group: c1

    Geometry (in Angstrom), charge = 0, multiplicity = 1:

    H           -1.651355222916     1.534334720828    -0.345406987054
    C           -1.149130647977     0.572895623405    -0.301168542708
    O            0.150714326593     0.753536629754    -0.289257107519
    O           -1.717787936295    -0.458746983248    -0.267814930821
    C            1.021217969344    -0.376324907694    -0.254683517251
    C            1.699458828191    -0.468480418786     1.094545071745
    H            1.738607087210    -0.216480620832    -1.046353474616
    H            0.456472915289    -1.267319989718    -0.472522511372
    H            2.238999815454     0.443129749623     1.318164663538
    H            2.403052979142    -1.292989533671     1.094719386710
    H            0.972687037765    -0.641617687913     1.878411024038

  Mulliken Charges: (a.u.)
   Center  Symbol    Alpha    Beta     Spin     Total
       1     H     0.44989  0.44989  0.00000  0.10022
       2     C     2.83983  2.83983  0.00000  0.32033
       3     O     4.14971  4.14971  0.00000 -0.29942
       4     O     4.19663  4.19663  0.00000 -0.39325
       5     C     2.98132  2.98132  0.00000  0.03737
       6     C     3.13723  3.13723  0.00000 -0.27446
       7     H     0.44833  0.44833  0.00000  0.10333
       8     H     0.44454  0.44454  0.00000  0.11091
       9     H     0.45069  0.45069  0.00000  0.09862
      10     H     0.45312  0.45312  0.00000  0.09376
      11     H     0.44870  0.44870  0.00000  0.10259

   Total alpha = 20.00000, Total beta = 20.00000, Total charge = -0.00000
