  ==> Input File <==

--------------------------------------------------------------------------
set {
	reference rhf
	basis cc-pvtz
}

set_num_threads( 4 )
memory 2 gb

molecule MOL {
0 1

H	 3.032348	 0.484843	 1.035738
N	 2.169910	 -0.016940	 1.037697
C	 1.263552	 0.494993	 0.021953
H	 1.774636	 0.080237	 1.949647
C	 -0.016533	 -0.325589	 -0.026925
H	 1.767913	 0.428081	 -0.936241
H	 1.010559	 1.545791	 0.169615
C	 -1.280353	 0.525521	 0.047747
H	 -0.016686	 -0.912532	 -0.939714
H	 -0.014099	 -1.037598	 0.796369
C	 -2.560681	 -0.301323	 -0.007747
H	 -1.279957	 1.241025	 -0.770189
H	 -1.270445	 1.110526	 0.963468
H	 -2.617064	 -0.872870	 -0.928010
H	 -3.439525	 0.331102	 0.043462
H	 -2.609427	 -1.002736	 0.818585

	symmetry c1
}
set optking {
	frozen_dihedral = ("
		6 3 5 9
	")
}

ee = optimize('scf')
oeprop('DIPOLE', 'QUADRUPOLE', 'MULLIKEN_CHARGES')
f=open( 'psi4out.xyz', 'w' )
f.write( "16  " )
f.write( str(ee) + "\n" )
f.write( MOL.save_string_xyz() )
f.close()
--------------------------------------------------------------------------

    Molecular point group: c1
  Charge       = 0
  Multiplicity = 1
  Basis Set: CC-PVTZ
  Basis Set:
  @DF-RHF Final Energy:  -212.39412645379221
    Total Energy =                       -212.3941264537921256
    Molecular point group: c1
  Basis Set: CC-PVTZ
  Basis Set:
  Basis Set: CC-PVTZ
  Basis Set:
  @DF-RHF Final Energy:  -212.39446258262458
    Total Energy =                       -212.3944625826246693
  Basis Set: CC-PVTZ
  Basis Set:
  Basis Set: CC-PVTZ
  Basis Set:
  @DF-RHF Final Energy:  -212.39456073338550
    Total Energy =                       -212.3945607333853332
  Basis Set: CC-PVTZ
  Basis Set:
  Basis Set: CC-PVTZ
  Basis Set:
  @DF-RHF Final Energy:  -212.39456184446433
    Total Energy =                       -212.3945618444643628
  Basis Set: CC-PVTZ
  Basis Set:
  Charge       = 0
  Multiplicity = 1
  Basis Set: CC-PVTZ
  Basis Set:

    Orbital Energies (a.u.)
    -----------------------

    Doubly Occupied:

       1A    -15.526617     2A    -11.238326     3A    -11.213382
       4A    -11.207947     5A    -11.205949     6A     -1.177007
       7A     -1.059761     8A     -0.957840     9A     -0.846591
      10A     -0.791355    11A     -0.668864    12A     -0.626597
      13A     -0.614662    14A     -0.577569    15A     -0.556476
      16A     -0.529633    17A     -0.506814    18A     -0.472046
      19A     -0.465547    20A     -0.454852    21A     -0.382872

  @DF-RHF Final Energy:  -212.39456231338932

   => Energetics <=

    Nuclear Repulsion Energy =            186.6815328248545711
    One-Electron Energy =                -655.9907736600591761
    Two-Electron Energy =                 256.9146785218152331
    DFT Exchange-Correlation Energy =       0.0000000000000000
    Empirical Dispersion Energy =           0.0000000000000000
    PCM Polarization Energy =               0.0000000000000000
    EFP Energy =                            0.0000000000000000
    Total Energy =                       -212.3945623133893719
    Molecular point group: c1
  Basis Set: CC-PVTZ
  Basis Set:

  -Total Gradient:
     Atom            X                  Y                   Z
    ------   -----------------  -----------------  -----------------
       1        0.000033166165    -0.000004932782     0.000023361007
       2        0.000001723099     0.000020607241    -0.000061408768
       3       -0.001617391650     0.002519508786    -0.001068281830
       4       -0.000019920920     0.000014934344    -0.000040277313
       5        0.001478274082    -0.002392181563     0.001426006748
       6        0.001097248770    -0.001766882547     0.000717163551
       7       -0.000006027493    -0.000017008422     0.000002839353
       8        0.000027723490    -0.000015147354     0.000037702379
       9       -0.000966344492     0.001629439098    -0.001042703706
      10        0.000001002345     0.000015982677     0.000009177028
      11       -0.000019445901     0.000003034016     0.000002358426
      12        0.000023523109    -0.000002712930     0.000002700161
      13       -0.000013839371    -0.000001369482    -0.000000546390
      14        0.000002322232    -0.000000941956     0.000004684250
      15       -0.000020112150    -0.000007870513    -0.000006200284
      16       -0.000001901314     0.000005541386    -0.000006574613

  **** Optimization is complete! (in 5 steps) ****
    Final optimized geometry and variables:
    Molecular point group: c1

    Geometry (in Angstrom), charge = 0, multiplicity = 1:

    H            3.116813249920     0.404760772096     0.782128899631
    N            2.256075939846    -0.100760379580     0.793900718607
    C            1.330973141226     0.421578622908    -0.203899987613
    H            1.875224269398    -0.010044626891     1.712908979696
    C            0.034529133027    -0.405158734924    -0.247419542796
    H            1.837506276434     0.360828557226    -1.159261889741
    H            1.088420967601     1.470455143304    -0.038342628818
    C           -1.233887731460     0.444048752844    -0.191372318344
    H            0.009557753593    -0.999407684658    -1.154884215607
    H            0.037553911022    -1.106995745928     0.579270657721
    C           -2.511489054785    -0.385671148014    -0.252280390156
    H           -1.227937971865     1.155723883190    -1.012833284860
    H           -1.230458929402     1.035554343192     0.720789483384
    H           -2.561500766903    -0.959566270781    -1.171644901991
    H           -3.392673431974     0.244101502521    -0.207439464707
    H           -2.562456565031    -1.086010799131     0.574854828031

  Mulliken Charges: (a.u.)
   Center  Symbol    Alpha    Beta     Spin     Total
       1     H     0.42979  0.42979  0.00000  0.14041
       2     N     3.68831  3.68831  0.00000 -0.37662
       3     C     3.03393  3.03393  0.00000 -0.06786
       4     H     0.43103  0.43103  0.00000  0.13793
       5     C     3.08862  3.08862  0.00000 -0.17724
       6     H     0.45505  0.45505  0.00000  0.08990
       7     H     0.46538  0.46538  0.00000  0.06925
       8     C     3.08573  3.08573  0.00000 -0.17145
       9     H     0.45200  0.45200  0.00000  0.09601
      10     H     0.44979  0.44979  0.00000  0.10041
      11     C     3.15026  3.15026  0.00000 -0.30052
      12     H     0.45498  0.45498  0.00000  0.09003
      13     H     0.45646  0.45646  0.00000  0.08708
      14     H     0.45481  0.45481  0.00000  0.09038
      15     H     0.44889  0.44889  0.00000  0.10221
      16     H     0.45496  0.45496  0.00000  0.09009

   Total alpha = 21.00000, Total beta = 21.00000, Total charge =  0.00000
