  ==> Input File <==

--------------------------------------------------------------------------
set {
	reference rhf
	basis 6-31G*
}

set_num_threads( 4 )
memory 2 gb

molecule MOL {
0 1

H	 -1.147260	 -2.023236	 1.263745
N	 -0.367333	 -1.402479	 1.164476
C	 -0.563778	 -0.502042	 0.037919
H	 0.442228	 -1.975435	 1.019257
C	 0.575259	 0.508231	 -0.048326
H	 -1.499048	 0.026484	 0.196428
H	 -0.657222	 -1.023330	 -0.918257
C	 1.954651	 -0.143624	 0.035137
H	 0.475158	 1.060484	 -0.977307
H	 0.469181	 1.234488	 0.755973
H	 2.103292	 -0.853109	 -0.774172
H	 2.742821	 0.599562	 -0.030094
H	 2.083613	 -0.679371	 0.971560

	symmetry c1
}
set optking {
	frozen_dihedral = ("
		6 3 5 9
	")
}

ee = optimize('scf')
oeprop('DIPOLE', 'QUADRUPOLE', 'MULLIKEN_CHARGES')
f=open( 'psi4out.xyz', 'w' )
f.write( "13  " )
f.write( str(ee) + "\n" )
f.write( MOL.save_string_xyz() )
f.close()
--------------------------------------------------------------------------

    Molecular point group: c1
  Charge       = 0
  Multiplicity = 1
  Basis Set: 6-31G*
  Basis Set:
  @DF-RHF Final Energy:  -173.27959074106838
    Total Energy =                       -173.2795907410684038
    Molecular point group: c1
  Basis Set: 6-31G*
  Basis Set:
  Basis Set: 6-31G*
  Basis Set:
  @DF-RHF Final Energy:  -173.28009346247131
    Total Energy =                       -173.2800934624713420
  Basis Set: 6-31G*
  Basis Set:
  Basis Set: 6-31G*
  Basis Set:
  @DF-RHF Final Energy:  -173.28062689366493
    Total Energy =                       -173.2806268936649587
  Basis Set: 6-31G*
  Basis Set:
  Basis Set: 6-31G*
  Basis Set:
  @DF-RHF Final Energy:  -173.28066226045806
    Total Energy =                       -173.2806622604580866
  Basis Set: 6-31G*
  Basis Set:
  Basis Set: 6-31G*
  Basis Set:
  @DF-RHF Final Energy:  -173.28067135645236
    Total Energy =                       -173.2806713564523307
  Basis Set: 6-31G*
  Basis Set:
  Charge       = 0
  Multiplicity = 1
  Basis Set: 6-31G*
  Basis Set:

    Orbital Energies (a.u.)
    -----------------------

    Doubly Occupied:

       1A    -15.532551     2A    -11.240584     3A    -11.211449
       4A    -11.206701     5A     -1.176785     6A     -1.029724
       7A     -0.907612     8A     -0.786425     9A     -0.668691
      10A     -0.641760    11A     -0.573808    12A     -0.561322
      13A     -0.553295    14A     -0.482748    15A     -0.477491
      16A     -0.468158    17A     -0.380913

  @DF-RHF Final Energy:  -173.28067199596828

   => Energetics <=

    Nuclear Repulsion Energy =            134.0434619220494881
    One-Electron Energy =                -498.8482354390877163
    Two-Electron Energy =                 191.5241015210700368
    DFT Exchange-Correlation Energy =       0.0000000000000000
    Empirical Dispersion Energy =           0.0000000000000000
    PCM Polarization Energy =               0.0000000000000000
    EFP Energy =                            0.0000000000000000
    Total Energy =                       -173.2806719959682198
    Molecular point group: c1
  Basis Set: 6-31G*
  Basis Set:

  -Total Gradient:
     Atom            X                  Y                   Z
    ------   -----------------  -----------------  -----------------
       1        0.000012349712     0.000014825632    -0.000011650610
       2        0.000038874249    -0.000003453671    -0.000008503269
       3       -0.000077204430    -0.000214354338    -0.004631677382
       4       -0.000002946461    -0.000005441426     0.000018500819
       5       -0.002411407266     0.002803948460     0.002792208902
       6        0.000403565639    -0.000241052654     0.003468612953
       7       -0.000006576257     0.000007159393    -0.000008434787
       8        0.000000466102    -0.000005364096    -0.000018084132
       9        0.002041744437    -0.002361021691    -0.001601257489
      10       -0.000011897023     0.000018329537     0.000004130384
      11        0.000016985586    -0.000008948185    -0.000003632252
      12       -0.000001100214    -0.000006255193     0.000003414092
      13       -0.000002854076     0.000001628232    -0.000003627229

  **** Optimization is complete! (in 6 steps) ****
    Final optimized geometry and variables:
    Molecular point group: c1

    Geometry (in Angstrom), charge = 0, multiplicity = 1:

    H           -1.635896990404    -1.535767136613     0.990794807994
    N           -0.800995014640    -0.998081188705     0.860959010067
    C           -0.948298780168    -0.097169056164    -0.276121029397
    H           -0.059658641664    -1.653461309464     0.707686789525
    C            0.182861218149     0.930341763980    -0.331065247376
    H           -1.885944608007     0.428814229563    -0.130029455690
    H           -1.011050697511    -0.622581555259    -1.231550500159
    C            1.582734897423     0.313353600663    -0.290215228652
    H            0.087920018420     1.488411830016    -1.259843815022
    H            0.071621295968     1.628647515505     0.492084521355
    H            1.717374610321    -0.414960802847    -1.087081047877
    H            2.342819352150     1.077935646684    -0.415785796679
    H            1.770701601037    -0.180841121886     0.656464429584

  Mulliken Charges: (a.u.)
   Center  Symbol    Alpha    Beta     Spin     Total
       1     H     0.33207  0.33207  0.00000  0.33585
       2     N     3.92308  3.92308  0.00000 -0.84616
       3     C     3.06540  3.06540  0.00000 -0.13081
       4     H     0.33273  0.33273  0.00000  0.33455
       5     C     3.14550  3.14550  0.00000 -0.29100
       6     H     0.41931  0.41931  0.00000  0.16138
       7     H     0.43377  0.43377  0.00000  0.13245
       8     C     3.24923  3.24923  0.00000 -0.49846
       9     H     0.42502  0.42502  0.00000  0.14995
      10     H     0.41599  0.41599  0.00000  0.16803
      11     H     0.42589  0.42589  0.00000  0.14822
      12     H     0.41795  0.41795  0.00000  0.16410
      13     H     0.41405  0.41405  0.00000  0.17190

   Total alpha = 17.00000, Total beta = 17.00000, Total charge = -0.00000
