  ==> Input File <==

--------------------------------------------------------------------------
set {
	reference rhf
	basis 6-31G*
}

set_num_threads( 4 )
memory 2 gb

molecule MOL {
0 1

H	 3.463771	 0.168298	 -0.756243
C	 2.752674	 -0.045734	 0.033351
C	 1.322923	 0.120767	 -0.479465
H	 2.934561	 -1.059086	 0.377456
H	 2.958358	 0.631174	 0.856809
C	 0.306652	 -0.176050	 0.621399
H	 1.144658	 -0.551717	 -1.312180
H	 1.166477	 1.131798	 -0.836680
N	 -1.068537	 -0.011044	 0.085269
H	 0.372515	 -1.192590	 0.973735
H	 0.391664	 0.520566	 1.441230
O	 -1.520270	 -0.907443	 -0.557987
O	 -1.615970	 1.025271	 0.309756

	symmetry c1
}
set optking {
	frozen_dihedral = ("
		12 9 6 3
	")
}

ee = optimize('scf')
oeprop('DIPOLE', 'QUADRUPOLE', 'MULLIKEN_CHARGES')
f=open( 'psi4out.xyz', 'w' )
f.write( "13  " )
f.write( str(ee) + "\n" )
f.write( MOL.save_string_xyz() )
f.close()
--------------------------------------------------------------------------

    Molecular point group: c1
  Charge       = 0
  Multiplicity = 1
  Basis Set: 6-31G*
  Basis Set:
  @DF-RHF Final Energy:  -321.73553028647677
    Total Energy =                       -321.7355302864770579
    Molecular point group: c1
  Basis Set: 6-31G*
  Basis Set:
  Basis Set: 6-31G*
  Basis Set:
  @DF-RHF Final Energy:  -321.73286594076956
    Total Energy =                       -321.7328659407696705
  Basis Set: 6-31G*
  Basis Set:
  Basis Set: 6-31G*
  Basis Set:
  @DF-RHF Final Energy:  -321.73514028341532
    Total Energy =                       -321.7351402834154896
  Basis Set: 6-31G*
  Basis Set:
  Basis Set: 6-31G*
  Basis Set:
  @DF-RHF Final Energy:  -321.73558120384268
    Total Energy =                       -321.7355812038427416
  Basis Set: 6-31G*
  Basis Set:
  Basis Set: 6-31G*
  Basis Set:
  @DF-RHF Final Energy:  -321.73557832487722
    Total Energy =                       -321.7355783248772241
  Basis Set: 6-31G*
  Basis Set:
  Basis Set: 6-31G*
  Basis Set:
  @DF-RHF Final Energy:  -321.73558440640579
    Total Energy =                       -321.7355844064057919
  Basis Set: 6-31G*
  Basis Set:
  Charge       = 0
  Multiplicity = 1
  Basis Set: 6-31G*
  Basis Set:

    Orbital Energies (a.u.)
    -----------------------

    Doubly Occupied:

       1A    -20.601415     2A    -20.599470     3A    -15.846837
       4A    -11.299175     5A    -11.257293     6A    -11.240150
       7A     -1.630421     8A     -1.415925     9A     -1.135542
      10A     -1.028559    11A     -0.884192    12A     -0.833276
      13A     -0.758238    14A     -0.734410    15A     -0.722863
      16A     -0.672501    17A     -0.604609    18A     -0.588974
      19A     -0.550980    20A     -0.521620    21A     -0.515214
      22A     -0.483489    23A     -0.473690    24A     -0.447696

  @DF-RHF Final Energy:  -321.73558443181105

   => Energetics <=

    Nuclear Repulsion Energy =            247.4242396206318517
    One-Electron Energy =                -928.6265709039114427
    Two-Electron Energy =                 359.4667468514686561
    DFT Exchange-Correlation Energy =       0.0000000000000000
    Empirical Dispersion Energy =           0.0000000000000000
    PCM Polarization Energy =               0.0000000000000000
    EFP Energy =                            0.0000000000000000
    Total Energy =                       -321.7355844318109348
    Molecular point group: c1
  Basis Set: 6-31G*
  Basis Set:

  -Total Gradient:
     Atom            X                  Y                   Z
    ------   -----------------  -----------------  -----------------
       1        0.000000320434    -0.000002991758    -0.000000706409
       2        0.000000595443    -0.000009996156    -0.000003589323
       3       -0.000000086531     0.000005613342     0.000003609599
       4       -0.000005215870     0.000004007644     0.000005603590
       5        0.000004917308     0.000006209749    -0.000003257921
       6       -0.000001682358     0.000002937740     0.000004397124
       7        0.000001936714     0.000003588905     0.000001794908
       8       -0.000002242199     0.000004218465     0.000002067938
       9        0.000006504541    -0.000034283024    -0.000022972329
      10       -0.000001296784    -0.000004710745     0.000000040565
      11        0.000004706996    -0.000003878041    -0.000003778584
      12        0.000001691915     0.000017134521     0.000014343240
      13       -0.000010149605     0.000012149357     0.000002447601

  **** Optimization is complete! (in 7 steps) ****
    Final optimized geometry and variables:
    Molecular point group: c1

    Geometry (in Angstrom), charge = 0, multiplicity = 1:

    H            3.463108728122     0.161784805887    -0.758482076102
    C            2.752414514178    -0.046997177620     0.032874336739
    C            1.322370587853     0.111957025760    -0.481407032184
    H            2.935620710386    -1.057589051049     0.384572999965
    H            2.957298399766     0.636291971645     0.851123580027
    C            0.306395972146    -0.181280156970     0.620775285929
    H            1.143533354075    -0.562605997852    -1.310520113208
    H            1.165998497193     1.123084438751    -0.842587413106
    N           -1.068428426430    -0.008029179246     0.086389486299
    H            0.367655572693    -1.204303790050     0.958575245843
    H            0.395773455373     0.502401911485     1.449345312954
    O           -1.516717825069    -0.907480007043    -0.556913666028
    O           -1.617974526312     1.027039878953     0.305934825160

  Mulliken Charges: (a.u.)
   Center  Symbol    Alpha    Beta     Spin     Total
       1     H     0.40726  0.40726  0.00000  0.18548
       2     C     3.24808  3.24808  0.00000 -0.49616
       3     C     3.17316  3.17316  0.00000 -0.34631
       4     H     0.41460  0.41460  0.00000  0.17080
       5     H     0.41458  0.41458  0.00000  0.17084
       6     C     3.08259  3.08259  0.00000 -0.16519
       7     H     0.39704  0.39704  0.00000  0.20592
       8     H     0.40085  0.40085  0.00000  0.19830
       9     N     3.22400  3.22400  0.00000  0.55201
      10     H     0.38894  0.38894  0.00000  0.22211
      11     H     0.38789  0.38789  0.00000  0.22422
      12     O     4.23132  4.23132  0.00000 -0.46264
      13     O     4.22969  4.22969  0.00000 -0.45937

   Total alpha = 24.00000, Total beta = 24.00000, Total charge =  0.00000
