  ==> Input File <==

--------------------------------------------------------------------------
set {
	reference rhf
	basis cc-pvtz
}

set_num_threads( 4 )
memory 2 gb

molecule MOL {
0 1

H	 0.100707	 -0.061510	 -0.297634
N	 -0.625934	 -0.663929	 -0.000707
C	 -1.978635	 -0.158664	 0.001017
C	 -0.295639	 -1.918003	 0.379800
H	 -2.519057	 -0.493535	 -0.876362
H	 -1.938890	 0.917202	 -0.004137
H	 -2.514266	 -0.485137	 0.884506
C	 1.181360	 -2.234080	 0.293831
O	 -1.097355	 -2.723653	 0.750281
H	 1.748783	 -1.565961	 0.931206
H	 1.340091	 -3.252096	 0.609291
H	 1.536723	 -2.111344	 -0.722668

	symmetry c1
}
set optking {
	frozen_dihedral = ("
		4 2 3 5
	")
}

ee = optimize('scf')
oeprop('DIPOLE', 'QUADRUPOLE', 'MULLIKEN_CHARGES')
f=open( 'psi4out.xyz', 'w' )
f.write( "12  " )
f.write( str(ee) + "\n" )
f.write( MOL.save_string_xyz() )
f.close()
--------------------------------------------------------------------------

    Molecular point group: c1
  Charge       = 0
  Multiplicity = 1
  Basis Set: CC-PVTZ
  Basis Set:
  @DF-RHF Final Energy:  -247.10094952668905
    Total Energy =                       -247.1009495266891918
    Molecular point group: c1
  Basis Set: CC-PVTZ
  Basis Set:
  Basis Set: CC-PVTZ
  Basis Set:
  @DF-RHF Final Energy:  -247.10110821395210
    Total Energy =                       -247.1011082139520454
  Basis Set: CC-PVTZ
  Basis Set:
  Basis Set: CC-PVTZ
  Basis Set:
  @DF-RHF Final Energy:  -247.10100296422030
    Total Energy =                       -247.1010029642201289
  Basis Set: CC-PVTZ
  Basis Set:
  Basis Set: CC-PVTZ
  Basis Set:
  @DF-RHF Final Energy:  -247.10119181039437
    Total Energy =                       -247.1011918103943685
  Basis Set: CC-PVTZ
  Basis Set:
  @DF-RHF Final Energy:  -247.10120298077541
    Total Energy =                       -247.1012029807755539
  @DF-RHF Final Energy:  -247.10123316119405
    Total Energy =                       -247.1012331611939317
  @DF-RHF Final Energy:  -247.10123727010836
    Total Energy =                       -247.1012372701084132
  @DF-RHF Final Energy:  -247.10123920844660
    Total Energy =                       -247.1012392084467137
  @DF-RHF Final Energy:  -247.10124140806349
    Total Energy =                       -247.1012414080634016
  @DF-RHF Final Energy:  -247.10124861600539
    Total Energy =                       -247.1012486160053641
  @DF-RHF Final Energy:  -247.10124482559098
    Total Energy =                       -247.1012448255909817
  @DF-RHF Final Energy:  -247.10125991948820
    Total Energy =                       -247.1012599194879726
  @DF-RHF Final Energy:  -247.10127002202154
    Total Energy =                       -247.1012700220214811
  @DF-RHF Final Energy:  -247.10065021753684
    Total Energy =                       -247.1006502175367245
  @DF-RHF Final Energy:  -247.10128917797581
    Total Energy =                       -247.1012891779758434
  @DF-RHF Final Energy:  -247.10130416882399
    Total Energy =                       -247.1013041688238445
  @DF-RHF Final Energy:  -247.10131834636269
    Total Energy =                       -247.1013183463625182
  @DF-RHF Final Energy:  -247.10133161652669
    Total Energy =                       -247.1013316165266360
  @DF-RHF Final Energy:  -247.10134592245566
    Total Energy =                       -247.1013459224555504
  @DF-RHF Final Energy:  -247.10135190693461
    Total Energy =                       -247.1013519069347240
  @DF-RHF Final Energy:  -247.10136134749987
    Total Energy =                       -247.1013613474999602
  @DF-RHF Final Energy:  -247.10136448244808
    Total Energy =                       -247.1013644824479343
  @DF-RHF Final Energy:  -247.10136749115401
    Total Energy =                       -247.1013674911540079
  @DF-RHF Final Energy:  -247.10137601637854
    Total Energy =                       -247.1013760163784809
  Basis Set: CC-PVTZ
  Basis Set:
  @DF-RHF Final Energy:  -247.10138381968846
    Total Energy =                       -247.1013838196885217
  Basis Set: CC-PVTZ
  Basis Set:
  Basis Set: CC-PVTZ
  Basis Set:
  @DF-RHF Final Energy:  -247.10140076499485
    Total Energy =                       -247.1014007649947644
  Basis Set: CC-PVTZ
  Basis Set:
  Basis Set: CC-PVTZ
  Basis Set:
  @DF-RHF Final Energy:  -247.10140511909970
    Total Energy =                       -247.1014051190998089
  Basis Set: CC-PVTZ
  Basis Set:
  Charge       = 0
  Multiplicity = 1
  Basis Set: CC-PVTZ
  Basis Set:

    Orbital Energies (a.u.)
    -----------------------

    Doubly Occupied:

       1A    -20.505222     2A    -15.576257     3A    -11.335747
       4A    -11.253746     5A    -11.228400     6A     -1.388006
       7A     -1.231448     8A     -1.016223     9A     -0.933845
      10A     -0.789573    11A     -0.690786    12A     -0.651843
      13A     -0.635830    14A     -0.585955    15A     -0.582955
      16A     -0.555907    17A     -0.547512    18A     -0.506801
      19A     -0.417172    20A     -0.390736

  @DF-RHF Final Energy:  -247.10140602958873

   => Energetics <=

    Nuclear Repulsion Energy =            181.8246379456480497
    One-Electron Energy =                -696.2041587249045733
    Two-Electron Energy =                 267.2781147496678500
    DFT Exchange-Correlation Energy =       0.0000000000000000
    Empirical Dispersion Energy =           0.0000000000000000
    PCM Polarization Energy =               0.0000000000000000
    EFP Energy =                            0.0000000000000000
    Total Energy =                       -247.1014060295886452
    Molecular point group: c1
  Basis Set: CC-PVTZ
  Basis Set:

  -Total Gradient:
     Atom            X                  Y                   Z
    ------   -----------------  -----------------  -----------------
       1        0.000008135907     0.000002839526     0.000008849086
       2       -0.000007220891    -0.000011596781    -0.000363553408
       3       -0.000079317175    -0.000237872245     0.000187879354
       4       -0.000000453207     0.000017342704     0.000203244360
       5        0.000074635561     0.000197305036    -0.000073749249
       6        0.000000155752    -0.000001708547     0.000001630879
       7       -0.000004878748    -0.000000768947     0.000005321341
       8        0.000015766745     0.000008899346     0.000016395705
       9       -0.000007585269     0.000023371488     0.000034638265
      10        0.000005077080    -0.000005873411     0.000019962286
      11       -0.000009277412    -0.000017169052    -0.000025894422
      12        0.000004961657     0.000025230882    -0.000014724198

  **** Optimization is complete! (in 28 steps) ****
    Final optimized geometry and variables:
    Molecular point group: c1

    Geometry (in Angstrom), charge = 0, multiplicity = 1:

    H            0.688942222605     1.540167083528    -0.375265111267
    N           -0.036027601667     0.911299946294    -0.137483162089
    C           -1.404025816957     1.366799198250    -0.226901397939
    C            0.278353924325    -0.383509988794     0.076899437285
    H           -1.834824717393     1.172967188416    -1.202738337299
    H           -1.434288139628     2.431014620827    -0.037933641194
    H           -2.001734908031     0.860948340211     0.514415754776
    C            1.752952409903    -0.714634670386     0.032507743908
    O           -0.549142670825    -1.223670155661     0.275991559164
    H            2.381915577061     0.136105075097     0.260261496327
    H            1.950114395459    -1.511918864059     0.732423452143
    H            1.996826720065    -1.069494303261    -0.962127219380

  Mulliken Charges: (a.u.)
   Center  Symbol    Alpha    Beta     Spin     Total
       1     H     0.41110  0.41110  0.00000  0.17780
       2     N     3.61547  3.61547  0.00000 -0.23094
       3     C     3.07883  3.07883  0.00000 -0.15766
       4     C     2.84093  2.84093  0.00000  0.31814
       5     H     0.45676  0.45676  0.00000  0.08647
       6     H     0.45540  0.45540  0.00000  0.08920
       7     H     0.43808  0.43808  0.00000  0.12384
       8     C     3.14668  3.14668  0.00000 -0.29337
       9     O     4.21879  4.21879  0.00000 -0.43758
      10     H     0.45751  0.45751  0.00000  0.08498
      11     H     0.43611  0.43611  0.00000  0.12779
      12     H     0.44434  0.44434  0.00000  0.11132

   Total alpha = 20.00000, Total beta = 20.00000, Total charge = -0.00000
