                              Psi4 1.0.54 Driver

  ==> Input File <==

--------------------------------------------------------------------------
set {
	reference rhf
	basis cc-pvtz
}

set_num_threads( 4 )
memory 2 gb

molecule MOL {
0 1

H	 2.250417	 -1.895702	 0.252744
O	 2.824271	 -1.154299	 0.131461
C	 2.076458	 -0.067370	 -0.038225
C	 0.626018	 -0.337582	 0.258241
O	 2.538288	 0.965419	 -0.381593
C	 -0.267326	 0.883135	 0.076490
H	 0.325620	 -1.161483	 -0.378003
H	 0.574537	 -0.713685	 1.275261
C	 -1.726822	 0.642622	 0.463839
H	 -0.210803	 1.217591	 -0.953497
H	 0.129920	 1.693110	 0.675679
C	 -2.480891	 -0.340606	 -0.429852
H	 -2.243098	 1.597649	 0.438609
H	 -1.776542	 0.301208	 1.495542
C	 -3.955933	 -0.460128	 -0.060472
H	 -2.393755	 -0.020485	 -1.464726
H	 -2.024244	 -1.323637	 -0.374360
H	 -4.467673	 -1.160944	 -0.709827
H	 -4.458917	 0.497287	 -0.144505
H	 -4.076458	 -0.806900	 0.960497

	symmetry c1
}
set optking {
	frozen_dihedral = ("
		1 2 3 5
	")
}

ee,wfn = optimize('scf', return_wfn=True)
oeprop( wfn, 'DIPOLE', 'QUADRUPOLE', 'MULLIKEN_CHARGES')
f=open( 'psi4out.xyz', 'w' )
f.write( "20  " )
f.write( str(ee) + "\n" )
f.write( MOL.save_string_xyz() )
f.close()
--------------------------------------------------------------------------

    Molecular point group: c1
  Charge       = 0
  Multiplicity = 1
  Basis Set: CC-PVTZ
  Basis Set:
  @DF-RHF Final Energy:  -384.08392807484074
    Total Energy =                       -384.0839280748404576
    Molecular point group: c1
  Basis Set: CC-PVTZ
  Basis Set:
  Basis Set: CC-PVTZ
  Basis Set:
  @DF-RHF Final Energy:  -384.08510929584889
    Total Energy =                       -384.0851092958482127
  Basis Set: CC-PVTZ
  Basis Set:
  Basis Set: CC-PVTZ
  Basis Set:
  @DF-RHF Final Energy:  -384.08535593858971
    Total Energy =                       -384.0853559385897142
  Basis Set: CC-PVTZ
  Basis Set:
  Basis Set: CC-PVTZ
  Basis Set:
  @DF-RHF Final Energy:  -384.08514285329312
    Total Energy =                       -384.0851428532927798
  Basis Set: CC-PVTZ
  Basis Set:
  Basis Set: CC-PVTZ
  Basis Set:
  @DF-RHF Final Energy:  -384.08537742167204
    Total Energy =                       -384.0853774216725469
  Basis Set: CC-PVTZ
  Basis Set:
  Charge       = 0
  Multiplicity = 1
  Basis Set: CC-PVTZ
  Basis Set:

    Orbital Energies (a.u.)
    -----------------------

    Doubly Occupied:

       1A    -20.603687     2A    -20.536129     3A    -11.372396
       4A    -11.249579     5A    -11.226431     6A    -11.223999
       7A    -11.223297     8A    -11.214821     9A     -1.470838
      10A     -1.372927    11A     -1.102509    12A     -1.045329
      13A     -0.961672    14A     -0.867358    15A     -0.833224
      16A     -0.794113    17A     -0.722137    18A     -0.671404
      19A     -0.662572    20A     -0.638846    21A     -0.608762
      22A     -0.604046    23A     -0.577691    24A     -0.564707
      25A     -0.544879    26A     -0.518424    27A     -0.501092
      28A     -0.482607    29A     -0.476402    30A     -0.472452
      31A     -0.463313    32A     -0.442655

  @DF-RHF Final Energy:  -384.08537812726280

   => Energetics <=

    Nuclear Repulsion Energy =            376.6421081170981893
    One-Electron Energy =               -1269.3543785833012407
    Two-Electron Energy =                 508.6268923389395695
    DFT Exchange-Correlation Energy =       0.0000000000000000
    Empirical Dispersion Energy =           0.0000000000000000
    PCM Polarization Energy =               0.0000000000000000
    EFP Energy =                            0.0000000000000000
    Total Energy =                       -384.0853781272635388
    Molecular point group: c1
  Basis Set: CC-PVTZ
  Basis Set:

  -Total Gradient:
     Atom            X                  Y                   Z
    ------   -----------------  -----------------  -----------------
       1        0.000024652172    -0.000428218185    -0.002370611662
       2       -0.000153324679     0.000054359209     0.002169931147
       3        0.000446417158     0.000773025007     0.002230926485
       4        0.000034518943    -0.000010051138    -0.000010622672
       5       -0.000356935960    -0.000388258307    -0.002017927424
       6        0.000030318055     0.000004249913     0.000007201155
       7       -0.000015906971    -0.000009392403    -0.000002071287
       8       -0.000000555871     0.000001840721    -0.000009223161
       9       -0.000022142156     0.000017421539    -0.000002686692
      10        0.000000246606     0.000003830827     0.000007228378
      11        0.000004338913    -0.000011532615    -0.000000907623
      12        0.000004543203    -0.000001611218    -0.000003721897
      13       -0.000007606155    -0.000001870662    -0.000003469026
      14       -0.000003421894     0.000007360108    -0.000001300822
      15        0.000001928478    -0.000004646673     0.000004132647
      16       -0.000002200607     0.000001446158     0.000004270232
      17        0.000013558675    -0.000006412797    -0.000002444097
      18        0.000000940053    -0.000000557843     0.000000483012
      19        0.000002665653    -0.000000239019    -0.000000254635
      20       -0.000002033607    -0.000000742621     0.000001067943

  **** Optimization is complete! (in 6 steps) ****
    Final optimized geometry and variables:
    Molecular point group: c1

    Geometry (in Angstrom), charge = 0, multiplicity = 1:

    H            2.421259042451    -1.912847157163     0.252158275082
    O            2.900190686139    -1.112035825392     0.130023741586
    C            2.089004305251    -0.061155216561    -0.024073937355
    C            0.629256025374    -0.336291800212     0.261904943226
    O            2.525844478626     0.977579770505    -0.360277710933
    C           -0.265185667723     0.883135866234     0.075086734935
    H            0.321176393532    -1.154094605353    -0.382914679407
    H            0.561361595738    -0.708890690637     1.281028039713
    C           -1.727669007148     0.643038494796     0.451183466318
    H           -0.198213268802     1.217190317027    -0.953908718041
    H            0.130496733970     1.690610678036     0.677734580528
    C           -2.476348959968    -0.339699355700    -0.447785854532
    H           -2.242107016044     1.598676328032     0.420813803813
    H           -1.786624671126     0.303426356178     1.483089516613
    C           -3.953502935111    -0.460333813844    -0.087087286874
    H           -2.383050337873    -0.019083430311    -1.481885928676
    H           -2.020272546954    -1.323346777928    -0.390531245467
    H           -4.460352504247    -1.163289219912    -0.737860584310
    H           -4.456797236620     0.496244798894    -0.176869909949
    H           -4.080127718566    -0.804386661095     0.934065126844

  Mulliken Charges: (a.u.)
   Center  Symbol    Alpha    Beta     Spin     Total
       1     H     0.38835  0.38835  0.00000  0.22331
       2     O     4.14566  4.14566  0.00000 -0.29132
       3     C     2.80027  2.80027  0.00000  0.39945
       4     C     3.13096  3.13096  0.00000 -0.26192
       5     O     4.17587  4.17587  0.00000 -0.35173
       6     C     3.09692  3.09692  0.00000 -0.19385
       7     H     0.44562  0.44562  0.00000  0.10877
       8     H     0.43994  0.43994  0.00000  0.12013
       9     C     3.09993  3.09993  0.00000 -0.19986
      10     H     0.44288  0.44288  0.00000  0.11423
      11     H     0.43609  0.43609  0.00000  0.12782
      12     C     3.08717  3.08717  0.00000 -0.17433
      13     H     0.44438  0.44438  0.00000  0.11125
      14     H     0.45379  0.45379  0.00000  0.09243
      15     C     3.14931  3.14931  0.00000 -0.29861
      16     H     0.45126  0.45126  0.00000  0.09748
      17     H     0.45675  0.45675  0.00000  0.08650
      18     H     0.44738  0.44738  0.00000  0.10525
      19     H     0.45265  0.45265  0.00000  0.09469
      20     H     0.45484  0.45484  0.00000  0.09032

   Total alpha = 32.00000, Total beta = 32.00000, Total charge = -0.00000

*** Psi4 exiting successfully. Buy a developer a beer!
