  ==> Input File <==

--------------------------------------------------------------------------
set {
	reference rhf
	basis 6-31G*
}

set_num_threads( 4 )
memory 2 gb

molecule MOL {
0 1

O	 0.179989	 1.101947	 0.578823
C	 0.028650	 0.075053	 -0.000277
C	 -1.233602	 -0.752807	 0.000328
O	 0.974377	 -0.489651	 -0.739608
C	 -2.501530	 0.091881	 0.000126
H	 -1.193807	 -1.406641	 -0.865785
H	 -1.193516	 -1.405779	 0.867015
H	 -2.545121	 0.729328	 -0.874513
H	 -3.377167	 -0.548497	 0.000561
H	 -2.544818	 0.730135	 0.874258
C	 2.214928	 0.188265	 -0.823585
H	 2.082743	 1.169968	 -1.255092
H	 2.840340	 -0.418708	 -1.459436
H	 2.660643	 0.287592	 0.155672

	symmetry c1
}
set optking {
	frozen_dihedral = ("
		4 2 3 6
	")
}

ee = optimize('scf')
oeprop('DIPOLE', 'QUADRUPOLE', 'MULLIKEN_CHARGES')
f=open( 'psi4out.xyz', 'w' )
f.write( "14  " )
f.write( str(ee) + "\n" )
f.write( MOL.save_string_xyz() )
f.close()
--------------------------------------------------------------------------

    Molecular point group: c1
  Charge       = 0
  Multiplicity = 1
  Basis Set: 6-31G*
  Basis Set:
  @DF-RHF Final Energy:  -305.87089733355367
    Total Energy =                       -305.8708973335536143
    Molecular point group: c1
  Basis Set: 6-31G*
  Basis Set:
  Basis Set: 6-31G*
  Basis Set:
  @DF-RHF Final Energy:  -305.87116105394546
    Total Energy =                       -305.8711610539453432
  Basis Set: 6-31G*
  Basis Set:
  Basis Set: 6-31G*
  Basis Set:
  @DF-RHF Final Energy:  -305.87061859962228
    Total Energy =                       -305.8706185996221052
  Basis Set: 6-31G*
  Basis Set:
  Basis Set: 6-31G*
  Basis Set:
  @DF-RHF Final Energy:  -305.87122394731387
    Total Energy =                       -305.8712239473137515
  Basis Set: 6-31G*
  Basis Set:
  Basis Set: 6-31G*
  Basis Set:
  @DF-RHF Final Energy:  -305.87122585376716
    Total Energy =                       -305.8712258537673279
  Basis Set: 6-31G*
  Basis Set:
  Charge       = 0
  Multiplicity = 1
  Basis Set: 6-31G*
  Basis Set:

    Orbital Energies (a.u.)
    -----------------------

    Doubly Occupied:

       1A    -20.606330     2A    -20.544394     3A    -11.372890
       4A    -11.281565     5A    -11.238062     6A    -11.219450
       7A     -1.470721     8A     -1.363052     9A     -1.064283
      10A     -0.980481    11A     -0.879454    12A     -0.770708
      13A     -0.699887    14A     -0.681796    15A     -0.672092
      16A     -0.619269    17A     -0.602177    18A     -0.553117
      19A     -0.538305    20A     -0.518591    21A     -0.513802
      22A     -0.496647    23A     -0.456703    24A     -0.437798

  @DF-RHF Final Energy:  -305.87122617069093

   => Energetics <=

    Nuclear Repulsion Energy =            247.1449454362601159
    One-Electron Energy =                -906.8691947465972589
    Two-Electron Energy =                 353.8530231396463250
    DFT Exchange-Correlation Energy =       0.0000000000000000
    Empirical Dispersion Energy =           0.0000000000000000
    PCM Polarization Energy =               0.0000000000000000
    EFP Energy =                            0.0000000000000000
    Total Energy =                       -305.8712261706908748
    Molecular point group: c1
  Basis Set: 6-31G*
  Basis Set:

  -Total Gradient:
     Atom            X                  Y                   Z
    ------   -----------------  -----------------  -----------------
       1       -0.000001584728    -0.000048897546    -0.000021998539
       2        0.000547716347    -0.000818715793     0.001317123081
       3       -0.000819738289     0.001250639707    -0.001152789716
       4       -0.000301527898     0.000473637102    -0.000820755485
       5        0.000011567413    -0.000003585824     0.000004597369
       6        0.000570733743    -0.000853336667     0.000680088998
       7        0.000011594954    -0.000000738184     0.000024009400
       8       -0.000002242939    -0.000002892966    -0.000000508377
       9        0.000001189713     0.000000343907    -0.000008977798
      10        0.000006682594    -0.000005761434     0.000002936047
      11       -0.000046654224     0.000011948381    -0.000038870667
      12        0.000017779589     0.000002279887     0.000001489518
      13        0.000008842043    -0.000000475277     0.000003671287
      14       -0.000004358318    -0.000004445296     0.000009984882

  **** Optimization is complete! (in 6 steps) ****
    Final optimized geometry and variables:
    Molecular point group: c1

    Geometry (in Angstrom), charge = 0, multiplicity = 1:

    O            0.193831023335     1.047240030464     0.738007210028
    C            0.055954127992     0.023746091283     0.148020919989
    C           -1.204976585178    -0.808064478688     0.154069716234
    O            1.014037078785    -0.527607350084    -0.582819448378
    C           -2.468830426700     0.047068998445     0.195545227278
    H           -1.192647900684    -1.477442215694    -0.696403110079
    H           -1.151966025569    -1.434797634941     1.041514461076
    H           -2.558469095776     0.656605587022    -0.697382741484
    H           -3.347485665470    -0.585402368689     0.259456879815
    H           -2.456115853281     0.708425875071     1.051925336645
    C            2.258889960875     0.147055412130    -0.623320928529
    H            2.140112738372     1.136813109534    -1.039800989358
    H            2.897847623076    -0.450799318500    -1.254288921753
    H            2.679919582176     0.226987812673     0.368547228164

  Mulliken Charges: (a.u.)
   Center  Symbol    Alpha    Beta     Spin     Total
       1     O     4.28605  4.28605  0.00000 -0.57210
       2     C     2.60645  2.60645  0.00000  0.78711
       3     C     3.20672  3.20672  0.00000 -0.41343
       4     O     4.30497  4.30497  0.00000 -0.60994
       5     C     3.24372  3.24372  0.00000 -0.48744
       6     H     0.39989  0.39989  0.00000  0.20022
       7     H     0.40002  0.40002  0.00000  0.19996
       8     H     0.41501  0.41501  0.00000  0.16998
       9     H     0.41604  0.41604  0.00000  0.16792
      10     H     0.40253  0.40253  0.00000  0.19495
      11     C     3.09329  3.09329  0.00000 -0.18657
      12     H     0.40821  0.40821  0.00000  0.18358
      13     H     0.40828  0.40828  0.00000  0.18344
      14     H     0.40884  0.40884  0.00000  0.18232

   Total alpha = 24.00000, Total beta = 24.00000, Total charge =  0.00000
