  ==> Input File <==

--------------------------------------------------------------------------
set {
	reference rhf
	basis 6-31G*
}

set_num_threads( 4 )
memory 2 gb

molecule MOL {
0 1

O	 -0.291628	 1.323815	 -0.000732
C	 -0.449655	 0.146360	 0.000961
C	 -1.783294	 -0.549321	 -0.000296
O	 0.550821	 -0.724572	 0.000672
H	 -1.863538	 -1.185371	 -0.874187
H	 -2.574672	 0.185258	 -0.002793
H	 -1.866414	 -1.182381	 0.875436
C	 0.503293	 -1.756923	 0.969317
H	 0.505358	 -1.341771	 1.966814
H	 1.388885	 -2.351903	 0.809705
H	 -0.382901	 -2.360680	 0.837100

	symmetry c1
}
set optking {
	frozen_dihedral = ("
		8 4 2 1
	")
}

ee = optimize('scf')
oeprop('DIPOLE', 'QUADRUPOLE', 'MULLIKEN_CHARGES')
f=open( 'psi4out.xyz', 'w' )
f.write( "11  " )
f.write( str(ee) + "\n" )
f.write( MOL.save_string_xyz() )
f.close()
--------------------------------------------------------------------------

    Molecular point group: c1
  Charge       = 0
  Multiplicity = 1
  Basis Set: 6-31G*
  Basis Set:
  @DF-RHF Final Energy:  -266.81131961391384
    Total Energy =                       -266.8113196139141223
    Molecular point group: c1
  Basis Set: 6-31G*
  Basis Set:
  Basis Set: 6-31G*
  Basis Set:
  @DF-RHF Final Energy:  -266.81198783194463
    Total Energy =                       -266.8119878319445206
  Basis Set: 6-31G*
  Basis Set:
  Basis Set: 6-31G*
  Basis Set:
  @DF-RHF Final Energy:  -266.81587696692225
    Total Energy =                       -266.8158769669219623
  Basis Set: 6-31G*
  Basis Set:
  Basis Set: 6-31G*
  Basis Set:
  @DF-RHF Final Energy:  -266.81591300348293
    Total Energy =                       -266.8159130034828195
  Basis Set: 6-31G*
  Basis Set:
  @DF-RHF Final Energy:  -266.81687576066639
    Total Energy =                       -266.8168757606663917
  @DF-RHF Final Energy:  -266.81715268243403
    Total Energy =                       -266.8171526824339708
  @DF-RHF Final Energy:  -266.81720214402606
    Total Energy =                       -266.8172021440258277
  Basis Set: 6-31G*
  Basis Set:
  @DF-RHF Final Energy:  -266.81723192899130
    Total Energy =                       -266.8172319289914185
  Basis Set: 6-31G*
  Basis Set:
  Basis Set: 6-31G*
  Basis Set:
  @DF-RHF Final Energy:  -266.81725116902192
    Total Energy =                       -266.8172511690221427
  Basis Set: 6-31G*
  Basis Set:
  Basis Set: 6-31G*
  Basis Set:
  @DF-RHF Final Energy:  -266.81725728272090
    Total Energy =                       -266.8172572827209592
  Basis Set: 6-31G*
  Basis Set:
  Charge       = 0
  Multiplicity = 1
  Basis Set: 6-31G*
  Basis Set:

    Orbital Energies (a.u.)
    -----------------------

    Doubly Occupied:

       1A    -20.595144     2A    -20.551411     3A    -11.379015
       4A    -11.297255     5A    -11.242465     6A     -1.462572
       7A     -1.369852     8A     -1.022823     9A     -0.977586
      10A     -0.782164    11A     -0.696269    12A     -0.684185
      13A     -0.675394    14A     -0.613318    15A     -0.591618
      16A     -0.579782    17A     -0.545280    18A     -0.499221
      19A     -0.458447    20A     -0.439016

  @DF-RHF Final Energy:  -266.81725748893962

   => Energetics <=

    Nuclear Repulsion Energy =            182.6610246112863933
    One-Electron Energy =                -726.0309291909753711
    Two-Electron Energy =                 276.5526470907492467
    DFT Exchange-Correlation Energy =       0.0000000000000000
    Empirical Dispersion Energy =           0.0000000000000000
    PCM Polarization Energy =               0.0000000000000000
    EFP Energy =                            0.0000000000000000
    Total Energy =                       -266.8172574889397310
    Molecular point group: c1
  Basis Set: 6-31G*
  Basis Set:

  -Total Gradient:
     Atom            X                  Y                   Z
    ------   -----------------  -----------------  -----------------
       1       -0.000009366935    -0.000114229231     0.003936103303
       2        0.000742331796     0.001190404279    -0.004586154212
       3        0.000010658961    -0.000010128227    -0.000002679674
       4       -0.002329699096    -0.002962129180    -0.001488026440
       5        0.000001905129     0.000006778141     0.000000812678
       6       -0.000004349044    -0.000002272608     0.000001503972
       7        0.000001406446     0.000004725311     0.000000820621
       8        0.001580808069     0.001884051115     0.002139188567
       9       -0.000000518927     0.000002503685    -0.000002170712
      10        0.000001602675     0.000000556408    -0.000001887915
      11        0.000005220926    -0.000000259699     0.000002489812

  **** Optimization is complete! (in 11 steps) ****
    Final optimized geometry and variables:
    Molecular point group: c1

    Geometry (in Angstrom), charge = 0, multiplicity = 1:

    O            0.001384295067     1.632239076622    -0.170159254830
    C           -0.187819822049     0.466358564304    -0.189511831210
    C           -1.566465030244    -0.150630664445    -0.224780408172
    O            0.847327646868    -0.391658345268    -0.199715794018
    H           -1.610660177239    -0.952814463128    -0.952018348783
    H           -2.284316237854     0.616658775753    -0.473116062129
    H           -1.822649407593    -0.562858355780     0.745927771117
    C            0.875179263627    -1.456722008749     0.723283526834
    H            0.775156699857    -1.091133558976     1.738684884929
    H            1.839669289882    -1.926095050097     0.610621662690
    H            0.100485058466    -2.187052437947     0.520979204665

  Mulliken Charges: (a.u.)
   Center  Symbol    Alpha    Beta     Spin     Total
       1     O     4.25135  4.25135  0.00000 -0.50270
       2     C     2.62386  2.62386  0.00000  0.75228
       3     C     3.30185  3.30185  0.00000 -0.60370
       4     O     4.30179  4.30179  0.00000 -0.60359
       5     H     0.40155  0.40155  0.00000  0.19691
       6     H     0.39005  0.39005  0.00000  0.21990
       7     H     0.40303  0.40303  0.00000  0.19394
       8     C     3.09413  3.09413  0.00000 -0.18827
       9     H     0.41450  0.41450  0.00000  0.17101
      10     H     0.39902  0.39902  0.00000  0.20196
      11     H     0.41887  0.41887  0.00000  0.16226

   Total alpha = 20.00000, Total beta = 20.00000, Total charge = -0.00000
