  ==> Input File <==

--------------------------------------------------------------------------
set {
	reference rhf
	basis 6-31G*
}

set_num_threads( 4 )
memory 2 gb

molecule MOL {
0 1

O	 3.225979	 0.970355	 -0.599647
C	 2.701189	 0.057885	 -0.047330
C	 1.245376	 -0.013843	 0.345420
O	 3.347903	 -1.046386	 0.304773
C	 0.455112	 1.231400	 -0.050772
H	 0.838542	 -0.913825	 -0.103701
H	 1.208210	 -0.175333	 1.419774
C	 -0.998893	 1.219485	 0.433193
H	 0.482531	 1.345121	 -1.130325
H	 0.957290	 2.103070	 0.354729
C	 -1.971054	 2.035221	 -0.423889
H	 -1.019226	 1.609581	 1.448148
H	 -1.350817	 0.190951	 0.498598
C	 -3.384289	 2.081955	 0.160561
H	 -1.591170	 3.050484	 -0.527569
H	 -2.020431	 1.623359	 -1.429326
C	 -4.365658	 2.890087	 -0.690302
H	 -3.345344	 2.505695	 1.162641
H	 -3.760605	 1.066523	 0.274503
C	 -5.773696	 2.935009	 -0.097756
H	 -3.990641	 3.904788	 -0.806002
H	 -4.409238	 2.465403	 -1.691064
H	 -6.445764	 3.514578	 -0.723081
H	 -5.769036	 3.386950	 0.890132
H	 -6.190517	 1.936402	 -0.001220
C	 4.728119	 -1.109107	 -0.004993
H	 4.882018	 -1.033965	 -1.071845
H	 5.068212	 -2.067527	 0.355250
H	 5.265056	 -0.311663	 0.488280

	symmetry c1
}
set optking {
	frozen_dihedral = ("
		11 8 5 9
	")
}

ee = optimize('scf')
oeprop('DIPOLE', 'QUADRUPOLE', 'MULLIKEN_CHARGES')
f=open( 'psi4out.xyz', 'w' )
f.write( "29  " )
f.write( str(ee) + "\n" )
f.write( MOL.save_string_xyz() )
f.close()
--------------------------------------------------------------------------

    Molecular point group: c1
  Charge       = 0
  Multiplicity = 1
  Basis Set: 6-31G*
  Basis Set:
  @DF-RHF Final Energy:  -501.04280254249113
    Total Energy =                       -501.0428025424910174
    Molecular point group: c1
  Basis Set: 6-31G*
  Basis Set:
  Basis Set: 6-31G*
  Basis Set:
  @DF-RHF Final Energy:  -501.04330854280659
    Total Energy =                       -501.0433085428062441
  Basis Set: 6-31G*
  Basis Set:
  Basis Set: 6-31G*
  Basis Set:
  @DF-RHF Final Energy:  -501.04308115196875
    Total Energy =                       -501.0430811519688632
  Basis Set: 6-31G*
  Basis Set:
  Basis Set: 6-31G*
  Basis Set:
  @DF-RHF Final Energy:  -501.04334736949306
    Total Energy =                       -501.0433473694930626
  Basis Set: 6-31G*
  Basis Set:
  Basis Set: 6-31G*
  Basis Set:
  @DF-RHF Final Energy:  -501.04334590211738
    Total Energy =                       -501.0433459021176077
  Basis Set: 6-31G*
  Basis Set:
  Basis Set: 6-31G*
  Basis Set:
  @DF-RHF Final Energy:  -501.04336930085287
    Total Energy =                       -501.0433693008531009
  Basis Set: 6-31G*
  Basis Set:
  Charge       = 0
  Multiplicity = 1
  Basis Set: 6-31G*
  Basis Set:

    Orbital Energies (a.u.)
    -----------------------

    Doubly Occupied:

       1A    -20.603528     2A    -20.545367     3A    -11.372102
       4A    -11.280769     5A    -11.235679     6A    -11.218586
       7A    -11.217288     8A    -11.214595     9A    -11.214395
      10A    -11.213092    11A    -11.208127    12A     -1.469218
      13A     -1.362670    14A     -1.096631    15A     -1.067008
      16A     -1.020215    17A     -0.977364    18A     -0.926809
      19A     -0.855760    20A     -0.801539    21A     -0.790189
      22A     -0.766984    23A     -0.697810    24A     -0.683052
      25A     -0.671850    26A     -0.655086    27A     -0.629311
      28A     -0.597836    29A     -0.593111    30A     -0.583765
      31A     -0.566279    32A     -0.548971    33A     -0.529889
      34A     -0.525881    35A     -0.514730    36A     -0.514131
      37A     -0.492058    38A     -0.480008    39A     -0.467667
      40A     -0.462381    41A     -0.460313    42A     -0.455455
      43A     -0.445701    44A     -0.430983

  @DF-RHF Final Energy:  -501.04336970354700

   => Energetics <=

    Nuclear Repulsion Energy =            602.0706798649151779
    One-Electron Energy =               -1875.2997345779081115
    Two-Electron Energy =                 772.1856850094454785
    DFT Exchange-Correlation Energy =       0.0000000000000000
    Empirical Dispersion Energy =           0.0000000000000000
    PCM Polarization Energy =               0.0000000000000000
    EFP Energy =                            0.0000000000000000
    Total Energy =                       -501.0433697035473415
    Molecular point group: c1
  Basis Set: 6-31G*
  Basis Set:

  -Total Gradient:
     Atom            X                  Y                   Z
    ------   -----------------  -----------------  -----------------
       1        0.000017457678    -0.000000674543     0.000021448586
       2       -0.000019512779    -0.000001966019    -0.000057045236
       3       -0.000018752655    -0.000001249485    -0.000004861652
       4       -0.000003281143     0.000000699844    -0.000001311399
       5       -0.000311582529    -0.006070025032    -0.001210628087
       6       -0.000003000883     0.000006150629     0.000019214114
       7        0.000001592828     0.000009953926     0.000019565219
       8        0.000775226785     0.004389190659     0.002458400926
       9        0.000107949880     0.004155097447     0.000424343748
      10       -0.000001735755    -0.000029704761    -0.000007375398
      11       -0.000549301262    -0.002463914556    -0.001703600654
      12       -0.000010200041     0.000004217189     0.000005371537
      13       -0.000018918363    -0.000002106626    -0.000004930707
      14        0.000007217331     0.000003277233     0.000028197970
      15        0.000016717134    -0.000008995640     0.000022772618
      16        0.000002058312     0.000008943482    -0.000013553169
      17        0.000010517268    -0.000009311016    -0.000007727375
      18        0.000000523982     0.000015442855    -0.000000399879
      19       -0.000000570638     0.000007067732     0.000017062290
      20       -0.000004487363    -0.000018196611    -0.000008042499
      21       -0.000004015680    -0.000001827702     0.000010276293
      22        0.000003582353     0.000008889202    -0.000008572181
      23       -0.000000838347    -0.000003134619    -0.000002273565
      24        0.000004859634     0.000000369096    -0.000004366684
      25       -0.000003878245    -0.000000154150     0.000003344490
      26       -0.000000487160     0.000003596618     0.000007398860
      27       -0.000001421674     0.000000187726    -0.000000397887
      28        0.000001864911    -0.000000411285    -0.000000854402
      29        0.000002416402    -0.000001411588    -0.000001455877

  **** Optimization is complete! (in 7 steps) ****
    Final optimized geometry and variables:
    Molecular point group: c1

    Geometry (in Angstrom), charge = 0, multiplicity = 1:

    O            3.234501902721    -0.062458976293    -0.604596376663
    C            2.720551656052    -0.947186322922     0.000533858951
    C            1.280156013889    -0.983727094828     0.449809999887
    O            3.366378707587    -2.046743513237     0.368100904548
    C            0.485876919168     0.252281966030     0.043939841192
    H            0.835419615665    -1.887934960355     0.043812290175
    H            1.279231003359    -1.113201551241     1.528970648919
    C           -0.960272736765     0.227493856381     0.560301394697
    H            0.498403899842     0.369505738024    -1.035020872982
    H            0.989905298916     1.135693358961     0.423401205941
    C           -1.919232379390     1.050327974830    -0.302227428960
    H           -0.988360266545     0.579461591103     1.588994532334
    H           -1.322653360295    -0.799386290828     0.584987588291
    C           -3.349589115242     1.074427024847     0.238421779980
    H           -1.548404599420     2.070819999120    -0.385441082796
    H           -1.920849368656     0.644469593396    -1.311912304100
    C           -4.314475524722     1.875671133874    -0.637528598158
    H           -3.347851190939     1.491782062447     1.244058832599
    H           -3.716136601341     0.053403115500     0.333929895486
    C           -5.742174813250     1.893330463114    -0.092508409106
    H           -3.951580496208     2.896953241785    -0.731341892590
    H           -4.317520996269     1.460005276789    -1.642939355016
    H           -6.401896344309     2.468288103425    -0.735026791016
    H           -5.777897847228     2.336053215901     0.898956142118
    H           -6.146328500387     0.887560130327    -0.018898504773
    C            4.732454546957    -2.140502700731     0.007518602263
    H            4.845210348933    -2.106420984815    -1.066559372110
    H            5.074013514675    -3.089960486817     0.389410132316
    H            5.298581416051    -1.333421434479     0.449835415536

  Mulliken Charges: (a.u.)
   Center  Symbol    Alpha    Beta     Spin     Total
       1     O     4.28600  4.28600  0.00000 -0.57200
       2     C     2.60503  2.60503  0.00000  0.78995
       3     C     3.20883  3.20883  0.00000 -0.41765
       4     O     4.30746  4.30746  0.00000 -0.61491
       5     C     3.15473  3.15473  0.00000 -0.30947
       6     H     0.40049  0.40049  0.00000  0.19902
       7     H     0.40033  0.40033  0.00000  0.19934
       8     C     3.15504  3.15504  0.00000 -0.31008
       9     H     0.41102  0.41102  0.00000  0.17797
      10     H     0.41032  0.41032  0.00000  0.17935
      11     C     3.15329  3.15329  0.00000 -0.30657
      12     H     0.42066  0.42066  0.00000  0.15868
      13     H     0.42453  0.42453  0.00000  0.15093
      14     C     3.15114  3.15114  0.00000 -0.30227
      15     H     0.42167  0.42167  0.00000  0.15666
      16     H     0.42249  0.42249  0.00000  0.15502
      17     C     3.15146  3.15146  0.00000 -0.30293
      18     H     0.42394  0.42394  0.00000  0.15212
      19     H     0.42449  0.42449  0.00000  0.15102
      20     C     3.23928  3.23928  0.00000 -0.47855
      21     H     0.42257  0.42257  0.00000  0.15486
      22     H     0.42301  0.42301  0.00000  0.15398
      23     H     0.41926  0.41926  0.00000  0.16149
      24     H     0.42187  0.42187  0.00000  0.15625
      25     H     0.42204  0.42204  0.00000  0.15592
      26     C     3.09244  3.09244  0.00000 -0.18488
      27     H     0.40907  0.40907  0.00000  0.18185
      28     H     0.40846  0.40846  0.00000  0.18309
      29     H     0.40909  0.40909  0.00000  0.18181

   Total alpha = 44.00000, Total beta = 44.00000, Total charge =  0.00000
