                              Psi4 1.0.54 Driver

  ==> Input File <==

--------------------------------------------------------------------------
set {
	reference rhf
	basis cc-pvtz
}

set_num_threads( 4 )
memory 2 gb

molecule MOL {
0 1

H	 -0.085978	 -0.224744	 3.050503
O	 -0.041726	 -0.241276	 2.112514
C	 -0.033754	 1.068412	 1.605888
C	 0.027642	 1.012027	 0.090274
H	 0.832004	 1.611806	 1.975960
H	 -0.918855	 1.606927	 1.933086
C	 -1.138737	 0.285728	 -0.581921
H	 0.955244	 0.523240	 -0.189278
H	 0.086167	 2.032743	 -0.279764
C	 -1.933983	 -0.631436	 0.343653
H	 -0.763151	 -0.285569	 -1.422081
H	 -1.808359	 1.035291	 -0.992333
H	 -2.789188	 -1.049673	 -0.174718
H	 -1.335629	 -1.461368	 0.700418
H	 -2.305435	 -0.092167	 1.209725

	symmetry c1
}
set optking {
	frozen_dihedral = ("
		8 4 7 11
	")
}

ee,wfn = optimize('scf', return_wfn=True)
oeprop( wfn, 'DIPOLE', 'QUADRUPOLE', 'MULLIKEN_CHARGES')
f=open( 'psi4out.xyz', 'w' )
f.write( "15  " )
f.write( str(ee) + "\n" )
f.write( MOL.save_string_xyz() )
f.close()
--------------------------------------------------------------------------

    Molecular point group: c1
  Charge       = 0
  Multiplicity = 1
  Basis Set: CC-PVTZ
  Basis Set:
  @DF-RHF Final Energy:  -232.22341284089489
    Total Energy =                       -232.2234128408948663
    Molecular point group: c1
  Basis Set: CC-PVTZ
  Basis Set:
  Basis Set: CC-PVTZ
  Basis Set:
  @DF-RHF Final Energy:  -232.22884126605362
    Total Energy =                       -232.2288412660536210
  Basis Set: CC-PVTZ
  Basis Set:
  Basis Set: CC-PVTZ
  Basis Set:
  @DF-RHF Final Energy:  -232.23004244925664
    Total Energy =                       -232.2300424492566435
  Basis Set: CC-PVTZ
  Basis Set:
  Basis Set: CC-PVTZ
  Basis Set:
  @DF-RHF Final Energy:  -232.23034427449548
    Total Energy =                       -232.2303442744954509
  Basis Set: CC-PVTZ
  Basis Set:
  Basis Set: CC-PVTZ
  Basis Set:
  @DF-RHF Final Energy:  -232.23038636993056
    Total Energy =                       -232.2303863699304998
  Basis Set: CC-PVTZ
  Basis Set:
  Basis Set: CC-PVTZ
  Basis Set:
  @DF-RHF Final Energy:  -232.23039549384234
    Total Energy =                       -232.2303954938424226
  Basis Set: CC-PVTZ
  Basis Set:
  Basis Set: CC-PVTZ
  Basis Set:
  @DF-RHF Final Energy:  -232.23040145264457
    Total Energy =                       -232.2304014526445712
  Basis Set: CC-PVTZ
  Basis Set:
  Charge       = 0
  Multiplicity = 1
  Basis Set: CC-PVTZ
  Basis Set:

    Orbital Energies (a.u.)
    -----------------------

    Doubly Occupied:

       1A    -20.546009     2A    -11.266900     3A    -11.211665
       4A    -11.210725     5A    -11.196508     6A     -1.364253
       7A     -1.061012     8A     -0.971667     9A     -0.868969
      10A     -0.772857    11A     -0.707284    12A     -0.650070
      13A     -0.610223    14A     -0.570695    15A     -0.559955
      16A     -0.535557    17A     -0.509351    18A     -0.477870
      19A     -0.461418    20A     -0.452184    21A     -0.429605

  @DF-RHF Final Energy:  -232.23040156717428

   => Energetics <=

    Nuclear Repulsion Energy =            192.9953399646446428
    One-Electron Energy =                -697.5819274311724030
    Two-Electron Energy =                 272.3561858993537044
    DFT Exchange-Correlation Energy =       0.0000000000000000
    Empirical Dispersion Energy =           0.0000000000000000
    PCM Polarization Energy =               0.0000000000000000
    EFP Energy =                            0.0000000000000000
    Total Energy =                       -232.2304015671740558
    Molecular point group: c1
  Basis Set: CC-PVTZ
  Basis Set:

  -Total Gradient:
     Atom            X                  Y                   Z
    ------   -----------------  -----------------  -----------------
       1        0.000004106050    -0.000002761726    -0.000003252526
       2       -0.000003636955     0.000017958522     0.000013731289
       3        0.000012070890    -0.000031769950     0.000005435704
       4       -0.000603015873    -0.004380361396     0.005283143974
       5        0.000007916692     0.000002293570     0.000002954408
       6       -0.000008764588     0.000003224189    -0.000005824403
       7       -0.000449772568     0.005249645929    -0.004335217482
       8        0.000547449674     0.002880875698    -0.003768093379
       9        0.000010147570     0.000012603605    -0.000006284498
      10        0.000000081093    -0.000006580065     0.000002615223
      11        0.000478144851    -0.003744419887     0.002824123781
      12        0.000000718558     0.000000691806     0.000001036706
      13       -0.000004064433    -0.000003318903     0.000002348250
      14       -0.000003761637     0.000003027309    -0.000002006162
      15        0.000012380674    -0.000001108702    -0.000014710883

  **** Optimization is complete! (in 8 steps) ****
    Final optimized geometry and variables:
    Molecular point group: c1

    Geometry (in Angstrom), charge = 0, multiplicity = 1:

    H            0.742459828889    -0.300741929361     2.391039342483
    O            0.794782404064    -0.403529716509     1.458820780745
    C            0.568026780870     0.828518063150     0.824958037598
    C            0.613087130016     0.649813041768    -0.680982990707
    H            1.338281205959     1.539437243358     1.112643344466
    H           -0.388652439968     1.246786159341     1.129638993525
    C           -0.593154090260    -0.026319599025    -1.371660930030
    H            1.530235833958     0.133608162090    -0.941453951565
    H            0.723348636627     1.642976215103    -1.108099966195
    C           -1.438000940650    -0.976038076496    -0.520442826708
    H           -0.215894864722    -0.606765748670    -2.206414136053
    H           -1.242832295458     0.738180620992    -1.783818303573
    H           -2.241226274624    -1.387087298941    -1.122390918378
    H           -0.848038199406    -1.796059099217    -0.135044397077
    H           -1.890160952909    -0.473358971204     0.326024626987

  Mulliken Charges: (a.u.)
   Center  Symbol    Alpha    Beta     Spin     Total
       1     H     0.39614  0.39614  0.00000  0.20773
       2     O     4.19849  4.19849  0.00000 -0.39699
       3     C     2.98339  2.98339  0.00000  0.03321
       4     C     3.09228  3.09228  0.00000 -0.18457
       5     H     0.45937  0.45937  0.00000  0.08125
       6     H     0.46944  0.46944  0.00000  0.06113
       7     C     3.09060  3.09060  0.00000 -0.18120
       8     H     0.45032  0.45032  0.00000  0.09937
       9     H     0.45269  0.45269  0.00000  0.09461
      10     C     3.14498  3.14498  0.00000 -0.28996
      11     H     0.45225  0.45225  0.00000  0.09550
      12     H     0.45383  0.45383  0.00000  0.09233
      13     H     0.45056  0.45056  0.00000  0.09888
      14     H     0.44582  0.44582  0.00000  0.10836
      15     H     0.45982  0.45982  0.00000  0.08036

   Total alpha = 21.00000, Total beta = 21.00000, Total charge =  0.00000

*** Psi4 exiting successfully. Buy a developer a beer!
