                              Psi4 1.0.54 Driver

  ==> Input File <==

--------------------------------------------------------------------------
set {
	reference rhf
	basis cc-pvtz
}

set_num_threads( 4 )
memory 2 gb

molecule MOL {
0 1

O	 2.102620	 1.755662	 -0.574728
C	 0.961850	 1.413950	 -0.445908
C	 -0.156095	 2.416298	 -0.646727
N	 0.622280	 0.144970	 -0.099307
H	 -0.758702	 2.519495	 0.246895
H	 0.299193	 3.364119	 -0.880911
H	 -0.807897	 2.122637	 -1.460294
C	 1.664396	 -0.854993	 0.000772
C	 -0.725232	 -0.370599	 -0.145710
H	 2.462727	 -0.615153	 -0.690869
H	 1.261798	 -1.821849	 -0.240651
H	 2.081615	 -0.891605	 1.003877
H	 -0.851403	 -1.107389	 0.637142
H	 -1.454303	 0.404629	 0.016687
H	 -0.942590	 -0.853757	 -1.095635

	symmetry c1
}
set optking {
	frozen_dihedral = ("
		2 4 8 10
	")
}

ee,wfn = optimize('scf', return_wfn=True)
oeprop( wfn, 'DIPOLE', 'QUADRUPOLE', 'MULLIKEN_CHARGES')
f=open( 'psi4out.xyz', 'w' )
f.write( "15  " )
f.write( str(ee) + "\n" )
f.write( MOL.save_string_xyz() )
f.close()
--------------------------------------------------------------------------

    Molecular point group: c1
  Charge       = 0
  Multiplicity = 1
  Basis Set: CC-PVTZ
  Basis Set:
  @DF-RHF Final Energy:  -286.13394638371608
    Total Energy =                       -286.1339463837160224
    Molecular point group: c1
  Basis Set: CC-PVTZ
  Basis Set:
  Basis Set: CC-PVTZ
  Basis Set:
  @DF-RHF Final Energy:  -286.13445110339785
    Total Energy =                       -286.1344511033978506
  Basis Set: CC-PVTZ
  Basis Set:
  Basis Set: CC-PVTZ
  Basis Set:
  @DF-RHF Final Energy:  -286.13455904852344
    Total Energy =                       -286.1345590485235562
  Basis Set: CC-PVTZ
  Basis Set:
  Basis Set: CC-PVTZ
  Basis Set:
  @DF-RHF Final Energy:  -286.13487621855745
    Total Energy =                       -286.1348762185575652
  Basis Set: CC-PVTZ
  Basis Set:
  @DF-RHF Final Energy:  -286.13507330878173
    Total Energy =                       -286.1350733087816138
  @DF-RHF Final Energy:  -286.13513242418469
    Total Energy =                       -286.1351324241844623
  @DF-RHF Final Energy:  -286.13520105610485
    Total Energy =                       -286.1352010561051884
  @DF-RHF Final Energy:  -286.13526878469406
    Total Energy =                       -286.1352687846940626
  @DF-RHF Final Energy:  -286.13533944486130
    Total Energy =                       -286.1353394448610743
  @DF-RHF Final Energy:  -286.13538796715682
    Total Energy =                       -286.1353879671569302
  @DF-RHF Final Energy:  -286.13540863616242
    Total Energy =                       -286.1354086361623104
  @DF-RHF Final Energy:  -286.13542646290944
    Total Energy =                       -286.1354264629095496
  @DF-RHF Final Energy:  -286.13544344823646
    Total Energy =                       -286.1354434482361171
  @DF-RHF Final Energy:  -286.13548728246644
    Total Energy =                       -286.1354872824662152
  @DF-RHF Final Energy:  -286.13552742544857
    Total Energy =                       -286.1355274254482310
  @DF-RHF Final Energy:  -286.13556091674695
    Total Energy =                       -286.1355609167468401
  @DF-RHF Final Energy:  -286.13558664362938
    Total Energy =                       -286.1355866436291535
  @DF-RHF Final Energy:  -286.13559487295447
    Total Energy =                       -286.1355948729542433
  Basis Set: CC-PVTZ
  Basis Set:
  @DF-RHF Final Energy:  -286.13559920534664
    Total Energy =                       -286.1355992053467503
  Basis Set: CC-PVTZ
  Basis Set:
  Basis Set: CC-PVTZ
  Basis Set:
  @DF-RHF Final Energy:  -286.13560682777404
    Total Energy =                       -286.1356068277739269
  Basis Set: CC-PVTZ
  Basis Set:
  Basis Set: CC-PVTZ
  Basis Set:
  @DF-RHF Final Energy:  -286.13560902996988
    Total Energy =                       -286.1356090299698280
  Basis Set: CC-PVTZ
  Basis Set:
  Charge       = 0
  Multiplicity = 1
  Basis Set: CC-PVTZ
  Basis Set:

    Orbital Energies (a.u.)
    -----------------------

    Doubly Occupied:

       1A    -20.504289     2A    -15.578219     3A    -11.334824
       4A    -11.263923     5A    -11.246533     6A    -11.226567
       7A     -1.387881     8A     -1.245953     9A     -1.015019
      10A     -0.973186    11A     -0.920373    12A     -0.738908
      13A     -0.683075    14A     -0.661618    15A     -0.653863
      16A     -0.590251    17A     -0.578327    18A     -0.568063
      19A     -0.562076    20A     -0.548010    21A     -0.530362
      22A     -0.506305    23A     -0.414326    24A     -0.370945

  @DF-RHF Final Energy:  -286.13560931564075

   => Energetics <=

    Nuclear Repulsion Energy =            252.9624512233715734
    One-Electron Energy =                -889.9903366303777830
    Two-Electron Energy =                 350.8922760913655452
    DFT Exchange-Correlation Energy =       0.0000000000000000
    Empirical Dispersion Energy =           0.0000000000000000
    PCM Polarization Energy =               0.0000000000000000
    EFP Energy =                            0.0000000000000000
    Total Energy =                       -286.1356093156406928
    Molecular point group: c1
  Basis Set: CC-PVTZ
  Basis Set:

  -Total Gradient:
     Atom            X                  Y                   Z
    ------   -----------------  -----------------  -----------------
       1        0.000000103182    -0.000003048394     0.000007112692
       2       -0.000021738742     0.000038326854     0.000137197692
       3       -0.000003217931    -0.000002197165     0.000012497040
       4        0.000028246037    -0.000068393384    -0.000266462713
       5       -0.000000740944     0.000003975564    -0.000003009988
       6       -0.000002660558    -0.000003303232    -0.000003511211
       7       -0.000003594944    -0.000007686196     0.000001341610
       8        0.000049940390     0.000107609723     0.000294600827
       9       -0.000018533588     0.000006669819    -0.000003690289
      10       -0.000033833924    -0.000087249351    -0.000176551636
      11        0.000002702936     0.000001180776     0.000003621161
      12        0.000000882808    -0.000000523553     0.000005970457
      13        0.000008850796    -0.000007520139    -0.000020483982
      14        0.000000229892     0.000004181211     0.000014122524
      15       -0.000006635412     0.000017977466    -0.000002754184

  **** Optimization is complete! (in 22 steps) ****
    Final optimized geometry and variables:
    Molecular point group: c1

    Geometry (in Angstrom), charge = 0, multiplicity = 1:

    O            1.364268383972     1.031804383835    -0.053704106496
    C            0.220988091831     0.676806008671    -0.089317729793
    C           -0.887257811000     1.700987539295    -0.220093573992
    N           -0.125321164425    -0.636216417135    -0.038537119503
    H           -1.530523986773     1.696181567275     0.651356151507
    H           -0.422526598555     2.668628332422    -0.311096619989
    H           -1.500190670732     1.513217537601    -1.092459405174
    C            0.919004231239    -1.613912076581     0.186626834677
    C           -1.472366694821    -1.106032195891     0.182524572690
    H            1.847472890485    -1.254807785519    -0.219912399188
    H            0.649069361114    -2.541185589333    -0.302391589702
    H            1.058907507570    -1.813109667582     1.245961800146
    H           -1.665790022041    -1.299951621720     1.235175969403
    H           -2.202629819178    -0.399217023186    -0.171772741076
    H           -1.622510328995    -2.031496276588    -0.358404965910

  Mulliken Charges: (a.u.)
   Center  Symbol    Alpha    Beta     Spin     Total
       1     O     4.21993  4.21993  0.00000 -0.43986
       2     C     2.84528  2.84528  0.00000  0.30945
       3     C     3.16079  3.16079  0.00000 -0.32159
       4     N     3.56300  3.56300  0.00000 -0.12599
       5     H     0.44902  0.44902  0.00000  0.10195
       6     H     0.42862  0.42862  0.00000  0.14276
       7     H     0.44896  0.44896  0.00000  0.10207
       8     C     3.09657  3.09657  0.00000 -0.19314
       9     C     3.09537  3.09537  0.00000 -0.19073
      10     H     0.42833  0.42833  0.00000  0.14334
      11     H     0.45737  0.45737  0.00000  0.08527
      12     H     0.45696  0.45696  0.00000  0.08608
      13     H     0.45535  0.45535  0.00000  0.08930
      14     H     0.44521  0.44521  0.00000  0.10959
      15     H     0.44925  0.44925  0.00000  0.10150

   Total alpha = 24.00000, Total beta = 24.00000, Total charge = -0.00000

*** Psi4 exiting successfully. Buy a developer a beer!
