  ==> Input File <==

--------------------------------------------------------------------------
set {
	reference rhf
	basis 6-31G*
}

set_num_threads( 4 )
memory 2 gb

molecule MOL {
0 1

H	 -1.093408	 -0.276182	 0.773293
C	 -0.790252	 0.431209	 0.000000
N	 0.538815	 0.649616	 0.000000
O	 -1.580949	 0.933115	 -0.743034
C	 1.521968	 -0.411503	 0.000000
H	 0.852804	 1.592852	 0.000000
H	 2.150599	 -0.357004	 -0.881901
H	 0.999455	 -1.354525	 0.000000
H	 2.150599	 -0.357004	 0.881901

	symmetry c1
}
set optking {
	frozen_dihedral = ("
		1 2 3 6
	")
}

ee = optimize('scf')
oeprop('DIPOLE', 'QUADRUPOLE', 'MULLIKEN_CHARGES')
f=open( 'psi4out.xyz', 'w' )
f.write( "9  " )
f.write( str(ee) + "\n" )
f.write( MOL.save_string_xyz() )
f.close()
--------------------------------------------------------------------------

    Molecular point group: c1
  Charge       = 0
  Multiplicity = 1
  Basis Set: 6-31G*
  Basis Set:
  @DF-RHF Final Energy:  -207.93600324560603
    Total Energy =                       -207.9360032456060594
    Molecular point group: c1
  Basis Set: 6-31G*
  Basis Set:
  Basis Set: 6-31G*
  Basis Set:
  @DF-RHF Final Energy:  -207.94031304092732
    Total Energy =                       -207.9403130409273501
  Basis Set: 6-31G*
  Basis Set:
  Basis Set: 6-31G*
  Basis Set:
  @DF-RHF Final Energy:  -207.94464198701843
    Total Energy =                       -207.9446419870184286
  Basis Set: 6-31G*
  Basis Set:
  Basis Set: 6-31G*
  Basis Set:
  @DF-RHF Final Energy:  -207.94761138605290
    Total Energy =                       -207.9476113860528699
  Basis Set: 6-31G*
  Basis Set:
  @DF-RHF Final Energy:  -207.94817481672811
    Total Energy =                       -207.9481748167281125
  @DF-RHF Final Energy:  -207.94842932150664
    Total Energy =                       -207.9484293215066657
  @DF-RHF Final Energy:  -207.94846916308870
    Total Energy =                       -207.9484691630886459
  @DF-RHF Final Energy:  -207.94855579445806
    Total Energy =                       -207.9485557944580592
  @DF-RHF Final Energy:  -207.94864046445383
    Total Energy =                       -207.9486404644537458
  @DF-RHF Final Energy:  -207.94885398891427
    Total Energy =                       -207.9488539889142658
  @DF-RHF Final Energy:  -207.94145805161850
    Total Energy =                       -207.9414580516185538
  @DF-RHF Final Energy:  -207.94886628703836
    Total Energy =                       -207.9488662870383564
  @DF-RHF Final Energy:  -207.94905790359428
    Total Energy =                       -207.9490579035942801
  @DF-RHF Final Energy:  -207.94912803684969
    Total Energy =                       -207.9491280368497144
  @DF-RHF Final Energy:  -207.94913998726884
    Total Energy =                       -207.9491399872688646
  @DF-RHF Final Energy:  -207.94915020855922
    Total Energy =                       -207.9491502085592458
  @DF-RHF Final Energy:  -207.94915164312573
    Total Energy =                       -207.9491516431257878
  @DF-RHF Final Energy:  -207.94613219984333
    Total Energy =                       -207.9461321998433050
  @DF-RHF Final Energy:  -207.94875846403932
    Total Energy =                       -207.9487584640392583
  @DF-RHF Final Energy:  -207.94912488998466
    Total Energy =                       -207.9491248899846596
  @DF-RHF Final Energy:  -207.94915350809151
    Total Energy =                       -207.9491535080915696
  @DF-RHF Final Energy:  -207.94915341827374
    Total Energy =                       -207.9491534182736814
  @DF-RHF Final Energy:  -207.94915345790770
    Total Energy =                       -207.9491534579077268
  @DF-RHF Final Energy:  -207.94915356780817
    Total Energy =                       -207.9491535678080538
  @DF-RHF Final Energy:  -207.94915346611293
    Total Energy =                       -207.9491534661129037
  @DF-RHF Final Energy:  -207.94915313219718
    Total Energy =                       -207.9491531321971536
  @DF-RHF Final Energy:  -207.94915334963940
    Total Energy =                       -207.9491533496394311
  @DF-RHF Final Energy:  -207.94915312750567
    Total Energy =                       -207.9491531275055536
  @DF-RHF Final Energy:  -207.94915318582616
    Total Energy =                       -207.9491531858261624
  @DF-RHF Final Energy:  -207.94915338686673
    Total Energy =                       -207.9491533868667261
  @DF-RHF Final Energy:  -207.94915335544920
    Total Energy =                       -207.9491533554491980
  @DF-RHF Final Energy:  -207.94915318193222
    Total Energy =                       -207.9491531819322745
  @DF-RHF Final Energy:  -207.94915306870297
    Total Energy =                       -207.9491530687030263
  @DF-RHF Final Energy:  -207.94915281128633
    Total Energy =                       -207.9491528112862397
  @DF-RHF Final Energy:  -207.94915285932166
    Total Energy =                       -207.9491528593216572
  @DF-RHF Final Energy:  -207.94915265680527
    Total Energy =                       -207.9491526568052961
  Basis Set: 6-31G*
  Basis Set:
  @DF-RHF Final Energy:  -207.94915309440512
    Total Energy =                       -207.9491530944050908
  Basis Set: 6-31G*
  Basis Set:
  Basis Set: 6-31G*
  Basis Set:
  @DF-RHF Final Energy:  -207.94915308346609
    Total Energy =                       -207.9491530834660011
  Basis Set: 6-31G*
  Basis Set:
  Basis Set: 6-31G*
  Basis Set:
  @DF-RHF Final Energy:  -207.94915312950712
    Total Energy =                       -207.9491531295071240
  Basis Set: 6-31G*
  Basis Set:
  Charge       = 0
  Multiplicity = 1
  Basis Set: 6-31G*
  Basis Set:

    Orbital Energies (a.u.)
    -----------------------

    Doubly Occupied:

       1A    -20.543120     2A    -15.584089     3A    -11.349857
       4A    -11.270295     5A     -1.402583     6A     -1.237439
       7A     -0.955423     8A     -0.839161     9A     -0.696413
      10A     -0.677097    11A     -0.639094    12A     -0.585535
      13A     -0.566005    14A     -0.539426    15A     -0.435109
      16A     -0.399063

  @DF-RHF Final Energy:  -207.94915307350874

   => Energetics <=

    Nuclear Repulsion Energy =            120.2990131725541119
    One-Electron Energy =                -521.0569105378522181
    Two-Electron Energy =                 192.8087442917893100
    DFT Exchange-Correlation Energy =       0.0000000000000000
    Empirical Dispersion Energy =           0.0000000000000000
    PCM Polarization Energy =               0.0000000000000000
    EFP Energy =                            0.0000000000000000
    Total Energy =                       -207.9491530735087963
    Molecular point group: c1
  Basis Set: 6-31G*
  Basis Set:

  -Total Gradient:
     Atom            X                  Y                   Z
    ------   -----------------  -----------------  -----------------
       1        0.002473038997     0.007509146215     0.008626404706
       2       -0.002440843349    -0.011194834996    -0.008250330557
       3       -0.005035272204     0.005388442208    -0.011336597663
       4        0.000457464129     0.000120032637    -0.000096510612
       5       -0.000532136041     0.000916061254     0.000611865724
       6        0.004579363186    -0.002207991416     0.011119027770
       7        0.000378178032    -0.000319033810    -0.000338102674
       8        0.000019118687     0.000021703796    -0.000336025605
       9        0.000101088568    -0.000233525890     0.000000268911

    Molecular point group: c1

    Geometry (in Angstrom), charge = 0, multiplicity = 1:

    H           -0.827704576374    -0.803076284932     0.908323577002
    C           -0.683783393425    -0.002726743707     0.178587175898
    N            0.604439024635     0.110126842996    -0.288412951450
    O           -1.560008718412     0.754492726117    -0.089510706426
    C            1.583104740493    -0.866836672877     0.157219263921
    H            0.944985606392     1.047862872805    -0.236740651574
    H            2.496351441328    -0.731555464432    -0.407570653343
    H            1.219478860049    -1.864573559040    -0.052038793239
    H            1.819006364971    -0.799402949409     1.217547208012

  Mulliken Charges: (a.u.)
   Center  Symbol    Alpha    Beta     Spin     Total
       1     H     0.42900  0.42900  0.00000  0.14199
       2     C     2.75143  2.75143  0.00000  0.49715
       3     N     3.85813  3.85813  0.00000 -0.71625
       4     O     4.26396  4.26396  0.00000 -0.52793
       5     C     3.15860  3.15860  0.00000 -0.31721
       6     H     0.30859  0.30859  0.00000  0.38282
       7     H     0.40406  0.40406  0.00000  0.19189
       8     H     0.40718  0.40718  0.00000  0.18564
       9     H     0.41905  0.41905  0.00000  0.16190

   Total alpha = 16.00000, Total beta = 16.00000, Total charge =  0.00000
