  ==> Input File <==

--------------------------------------------------------------------------
set {
	reference rhf
	basis 6-31G*
}

set_num_threads( 4 )
memory 2 gb

molecule MOL {
0 1

H	 2.782477	 0.820408	 -0.020319
N	 2.332695	 -0.069570	 0.000000
C	 0.936681	 -0.007078	 0.000000
H	 2.715623	 -0.673051	 -0.695668
C	 0.227108	 -0.002120	 -1.198267
C	 0.227108	 -0.002120	 1.198267
H	 0.761569	 -0.014657	 -2.132680
C	 -1.156334	 0.010459	 -1.192360
H	 0.761569	 -0.014657	 2.132680
C	 -1.156334	 0.010459	 1.192360
H	 -1.684791	 0.014915	 -2.129421
C	 -1.862085	 0.017996	 0.000000
H	 -1.684791	 0.014915	 2.129421
H	 -2.936703	 0.028387	 0.000000

	symmetry c1
}
set optking {
	frozen_dihedral = ("
		1 2 3 5
	")
}

ee = optimize('scf')
oeprop('DIPOLE', 'QUADRUPOLE', 'MULLIKEN_CHARGES')
f=open( 'psi4out.xyz', 'w' )
f.write( "14  " )
f.write( str(ee) + "\n" )
f.write( MOL.save_string_xyz() )
f.close()
--------------------------------------------------------------------------

    Molecular point group: c1
  Charge       = 0
  Multiplicity = 1
  Basis Set: 6-31G*
  Basis Set:
  @DF-RHF Final Energy:  -285.72379897760186
    Total Energy =                       -285.7237989776019162
    Molecular point group: c1
  Basis Set: 6-31G*
  Basis Set:
  Basis Set: 6-31G*
  Basis Set:
  @DF-RHF Final Energy:  -285.72557600999374
    Total Energy =                       -285.7255760099939721
  Basis Set: 6-31G*
  Basis Set:
  Basis Set: 6-31G*
  Basis Set:
  @DF-RHF Final Energy:  -285.72582804389685
    Total Energy =                       -285.7258280438969678
  Basis Set: 6-31G*
  Basis Set:
  Basis Set: 6-31G*
  Basis Set:
  @DF-RHF Final Energy:  -285.72585297250322
    Total Energy =                       -285.7258529725029348
  Basis Set: 6-31G*
  Basis Set:
  Charge       = 0
  Multiplicity = 1
  Basis Set: 6-31G*
  Basis Set:

    Orbital Energies (a.u.)
    -----------------------

    Doubly Occupied:

       1A    -15.550622     2A    -11.261766     3A    -11.229853
       4A    -11.228202     5A    -11.224733     6A    -11.223483
       7A    -11.219795     8A     -1.209282     9A     -1.126614
      10A     -1.011309    11A     -0.985563    12A     -0.827103
      13A     -0.806840    14A     -0.701211    15A     -0.665282
      16A     -0.646286    17A     -0.617987    18A     -0.589943
      19A     -0.581911    20A     -0.507282    21A     -0.498676
      22A     -0.489808    23A     -0.420143    24A     -0.331190
      25A     -0.314422

  @DF-RHF Final Energy:  -285.72585555130900

   => Energetics <=

    Nuclear Repulsion Energy =            272.4875442454390395
    One-Electron Energy =                -925.8881884555228226
    Two-Electron Energy =                 367.6747886587749008
    DFT Exchange-Correlation Energy =       0.0000000000000000
    Empirical Dispersion Energy =           0.0000000000000000
    PCM Polarization Energy =               0.0000000000000000
    EFP Energy =                            0.0000000000000000
    Total Energy =                       -285.7258555513088822
    Molecular point group: c1
  Basis Set: 6-31G*
  Basis Set:

  -Total Gradient:
     Atom            X                  Y                   Z
    ------   -----------------  -----------------  -----------------
       1        0.000082475915     0.000047698408    -0.002759386602
       2       -0.000109207540     0.001048489697     0.003513473078
       3       -0.000090987619    -0.003231486412    -0.000512861037
       4       -0.000013339581     0.000011286325    -0.000034413846
       5       -0.000061127797     0.002194023665    -0.000111510782
       6        0.000220055784    -0.000047385333    -0.000067398296
       7       -0.000003600762    -0.000003130908     0.000016265988
       8        0.000127906526    -0.000082629538    -0.000057498154
       9        0.000003946194     0.000002147966     0.000010894274
      10       -0.000130862602    -0.000007150725    -0.000113600689
      11       -0.000023197708     0.000014636993     0.000008422957
      12       -0.000013795585     0.000060400648     0.000139697794
      13        0.000016783869    -0.000004135538    -0.000006838926
      14       -0.000005049097    -0.000002765247    -0.000025245759

  **** Optimization is complete! (in 5 steps) ****
    Final optimized geometry and variables:
    Molecular point group: c1

    Geometry (in Angstrom), charge = 0, multiplicity = 1:

    H            2.737064960669     0.849118747019     0.059088380884
    N            2.353878678947    -0.077097483223     0.045424528712
    C            0.928424487496    -0.040824004874    -0.001683318971
    H            2.727849468305    -0.533525713481    -0.763439222732
    C            0.220555641138    -0.020574079343    -1.197042479272
    C            0.227331982201    -0.005878448461     1.196446895746
    H            0.754528313751    -0.036817398535    -2.132055288098
    C           -1.164854593429     0.014415363225    -1.193713745571
    H            0.778419901728    -0.033168984662     2.118699801041
    C           -1.156124514999     0.050358968636     1.198404400230
    H           -1.699102066317     0.020300729893    -2.127315457588
    C           -1.859164786463     0.056049136968     0.003748542709
    H           -1.685772187217     0.077779270835     2.134192664815
    H           -2.933858534707     0.089958590349     0.006335233323

  Mulliken Charges: (a.u.)
   Center  Symbol    Alpha    Beta     Spin     Total
       1     H     0.32267  0.32267  0.00000  0.35466
       2     N     3.93759  3.93759  0.00000 -0.87518
       3     C     2.89504  2.89504  0.00000  0.20992
       4     H     0.32641  0.32641  0.00000  0.34717
       5     C     3.11588  3.11588  0.00000 -0.23177
       6     C     3.10326  3.10326  0.00000 -0.20652
       7     H     0.40398  0.40398  0.00000  0.19203
       8     C     3.09722  3.09722  0.00000 -0.19443
       9     H     0.39431  0.39431  0.00000  0.21139
      10     C     3.09763  3.09763  0.00000 -0.19525
      11     H     0.40011  0.40011  0.00000  0.19978
      12     C     3.10532  3.10532  0.00000 -0.21065
      13     H     0.39978  0.39978  0.00000  0.20043
      14     H     0.40079  0.40079  0.00000  0.19842

   Total alpha = 25.00000, Total beta = 25.00000, Total charge =  0.00000
