  ==> Input File <==

--------------------------------------------------------------------------
set {
	reference rhf
	basis 6-31G*
}

set_num_threads( 1 )
memory 2 gb

molecule MOL {
0 1

H	 -3.420663	 1.227371	 -1.044276
O	 -3.452007	 0.283848	 -0.965577
C	 -3.181085	 -0.079926	 0.364119
C	 -1.765924	 0.277073	 0.805136
H	 -3.327791	 -1.152017	 0.410903
H	 -3.905698	 0.375695	 1.036898
C	 -0.677594	 -0.417312	 -0.014550
H	 -1.637766	 1.358238	 0.744969
H	 -1.659588	 0.017670	 1.857098
C	 0.738335	 -0.034840	 0.421385
H	 -0.814977	 -0.178223	 -1.064632
H	 -0.802730	 -1.495410	 0.071702
C	 1.822265	 -0.738362	 -0.399735
H	 0.853533	 1.043532	 0.342250
H	 0.871597	 -0.279636	 1.474438
C	 1.317446	 -1.425242	 -1.673905
H	 2.328399	 -1.471663	 0.226199
H	 2.577341	 -0.006335	 -0.678685
C	 0.380673	 -2.609740	 -1.429312
H	 2.177380	 -1.773032	 -2.241219
H	 0.816193	 -0.692353	 -2.303049
H	 0.851096	 -3.353846	 -0.792014
H	 0.120183	 -3.094836	 -2.365081
H	 -0.545239	 -2.304244	 -0.953366

	symmetry c1
}
set optking {
	frozen_dihedral = ("
		20 16 13 17,
		13 10 7 11,
		11 7 4 3,
		1 2 3 5,
		7 4 3 2
	")
}

ee = energy('scf')
oeprop('DIPOLE', 'QUADRUPOLE', 'MULLIKEN_CHARGES')
f=open( 'psi4out.xyz', 'w' )
f.write( "24  " )
f.write( str(ee) + "\n" )
f.write( MOL.save_string_xyz() )
f.close()
--------------------------------------------------------------------------

    Molecular point group: c1

    Geometry (in Angstrom), charge = 0, multiplicity = 1:

       Center              X                  Y                   Z               Mass
    ------------   -----------------  -----------------  -----------------  -----------------
           H         -2.756117676546     1.810141040720    -0.666341220256     1.007825032070
           O         -2.787461676546     0.866618040720    -0.587642220256    15.994914619560
           C         -2.516539676546     0.502844040720     0.742053779744    12.000000000000
           C         -1.101378676546     0.859843040720     1.183070779744    12.000000000000
           H         -2.663245676546    -0.569246959280     0.788837779744     1.007825032070
           H         -3.241152676546     0.958465040720     1.414832779744     1.007825032070
           C         -0.013048676546     0.165458040720     0.363384779744    12.000000000000
           H         -0.973220676546     1.941008040720     1.122903779744     1.007825032070
           H         -0.995042676546     0.600440040720     2.235032779744     1.007825032070
           C          1.402880323454     0.547930040720     0.799319779744    12.000000000000
           H         -0.150431676546     0.404547040720    -0.686697220256     1.007825032070
           H         -0.138184676546    -0.912639959280     0.449636779744     1.007825032070
           C          2.486810323454    -0.155591959280    -0.021800220256    12.000000000000
           H          1.518078323454     1.626302040720     0.720184779744     1.007825032070
           H          1.536142323454     0.303134040720     1.852372779744     1.007825032070
           C          1.981991323454    -0.842471959280    -1.295970220256    12.000000000000
           H          2.992944323454    -0.888892959280     0.604133779744     1.007825032070
           H          3.241886323454     0.576435040720    -0.300750220256     1.007825032070
           C          1.045218323454    -2.026969959280    -1.051377220256    12.000000000000
           H          2.841925323454    -1.190261959280    -1.863284220256     1.007825032070
           H          1.480738323454    -0.109582959280    -1.925114220256     1.007825032070
           H          1.515641323454    -2.771075959280    -0.414079220256     1.007825032070
           H          0.784728323454    -2.512065959280    -1.987146220256     1.007825032070
           H          0.119306323454    -1.721473959280    -0.575431220256     1.007825032070

  Charge       = 0
  Multiplicity = 1
  Basis Set: 6-31G*
  Basis Set:

    Orbital Energies (a.u.)
    -----------------------

    Doubly Occupied:

       1A    -20.553896     2A    -11.267589     3A    -11.215235
       4A    -11.211776     5A    -11.211635     6A    -11.210191
       7A    -11.206078     8A    -11.196116     9A     -1.360437
      10A     -1.095495    11A     -1.040897    12A     -0.981060
      13A     -0.927004    14A     -0.848934    15A     -0.806268
      16A     -0.769650    17A     -0.683182    18A     -0.654041
      19A     -0.624288    20A     -0.616521    21A     -0.608323
      22A     -0.586032    23A     -0.560363    24A     -0.538466
      25A     -0.518107    26A     -0.508640    27A     -0.495908
      28A     -0.480330    29A     -0.470371    30A     -0.457758
      31A     -0.442706    32A     -0.421700    33A     -0.418882

  @DF-RHF Final Energy:  -349.20763823559861

   => Energetics <=

    Nuclear Repulsion Energy =            404.2159213211812698
    One-Electron Energy =               -1274.8711445625303895
    Two-Electron Energy =                 521.4475850057502839
    DFT Exchange-Correlation Energy =       0.0000000000000000
    Empirical Dispersion Energy =           0.0000000000000000
    PCM Polarization Energy =               0.0000000000000000
    EFP Energy =                            0.0000000000000000
    Total Energy =                       -349.2076382355988926

  Mulliken Charges: (a.u.)
   Center  Symbol    Alpha    Beta     Spin     Total
       1     H     0.28324  0.28324  0.00000  0.43352
       2     O     4.36849  4.36849  0.00000 -0.73698
       3     C     2.99657  2.99657  0.00000  0.00687
       4     C     3.16465  3.16465  0.00000 -0.32930
       5     H     0.41753  0.41753  0.00000  0.16494
       6     H     0.42797  0.42797  0.00000  0.14405
       7     C     3.16756  3.16756  0.00000 -0.33512
       8     H     0.42991  0.42991  0.00000  0.14018
       9     H     0.42328  0.42328  0.00000  0.15345
      10     C     3.15151  3.15151  0.00000 -0.30302
      11     H     0.40830  0.40830  0.00000  0.18340
      12     H     0.41788  0.41788  0.00000  0.16425
      13     C     3.15582  3.15582  0.00000 -0.31165
      14     H     0.42228  0.42228  0.00000  0.15543
      15     H     0.42200  0.42200  0.00000  0.15600
      16     C     3.15995  3.15995  0.00000 -0.31990
      17     H     0.42235  0.42235  0.00000  0.15530
      18     H     0.42020  0.42020  0.00000  0.15961
      19     C     3.24274  3.24274  0.00000 -0.48548
      20     H     0.41905  0.41905  0.00000  0.16189
      21     H     0.42077  0.42077  0.00000  0.15847
      22     H     0.42502  0.42502  0.00000  0.14995
      23     H     0.42027  0.42027  0.00000  0.15946
      24     H     0.41266  0.41266  0.00000  0.17468

   Total alpha = 33.00000, Total beta = 33.00000, Total charge =  0.00000
