                              Psi4 1.0.54 Driver

  ==> Input File <==

--------------------------------------------------------------------------
set {
	reference rhf
	basis cc-pvtz
}

set_num_threads( 4 )
memory 2 gb

molecule MOL {
0 1

O	 0.608719	 -0.174081	 0.338680
C	 1.704209	 0.119472	 -0.000093
C	 2.136889	 1.481000	 -0.480374
O	 2.715427	 -0.733672	 0.000025
C	 1.014576	 2.508722	 -0.503272
H	 2.951680	 1.802966	 0.159863
H	 2.570503	 1.350440	 -1.466465
C	 1.487393	 3.873819	 -0.994162
H	 0.593880	 2.600597	 0.491638
H	 0.212134	 2.147415	 -1.136388
C	 0.375145	 4.918066	 -1.024559
H	 2.293774	 4.229321	 -0.356495
H	 1.911058	 3.774097	 -1.991058
C	 0.847747	 6.282552	 -1.514700
H	 -0.048088	 5.019184	 -0.029167
H	 -0.430095	 4.564768	 -1.662468
H	 1.630389	 6.678665	 -0.876108
H	 0.034809	 6.999339	 -1.523775
H	 1.244999	 6.220738	 -2.522472
C	 4.020999	 -0.192556	 0.000019
H	 4.182809	 0.412891	 -0.879449
H	 4.692590	 -1.035653	 0.000152
H	 4.182726	 0.413087	 0.879368

	symmetry c1
}
set optking {
	frozen_dihedral = ("
		1 2 4 20
	")
}

ee,wfn = optimize('scf', return_wfn=True)
oeprop( wfn, 'DIPOLE', 'QUADRUPOLE', 'MULLIKEN_CHARGES')
f=open( 'psi4out.xyz', 'w' )
f.write( "23  " )
f.write( str(ee) + "\n" )
f.write( MOL.save_string_xyz() )
f.close()
--------------------------------------------------------------------------

    Molecular point group: c1
  Charge       = 0
  Multiplicity = 1
  Basis Set: CC-PVTZ
  Basis Set:
  @DF-RHF Final Energy:  -423.10644982984854
    Total Energy =                       -423.1064498298482022
    Molecular point group: c1
  Basis Set: CC-PVTZ
  Basis Set:
  Basis Set: CC-PVTZ
  Basis Set:
  @DF-RHF Final Energy:  -423.01120917655282
    Total Energy =                       -423.0112091765530522
  Basis Set: CC-PVTZ
  Basis Set:
  Basis Set: CC-PVTZ
  Basis Set:
  @DF-RHF Final Energy:  -423.09614721494711
    Total Energy =                       -423.0961472149471092
  Basis Set: CC-PVTZ
  Basis Set:
  Basis Set: CC-PVTZ
  Basis Set:
  @DF-RHF Final Energy:  -423.11422423112896
    Total Energy =                       -423.1142242311284463
  Basis Set: CC-PVTZ
  Basis Set:
  @DF-RHF Final Energy:  -423.11522925806332
    Total Energy =                       -423.1152292580633230
  @DF-RHF Final Energy:  -423.08817373770995
    Total Energy =                       -423.0881737377098943
  @DF-RHF Final Energy:  -423.11517392009870
    Total Energy =                       -423.1151739200986412
  @DF-RHF Final Energy:  -423.11578251194601
    Total Energy =                       -423.1157825119460085
  Basis Set: CC-PVTZ
  Basis Set:
  @DF-RHF Final Energy:  -423.11616728820286
    Total Energy =                       -423.1161672882030871
  Basis Set: CC-PVTZ
  Basis Set:
  Basis Set: CC-PVTZ
  Basis Set:
  @DF-RHF Final Energy:  -423.11618787722625
    Total Energy =                       -423.1161878772260252
  Basis Set: CC-PVTZ
  Basis Set:
  Basis Set: CC-PVTZ
  Basis Set:
  @DF-RHF Final Energy:  -423.11618925146394
    Total Energy =                       -423.1161892514636520
  Basis Set: CC-PVTZ
  Basis Set:
  Charge       = 0
  Multiplicity = 1
  Basis Set: CC-PVTZ
  Basis Set:

    Orbital Energies (a.u.)
    -----------------------

    Doubly Occupied:

       1A    -20.593061     2A    -20.529358     3A    -11.366092
       4A    -11.292979     5A    -11.243073     6A    -11.221165
       7A    -11.219744     8A    -11.217288     9A    -11.210256
      10A     -1.465168    11A     -1.367705    12A     -1.097627
      13A     -1.042802    14A     -0.986657    15A     -0.953138
      16A     -0.854934    17A     -0.799723    18A     -0.767357
      19A     -0.701975    20A     -0.690960    21A     -0.675428
      22A     -0.656105    23A     -0.614167    24A     -0.605016
      25A     -0.580629    26A     -0.568390    27A     -0.562926
      28A     -0.538509    29A     -0.519797    30A     -0.510844
      31A     -0.490069    32A     -0.473101    33A     -0.469719
      34A     -0.466554    35A     -0.451043    36A     -0.432558

  @DF-RHF Final Energy:  -423.11618939435436

   => Energetics <=

    Nuclear Repulsion Energy =            455.5862133217184464
    One-Electron Energy =               -1478.9329752446335533
    Two-Electron Energy =                 600.2305725285608560
    DFT Exchange-Correlation Energy =       0.0000000000000000
    Empirical Dispersion Energy =           0.0000000000000000
    PCM Polarization Energy =               0.0000000000000000
    EFP Energy =                            0.0000000000000000
    Total Energy =                       -423.1161893943542509
    Molecular point group: c1
  Basis Set: CC-PVTZ
  Basis Set:

  -Total Gradient:
     Atom            X                  Y                   Z
    ------   -----------------  -----------------  -----------------
       1        0.000889792295     0.001618903950     0.001251847357
       2       -0.001053542947    -0.001669446682    -0.000900650703
       3       -0.000000414135    -0.000008018762     0.000005771379
       4       -0.000160809342    -0.001113844261    -0.001849338227
       5        0.000005679807    -0.000001958353    -0.000003436465
       6        0.000008152090    -0.000000076177     0.000004479603
       7        0.000001469080     0.000000165045    -0.000008110262
       8       -0.000005896746     0.000001949425     0.000005134638
       9       -0.000001396346     0.000000378550     0.000002167133
      10       -0.000001535016     0.000000365939     0.000000980605
      11        0.000005986125    -0.000000596461    -0.000007505411
      12        0.000000901894     0.000000103207    -0.000001537856
      13        0.000001839088    -0.000000865446    -0.000003677074
      14       -0.000010231014     0.000008687883    -0.000000456274
      15       -0.000001797145     0.000001650344     0.000002964732
      16       -0.000001491380    -0.000000034982     0.000001371957
      17        0.000003283599     0.000000353525    -0.000000583235
      18       -0.000001322827     0.000003390530    -0.000005670800
      19        0.000002347783    -0.000002319735    -0.000003158360
      20        0.000323764217     0.001150275878     0.001501083093
      21        0.000005840547    -0.000003566351    -0.000014114961
      22       -0.000001211031    -0.000011295177     0.000011895042
      23       -0.000009408594     0.000025798112     0.000010544092

  **** Optimization is complete! (in 12 steps) ****
    Final optimized geometry and variables:
    Molecular point group: c1

    Geometry (in Angstrom), charge = 0, multiplicity = 1:

    O           -0.783781461298    -1.080118495635     2.047220028700
    C            0.221692544171    -1.169335077304     1.438966835230
    C            0.500802784034    -0.394397550936     0.169559289031
    O            1.163652291184    -2.011192977400     1.866037912499
    C           -0.671436946056     0.472019731343    -0.271263871801
    H            1.383616943653     0.217639736298     0.324052107213
    H            0.762394065502    -1.106981217191    -0.606751278736
    C           -0.372595275829     1.242147302309    -1.554188126616
    H           -0.922137020548     1.162244814451     0.525236018697
    H           -1.544009396840    -0.154931381662    -0.410778010807
    C           -1.537364824290     2.115086456522    -2.012388955355
    H            0.505408038473     1.867656559906    -1.407212510688
    H           -0.117486950741     0.542860212457    -2.347606602068
    C           -1.240276924160     2.885686374140    -3.294266649044
    H           -1.792578319576     2.814717016954    -1.221619505703
    H           -2.414385423866     1.491712368727    -2.161128589297
    H           -0.388124841976     3.545113330413    -3.166582608852
    H           -2.086665323657     3.494063740124    -3.591028728419
    H           -1.014898299142     2.211133456601    -4.113698312416
    C            2.510874480370    -1.904275157517     1.481529380154
    H            2.645499129134    -2.060612571162     0.419600788650
    H            3.034082916135    -2.679523001825     2.017212406071
    H            2.925295615669    -0.944400684521     1.762083384453

  Mulliken Charges: (a.u.)
   Center  Symbol    Alpha    Beta     Spin     Total
       1     O     4.17926  4.17926  0.00000 -0.35852
       2     C     2.80261  2.80261  0.00000  0.39479
       3     C     3.13859  3.13859  0.00000 -0.27718
       4     O     4.13118  4.13118  0.00000 -0.26236
       5     C     3.08268  3.08268  0.00000 -0.16535
       6     H     0.44163  0.44163  0.00000  0.11673
       7     H     0.43869  0.43869  0.00000  0.12262
       8     C     3.08774  3.08774  0.00000 -0.17547
       9     H     0.44346  0.44346  0.00000  0.11309
      10     H     0.44349  0.44349  0.00000  0.11302
      11     C     3.08524  3.08524  0.00000 -0.17048
      12     H     0.45668  0.45668  0.00000  0.08664
      13     H     0.45630  0.45630  0.00000  0.08739
      14     C     3.15019  3.15019  0.00000 -0.30037
      15     H     0.45250  0.45250  0.00000  0.09501
      16     H     0.45235  0.45235  0.00000  0.09530
      17     H     0.45551  0.45551  0.00000  0.08897
      18     H     0.44713  0.44713  0.00000  0.10574
      19     H     0.45538  0.45538  0.00000  0.08923
      20     C     3.04642  3.04642  0.00000 -0.09284
      21     H     0.46094  0.46094  0.00000  0.07811
      22     H     0.43304  0.43304  0.00000  0.13391
      23     H     0.45899  0.45899  0.00000  0.08202

   Total alpha = 36.00000, Total beta = 36.00000, Total charge = -0.00000

*** Psi4 exiting successfully. Buy a developer a beer!
