  ==> Input File <==

--------------------------------------------------------------------------
set {
	reference rhf
	basis cc-pvtz
}

set_num_threads( 4 )
memory 2 gb

molecule MOL {
0 1

O	 1.641424	 -0.252270	 0.712297
C	 0.860843	 0.273204	 -0.013120
C	 -0.623368	 -0.117453	 -0.005652
C	 1.332444	 1.347260	 -0.973338
C	 -0.892588	 -1.253841	 -1.002900
C	 -1.473463	 1.100646	 -0.372896
C	 -0.981836	 -0.579025	 1.418506
H	 -0.609333	 -0.970024	 -2.010649
H	 -1.950451	 -1.487353	 -1.013175
H	 -0.360848	 -2.161259	 -0.746463
H	 -1.232203	 1.461623	 -1.364827
H	 -2.524364	 0.834451	 -0.354500
H	 -1.312381	 1.914833	 0.318657
H	 -2.035706	 -0.826342	 1.468082
H	 -0.425078	 -1.458934	 1.716857
H	 -0.788494	 0.205047	 2.140903
H	 1.074297	 2.321256	 -0.572769
H	 2.405770	 1.283719	 -1.065007
H	 0.872524	 1.263451	 -1.948367

	symmetry c1
}
set optking {
	frozen_dihedral = ("
		1 2 3 5
	")
}

ee = optimize('scf')
oeprop('DIPOLE', 'QUADRUPOLE', 'MULLIKEN_CHARGES')
f=open( 'psi4out.xyz', 'w' )
f.write( "19  " )
f.write( str(ee) + "\n" )
f.write( MOL.save_string_xyz() )
f.close()
--------------------------------------------------------------------------

    Molecular point group: c1
  Charge       = 0
  Multiplicity = 1
  Basis Set: CC-PVTZ
  Basis Set:
  @DF-RHF Final Energy:  -309.17217270060740
    Total Energy =                       -309.1721727006075753
    Molecular point group: c1
  Basis Set: CC-PVTZ
  Basis Set:
  Basis Set: CC-PVTZ
  Basis Set:
  @DF-RHF Final Energy:  -309.17237410099386
    Total Energy =                       -309.1723741009938067
  Basis Set: CC-PVTZ
  Basis Set:
  Basis Set: CC-PVTZ
  Basis Set:
  @DF-RHF Final Energy:  -309.17346966705526
    Total Energy =                       -309.1734696670550306
  Basis Set: CC-PVTZ
  Basis Set:
  Basis Set: CC-PVTZ
  Basis Set:
  @DF-RHF Final Energy:  -309.17388870765200
    Total Energy =                       -309.1738887076521110
  Basis Set: CC-PVTZ
  Basis Set:
  @DF-RHF Final Energy:  -309.17371480066333
    Total Energy =                       -309.1737148006635039
  Basis Set: CC-PVTZ
  Basis Set:
  @DF-RHF Final Energy:  -309.17396803742031
    Total Energy =                       -309.1739680374206500
  Basis Set: CC-PVTZ
  Basis Set:
  Basis Set: CC-PVTZ
  Basis Set:
  @DF-RHF Final Energy:  -309.17400859963186
    Total Energy =                       -309.1740085996320317
  Basis Set: CC-PVTZ
  Basis Set:
  Basis Set: CC-PVTZ
  Basis Set:
  @DF-RHF Final Energy:  -309.17401320891162
    Total Energy =                       -309.1740132089114468
  Basis Set: CC-PVTZ
  Basis Set:
  Charge       = 0
  Multiplicity = 1
  Basis Set: CC-PVTZ
  Basis Set:

    Orbital Energies (a.u.)
    -----------------------

    Doubly Occupied:

       1A    -20.537010     2A    -11.318051     3A    -11.245649
       4A    -11.225567     5A    -11.221400     6A    -11.221103
       7A    -11.207604     8A     -1.398350     9A     -1.110423
      10A     -1.003791    11A     -0.946837    12A     -0.936543
      13A     -0.835181    14A     -0.705549    15A     -0.666786
      16A     -0.634145    17A     -0.622672    18A     -0.595600
      19A     -0.590696    20A     -0.568223    21A     -0.547398
      22A     -0.546827    23A     -0.525366    24A     -0.514118
      25A     -0.502845    26A     -0.473248    27A     -0.465936
      28A     -0.394215

  @DF-RHF Final Energy:  -309.17401393623243

   => Energetics <=

    Nuclear Repulsion Energy =            326.9278756279426261
    One-Electron Energy =               -1067.0815082257759059
    Two-Electron Energy =                 430.9796186616010800
    DFT Exchange-Correlation Energy =       0.0000000000000000
    Empirical Dispersion Energy =           0.0000000000000000
    PCM Polarization Energy =               0.0000000000000000
    EFP Energy =                            0.0000000000000000
    Total Energy =                       -309.1740139362321997
    Molecular point group: c1
  Basis Set: CC-PVTZ
  Basis Set:

  -Total Gradient:
     Atom            X                  Y                   Z
    ------   -----------------  -----------------  -----------------
       1        0.000163070446    -0.000758334504    -0.000758490519
       2       -0.000195695498     0.000942674660     0.001239898639
       3       -0.000095516174     0.000359277929    -0.001004350448
       4        0.000006658821    -0.000042722119    -0.000058145564
       5        0.000125079872    -0.000525609366     0.000535387398
       6       -0.000005286883    -0.000017964615     0.000004838994
       7        0.000005705650     0.000003552625     0.000004528795
       8        0.000010576373    -0.000005320619     0.000000107451
       9       -0.000004200560     0.000006717987    -0.000009764151
      10       -0.000007909615     0.000004679794     0.000007228620
      11        0.000004177631    -0.000000689333     0.000008104091
      12       -0.000004166908    -0.000001936429    -0.000005876514
      13        0.000000418762    -0.000006540210     0.000000362809
      14       -0.000003422843    -0.000001804519     0.000001879344
      15        0.000000021749     0.000004138529    -0.000005723122
      16       -0.000002927001     0.000002321298     0.000001220276
      17        0.000015659278     0.000016322759     0.000025228718
      18       -0.000003820800    -0.000003149278    -0.000004046059
      19       -0.000008422303     0.000024385412     0.000017611243

  **** Optimization is complete! (in 9 steps) ****
    Final optimized geometry and variables:
    Molecular point group: c1

    Geometry (in Angstrom), charge = 0, multiplicity = 1:

    O            1.652525831346    -0.369107877280     0.733989121435
    C            0.883925314022     0.191317220454     0.021794039795
    C           -0.613281329717    -0.152047268172     0.054582280275
    C            1.385288244067     1.218126383799    -0.972069701279
    C           -0.828276039852    -1.277376222066    -0.974060429122
    C           -1.493271887958     1.053013287127    -0.300464241062
    C           -0.984352479614    -0.662693683585     1.450137144070
    H           -0.564525909438    -0.964394429823    -1.978269889798
    H           -1.871269651832    -1.571659136254    -0.985584443330
    H           -0.233320891928    -2.146315501547    -0.723396962743
    H           -1.317125216058     1.411922057448    -1.306386832343
    H           -2.537543849756     0.772477664563    -0.233721880833
    H           -1.332683355115     1.878033070324     0.384896467388
    H           -2.029632912351    -0.949857942783     1.471711135903
    H           -0.385136283282    -1.517223488913     1.726120294829
    H           -0.831146813558     0.104399132208     2.200316329261
    H            1.064465261231     2.209498575361    -0.673851951151
    H            2.463492051719     1.185309041238    -0.992063701897
    H            0.993531859979     1.036249253884    -1.964828563346

  Mulliken Charges: (a.u.)
   Center  Symbol    Alpha    Beta     Spin     Total
       1     O     4.17825  4.17825  0.00000 -0.35650
       2     C     2.85016  2.85016  0.00000  0.29969
       3     C     3.00732  3.00732  0.00000 -0.01465
       4     C     3.16445  3.16445  0.00000 -0.32890
       5     C     3.15597  3.15597  0.00000 -0.31193
       6     C     3.16489  3.16489  0.00000 -0.32978
       7     C     3.15176  3.15176  0.00000 -0.30351
       8     H     0.44731  0.44731  0.00000  0.10538
       9     H     0.44669  0.44669  0.00000  0.10662
      10     H     0.43985  0.43985  0.00000  0.12029
      11     H     0.44566  0.44566  0.00000  0.10868
      12     H     0.44263  0.44263  0.00000  0.11475
      13     H     0.44392  0.44392  0.00000  0.11215
      14     H     0.45167  0.45167  0.00000  0.09665
      15     H     0.43631  0.43631  0.00000  0.12737
      16     H     0.44891  0.44891  0.00000  0.10217
      17     H     0.44612  0.44612  0.00000  0.10776
      18     H     0.43177  0.43177  0.00000  0.13647
      19     H     0.44636  0.44636  0.00000  0.10728

   Total alpha = 28.00000, Total beta = 28.00000, Total charge = -0.00000
