  ==> Input File <==

--------------------------------------------------------------------------
set {
	reference rhf
	basis 6-31G*
}

set_num_threads( 1 )
memory 2 gb

molecule MOL {
0 1

H	 1.615980	 -1.714210	 -0.156864
O	 2.016064	 -0.864478	 0.000222
C	 1.050492	 0.053836	 0.000068
C	 -0.318135	 -0.576402	 0.000164
O	 1.285279	 1.218255	 -0.000078
C	 -1.454360	 0.441875	 -0.000474
H	 -0.374042	 -1.230163	 -0.866135
H	 -0.374274	 -1.229227	 0.867154
C	 -2.826123	 -0.230780	 0.000056
H	 -1.357605	 1.085198	 -0.868380
H	 -1.357504	 1.086451	 0.866496
H	 -2.959731	 -0.858053	 -0.876869
H	 -3.619374	 0.509403	 -0.000080
H	 -2.959371	 -0.857318	 0.877556

	symmetry c1
}
set optking {
	frozen_dihedral = ("
		7 4 6 10,
		2 3 4 7
	")
}

ee = energy('scf')
oeprop('DIPOLE', 'QUADRUPOLE', 'MULLIKEN_CHARGES')
f=open( 'psi4out.xyz', 'w' )
f.write( "14  " )
f.write( str(ee) + "\n" )
f.write( MOL.save_string_xyz() )
f.close()
--------------------------------------------------------------------------

    Molecular point group: c1

    Geometry (in Angstrom), charge = 0, multiplicity = 1:

       Center              X                  Y                   Z               Mass
    ------------   -----------------  -----------------  -----------------  -----------------
           H          1.630151429332    -1.699309330397    -0.155066432143     1.007825032070
           O          2.030235429332    -0.849577330397     0.002019567857    15.994914619560
           C          1.064663429332     0.068736669603     0.001865567857    12.000000000000
           C         -0.303963570668    -0.561501330397     0.001961567857    12.000000000000
           O          1.299450429332     1.233155669603     0.001719567857    15.994914619560
           C         -1.440188570668     0.456775669603     0.001323567857    12.000000000000
           H         -0.359870570668    -1.215262330397    -0.864337432143     1.007825032070
           H         -0.360102570668    -1.214326330397     0.868951567857     1.007825032070
           C         -2.811951570668    -0.215879330397     0.001853567857    12.000000000000
           H         -1.343433570668     1.100098669603    -0.866582432143     1.007825032070
           H         -1.343332570668     1.101351669603     0.868293567857     1.007825032070
           H         -2.945559570668    -0.843152330397    -0.875071432143     1.007825032070
           H         -3.605202570668     0.524303669603     0.001717567857     1.007825032070
           H         -2.945199570668    -0.842417330397     0.879353567857     1.007825032070

  Charge       = 0
  Multiplicity = 1
  Basis Set: 6-31G*
  Basis Set:

    Orbital Energies (a.u.)
    -----------------------

    Doubly Occupied:

       1A    -20.615797     2A    -20.549720     3A    -11.381687
       4A    -11.253754     5A    -11.232927     6A    -11.223218
       7A     -1.471582     8A     -1.371165     9A     -1.090752
      10A     -0.981948    11A     -0.851743    12A     -0.820205
      13A     -0.721752    14A     -0.675884    15A     -0.661225
      16A     -0.619867    17A     -0.596230    18A     -0.584872
      19A     -0.554376    20A     -0.510014    21A     -0.498136
      22A     -0.490594    23A     -0.475939    24A     -0.440926

  @DF-RHF Final Energy:  -305.86789917795011

   => Energetics <=

    Nuclear Repulsion Energy =            240.4256371358654576
    One-Electron Energy =                -893.2384541998717395
    Two-Electron Energy =                 346.9449178860563734
    DFT Exchange-Correlation Energy =       0.0000000000000000
    Empirical Dispersion Energy =           0.0000000000000000
    PCM Polarization Energy =               0.0000000000000000
    EFP Energy =                            0.0000000000000000
    Total Energy =                       -305.8678991779498801

  Mulliken Charges: (a.u.)
   Center  Symbol    Alpha    Beta     Spin     Total
       1     H     0.26728  0.26728  0.00000  0.46544
       2     O     4.34890  4.34890  0.00000 -0.69780
       3     C     2.60174  2.60174  0.00000  0.79651
       4     C     3.24295  3.24295  0.00000 -0.48590
       5     O     4.26871  4.26871  0.00000 -0.53742
       6     C     3.15097  3.15097  0.00000 -0.30193
       7     H     0.40649  0.40649  0.00000  0.18701
       8     H     0.40099  0.40099  0.00000  0.19801
       9     C     3.24375  3.24375  0.00000 -0.48750
      10     H     0.40696  0.40696  0.00000  0.18609
      11     H     0.40633  0.40633  0.00000  0.18734
      12     H     0.42140  0.42140  0.00000  0.15720
      13     H     0.41251  0.41251  0.00000  0.17498
      14     H     0.42101  0.42101  0.00000  0.15797

   Total alpha = 24.00000, Total beta = 24.00000, Total charge = -0.00000
