  ==> Input File <==

--------------------------------------------------------------------------
set {
	reference rhf
	basis 6-31G*
}

set_num_threads( 4 )
memory 2 gb

molecule MOL {
0 1

H	 3.276176	 0.174363	 -0.109463
N	 2.434251	 -0.367735	 -0.081097
C	 1.267428	 0.496480	 0.024474
H	 2.501951	 -0.965776	 0.720575
C	 -0.016086	 -0.325158	 -0.029487
H	 1.288818	 1.183521	 -0.816092
H	 1.267576	 1.109062	 0.929528
C	 -1.282277	 0.529072	 0.046735
H	 -0.012495	 -0.908639	 -0.945788
H	 -0.015903	 -1.041248	 0.791956
C	 -2.099067	 0.497772	 -1.244612
H	 -1.009872	 1.557600	 0.274581
H	 -1.902657	 0.187750	 0.872921
H	 -1.517456	 0.866688	 -2.084463
H	 -2.989397	 1.113454	 -1.162333
H	 -2.416871	 -0.513425	 -1.482732

	symmetry c1
}
set optking {
	frozen_dihedral = ("
		12 8 5 9
	")
}

ee = optimize('scf')
oeprop('DIPOLE', 'QUADRUPOLE', 'MULLIKEN_CHARGES')
f=open( 'psi4out.xyz', 'w' )
f.write( "16  " )
f.write( str(ee) + "\n" )
f.write( MOL.save_string_xyz() )
f.close()
--------------------------------------------------------------------------

    Molecular point group: c1
  Charge       = 0
  Multiplicity = 1
  Basis Set: 6-31G*
  Basis Set:
  @DF-RHF Final Energy:  -212.31159626578795
    Total Energy =                       -212.3115962657877276
    Molecular point group: c1
  Basis Set: 6-31G*
  Basis Set:
  Basis Set: 6-31G*
  Basis Set:
  @DF-RHF Final Energy:  -212.31184561110044
    Total Energy =                       -212.3118456111004662
  Basis Set: 6-31G*
  Basis Set:
  Basis Set: 6-31G*
  Basis Set:
  @DF-RHF Final Energy:  -212.31192537921430
    Total Energy =                       -212.3119253792143581
  Basis Set: 6-31G*
  Basis Set:
  Charge       = 0
  Multiplicity = 1
  Basis Set: 6-31G*
  Basis Set:

    Orbital Energies (a.u.)
    -----------------------

    Doubly Occupied:

       1A    -15.532630     2A    -11.240339     3A    -11.214806
       4A    -11.209305     5A    -11.207371     6A     -1.176914
       7A     -1.056545     8A     -0.957141     9A     -0.846648
      10A     -0.789979    11A     -0.662090    12A     -0.622933
      13A     -0.620600    14A     -0.583714    15A     -0.552381
      16A     -0.525605    17A     -0.504044    18A     -0.470406
      19A     -0.462131    20A     -0.455883    21A     -0.381321

  @DF-RHF Final Energy:  -212.31192585221683

   => Energetics <=

    Nuclear Repulsion Energy =            187.0392668310209672
    One-Electron Energy =                -656.5568123750831546
    Two-Electron Energy =                 257.2056196918455271
    DFT Exchange-Correlation Energy =       0.0000000000000000
    Empirical Dispersion Energy =           0.0000000000000000
    PCM Polarization Energy =               0.0000000000000000
    EFP Energy =                            0.0000000000000000
    Total Energy =                       -212.3119258522166319
    Molecular point group: c1
  Basis Set: 6-31G*
  Basis Set:

  -Total Gradient:
     Atom            X                  Y                   Z
    ------   -----------------  -----------------  -----------------
       1        0.000036235373    -0.000016694141    -0.000013019363
       2        0.000052822956    -0.000002091860    -0.000067453551
       3       -0.000061421212    -0.000024050837     0.000144250832
       4       -0.000013921298     0.000018530608     0.000000450891
       5       -0.000785683099    -0.001106443404     0.000443080028
       6       -0.000003008422    -0.000011635219     0.000017878780
       7        0.000017573885     0.000024263544     0.000004466539
       8       -0.000004420062    -0.000108909709     0.001398180127
       9        0.000609032678     0.000972514042    -0.000643289631
      10       -0.000000128105     0.000034139648     0.000003734974
      11        0.000007890296    -0.000020503767     0.000021456977
      12        0.000139292961     0.000259121783    -0.001312706263
      13        0.000012142954    -0.000023737081    -0.000000431645
      14        0.000002868506    -0.000017231475     0.000004505987
      15        0.000002668007     0.000018219282     0.000000054665
      16       -0.000011945417     0.000004508584    -0.000001159348

  **** Optimization is complete! (in 4 steps) ****
    Final optimized geometry and variables:
    Molecular point group: c1

    Geometry (in Angstrom), charge = 0, multiplicity = 1:

    H            3.178452106404     0.024343718198     0.111384026353
    N            2.340398218235    -0.523332350299     0.147153811791
    C            1.170342535151     0.329613769623     0.289712623841
    H            2.427500979672    -1.135305290286     0.936362890154
    C           -0.110175089606    -0.500530129381     0.251264810906
    H            1.167205485884     1.028751506623    -0.541626528002
    H            1.183541268191     0.930101033447     1.202742795428
    C           -1.389990666111     0.361607688210     0.306072786396
    H           -0.089383391614    -1.092243726760    -0.658417266435
    H           -0.094248078303    -1.206643524902     1.078395532044
    C           -2.186824004325     0.338613068674    -0.999591493536
    H           -1.126687184774     1.392991824247     0.529898480642
    H           -2.031091887500     0.031981443154     1.117984825162
    H           -1.580690421793     0.682418967764    -1.833230854304
    H           -3.061648363725     0.979112848491    -0.939144226717
    H           -2.525975759903    -0.666482596275    -1.232673481082

  Mulliken Charges: (a.u.)
   Center  Symbol    Alpha    Beta     Spin     Total
       1     H     0.33239  0.33239  0.00000  0.33523
       2     N     3.92201  3.92201  0.00000 -0.84402
       3     C     3.06289  3.06289  0.00000 -0.12577
       4     H     0.33529  0.33529  0.00000  0.32942
       5     C     3.15500  3.15500  0.00000 -0.31000
       6     H     0.42106  0.42106  0.00000  0.15788
       7     H     0.43416  0.43416  0.00000  0.13168
       8     C     3.15933  3.15933  0.00000 -0.31865
       9     H     0.40993  0.40993  0.00000  0.18013
      10     H     0.42486  0.42486  0.00000  0.15028
      11     C     3.23909  3.23909  0.00000 -0.47818
      12     H     0.42152  0.42152  0.00000  0.15697
      13     H     0.41964  0.41964  0.00000  0.16071
      14     H     0.42114  0.42114  0.00000  0.15771
      15     H     0.42114  0.42114  0.00000  0.15771
      16     H     0.42056  0.42056  0.00000  0.15888

   Total alpha = 21.00000, Total beta = 21.00000, Total charge = -0.00000
