  ==> Input File <==

--------------------------------------------------------------------------
set {
	reference rhf
	basis 6-31G*
}

set_num_threads( 4 )
memory 2 gb

molecule MOL {
0 1

O	 3.225979	 0.970355	 -0.599647
C	 2.701189	 0.057885	 -0.047330
C	 1.245376	 -0.013843	 0.345420
O	 3.347903	 -1.046386	 0.304773
C	 0.455112	 1.231400	 -0.050772
H	 0.838542	 -0.913825	 -0.103701
H	 1.208210	 -0.175333	 1.419774
C	 -0.998893	 1.219485	 0.433193
H	 0.482531	 1.345121	 -1.130325
H	 0.957290	 2.103070	 0.354729
C	 -1.883438	 0.145884	 -0.207175
H	 -1.431207	 2.195402	 0.224832
H	 -1.019646	 1.105716	 1.516076
C	 -3.347647	 0.245583	 0.225435
H	 -1.822183	 0.231698	 -1.291012
H	 -1.510341	 -0.844814	 0.042401
C	 -4.197466	 1.111140	 -0.706633
H	 -3.397755	 0.649933	 1.235001
H	 -3.776807	 -0.753858	 0.276806
C	 -5.657453	 1.208658	 -0.265465
H	 -3.769440	 2.109938	 -0.759908
H	 -4.152143	 0.706031	 -1.715401
H	 -6.233776	 1.828254	 -0.945583
H	 -5.738906	 1.642950	 0.726982
H	 -6.124279	 0.228129	 -0.235313
C	 4.728119	 -1.109107	 -0.004993
H	 4.882018	 -1.033965	 -1.071845
H	 5.068212	 -2.067527	 0.355250
H	 5.265056	 -0.311663	 0.488280

	symmetry c1
}
set optking {
	frozen_dihedral = ("
		17 14 11 15
	")
}

ee = optimize('scf')
oeprop('DIPOLE', 'QUADRUPOLE', 'MULLIKEN_CHARGES')
f=open( 'psi4out.xyz', 'w' )
f.write( "29  " )
f.write( str(ee) + "\n" )
f.write( MOL.save_string_xyz() )
f.close()
--------------------------------------------------------------------------

    Molecular point group: c1
  Charge       = 0
  Multiplicity = 1
  Basis Set: 6-31G*
  Basis Set:
  @DF-RHF Final Energy:  -501.04060136262490
    Total Energy =                       -501.0406013626250115
    Molecular point group: c1
  Basis Set: 6-31G*
  Basis Set:
  Basis Set: 6-31G*
  Basis Set:
  @DF-RHF Final Energy:  -501.04077911903369
    Total Energy =                       -501.0407791190339140
  Basis Set: 6-31G*
  Basis Set:
  Basis Set: 6-31G*
  Basis Set:
  @DF-RHF Final Energy:  -501.04083206101802
    Total Energy =                       -501.0408320610179089
  Basis Set: 6-31G*
  Basis Set:
  Basis Set: 6-31G*
  Basis Set:
  @DF-RHF Final Energy:  -501.04085270219855
    Total Energy =                       -501.0408527021983218
  Basis Set: 6-31G*
  Basis Set:
  Basis Set: 6-31G*
  Basis Set:
  @DF-RHF Final Energy:  -501.04086768867580
    Total Energy =                       -501.0408676886759167
  Basis Set: 6-31G*
  Basis Set:
  Basis Set: 6-31G*
  Basis Set:
  @DF-RHF Final Energy:  -501.04085621717127
    Total Energy =                       -501.0408562171708127
  Basis Set: 6-31G*
  Basis Set:
  Basis Set: 6-31G*
  Basis Set:
  @DF-RHF Final Energy:  -501.04087263004908
    Total Energy =                       -501.0408726300495346
  Basis Set: 6-31G*
  Basis Set:
  Charge       = 0
  Multiplicity = 1
  Basis Set: 6-31G*
  Basis Set:

    Orbital Energies (a.u.)
    -----------------------

    Doubly Occupied:

       1A    -20.603335     2A    -20.545157     3A    -11.371965
       4A    -11.280635     5A    -11.234704     6A    -11.218880
       7A    -11.217489     8A    -11.215976     9A    -11.215762
      10A    -11.214384    11A    -11.208781    12A     -1.469029
      13A     -1.362471    14A     -1.097691    15A     -1.065906
      16A     -1.018174    17A     -0.976639    18A     -0.928223
      19A     -0.862175    20A     -0.807321    21A     -0.783905
      22A     -0.763606    23A     -0.700928    24A     -0.682191
      25A     -0.671853    26A     -0.637467    27A     -0.627834
      28A     -0.615955    29A     -0.595871    30A     -0.579868
      31A     -0.561110    32A     -0.556547    33A     -0.537235
      34A     -0.527813    35A     -0.522427    36A     -0.500974
      37A     -0.495148    38A     -0.481904    39A     -0.472469
      40A     -0.462758    41A     -0.455933    42A     -0.445840
      43A     -0.443773    44A     -0.436756

  @DF-RHF Final Energy:  -501.04087269028253

   => Energetics <=

    Nuclear Repulsion Energy =            612.3430104442494439
    One-Electron Energy =               -1895.8180370330828737
    Two-Electron Energy =                 782.4341538985509032
    DFT Exchange-Correlation Energy =       0.0000000000000000
    Empirical Dispersion Energy =           0.0000000000000000
    PCM Polarization Energy =               0.0000000000000000
    EFP Energy =                            0.0000000000000000
    Total Energy =                       -501.0408726902824128
    Molecular point group: c1
  Basis Set: 6-31G*
  Basis Set:

  -Total Gradient:
     Atom            X                  Y                   Z
    ------   -----------------  -----------------  -----------------
       1       -0.000006035918    -0.000004576611    -0.000013714296
       2        0.000009824252     0.000019619717     0.000040845159
       3       -0.000006083516    -0.000004936280    -0.000007694587
       4       -0.000001769078    -0.000005799518    -0.000010012564
       5       -0.000010569437    -0.000004793191    -0.000000792464
       6       -0.000004519320     0.000000196173    -0.000001643617
       7        0.000001692754    -0.000001721662    -0.000000532028
       8        0.000023238564     0.000010684783     0.000014921442
       9       -0.000005867248    -0.000004972132     0.000000792655
      10       -0.000007287382     0.000006411622     0.000000760476
      11       -0.000544715479    -0.004452931198    -0.000807432536
      12        0.000022945489     0.000006668559     0.000002469843
      13       -0.000002942502     0.000011568866     0.000007279985
      14        0.000691447427     0.003191797109     0.001780114097
      15        0.000305145611     0.002991421030     0.000211895103
      16        0.000006420940     0.000022804902     0.000003548656
      17       -0.000479833987    -0.001779489902    -0.001229024687
      18       -0.000011508266    -0.000017349265     0.000014927210
      19        0.000004058958     0.000014444577    -0.000010963219
      20        0.000018439623    -0.000002124589     0.000012390440
      21       -0.000001950938     0.000007569089    -0.000014641071
      22       -0.000011959750    -0.000002247366     0.000004301137
      23        0.000013719825    -0.000004042916    -0.000002175264
      24       -0.000004655562     0.000005438679     0.000003562562
      25        0.000002182792    -0.000002378502     0.000001347241
      26        0.000000407897    -0.000001122650    -0.000000310243
      27        0.000000514494    -0.000000071835     0.000000010422
      28        0.000000165234    -0.000000058526    -0.000000234068
      29       -0.000000505493    -0.000000008963     0.000000004213

  **** Optimization is complete! (in 8 steps) ****
    Final optimized geometry and variables:
    Molecular point group: c1

    Geometry (in Angstrom), charge = 0, multiplicity = 1:

    O            3.205950894010     0.634585226785    -0.541717420011
    C            2.691537005982    -0.288367374694     0.002896046214
    C            1.238730062302    -0.375968632016     0.403447143222
    O            3.348763451754    -1.391796385363     0.337769808862
    C            0.436421158464     0.867697125281     0.026797671448
    H            0.835979100972    -1.273586213012    -0.054081988085
    H            1.209267340609    -0.550630218341     1.475988908396
    C           -1.012962157762     0.839334825313     0.522721851369
    H            0.453864442726     0.992276495041    -1.051820269087
    H            0.935710604023     1.738974252659     0.436771261841
    C           -1.890488576774    -0.249660949170    -0.107764689101
    H           -1.456357171893     1.811016195094     0.318643514357
    H           -1.023651588589     0.725272172535     1.605661055754
    C           -3.373171719161    -0.124672633302     0.285530039930
    H           -1.797870151994    -0.176440917449    -1.189856576554
    H           -1.519394380043    -1.229592044811     0.176136450612
    C           -4.193295320528     0.741665318757    -0.674412396752
    H           -3.451496548716     0.271262157890     1.296123536090
    H           -3.824437982785    -1.113924220261     0.316364883691
    C           -5.648565759416     0.901422263422    -0.236676802570
    H           -3.736890807795     1.724893302368    -0.767473745347
    H           -4.160960118569     0.296140892421    -1.666020921336
    H           -6.208639884964     1.504741293048    -0.944429938395
    H           -5.715457596230     1.383483695606     0.734581969724
    H           -6.142922905364    -0.063097935821    -0.160386658970
    C            4.727470835803    -1.440274672870     0.018881827509
    H            4.874214763797    -1.351238767943    -1.047914996184
    H            5.077004341363    -2.400296648924     0.365551493483
    H            5.261393333146    -0.644697610809     0.518403798432

  Mulliken Charges: (a.u.)
   Center  Symbol    Alpha    Beta     Spin     Total
       1     O     4.28597  4.28597  0.00000 -0.57193
       2     C     2.60481  2.60481  0.00000  0.79038
       3     C     3.20977  3.20977  0.00000 -0.41954
       4     O     4.30745  4.30745  0.00000 -0.61490
       5     C     3.15389  3.15389  0.00000 -0.30778
       6     H     0.39886  0.39886  0.00000  0.20228
       7     H     0.40124  0.40124  0.00000  0.19751
       8     C     3.15818  3.15818  0.00000 -0.31637
       9     H     0.41320  0.41320  0.00000  0.17361
      10     H     0.40883  0.40883  0.00000  0.18233
      11     C     3.15782  3.15782  0.00000 -0.31564
      12     H     0.41773  0.41773  0.00000  0.16454
      13     H     0.42367  0.42367  0.00000  0.15267
      14     C     3.15356  3.15356  0.00000 -0.30712
      15     H     0.42171  0.42171  0.00000  0.15658
      16     H     0.42052  0.42052  0.00000  0.15896
      17     C     3.15292  3.15292  0.00000 -0.30583
      18     H     0.42240  0.42240  0.00000  0.15521
      19     H     0.42153  0.42153  0.00000  0.15693
      20     C     3.23958  3.23958  0.00000 -0.47917
      21     H     0.42242  0.42242  0.00000  0.15517
      22     H     0.42224  0.42224  0.00000  0.15551
      23     H     0.41909  0.41909  0.00000  0.16182
      24     H     0.42160  0.42160  0.00000  0.15681
      25     H     0.42188  0.42188  0.00000  0.15624
      26     C     3.09240  3.09240  0.00000 -0.18479
      27     H     0.40909  0.40909  0.00000  0.18182
      28     H     0.40852  0.40852  0.00000  0.18296
      29     H     0.40913  0.40913  0.00000  0.18174

   Total alpha = 44.00000, Total beta = 44.00000, Total charge = -0.00000
