  ==> Input File <==

--------------------------------------------------------------------------
set {
	reference rhf
	basis 6-31G*
}

set_num_threads( 4 )
memory 2 gb

molecule MOL {
0 1

H	 2.384862	 3.083990	 0.395444
O	 1.438868	 3.047716	 0.415122
C	 0.998035	 1.787922	 0.207814
C	 1.863297	 0.721740	 -0.001662
C	 -0.370060	 1.578764	 0.208979
H	 2.927643	 0.886673	 -0.002183
C	 1.360468	 -0.551673	 -0.209638
H	 -1.039507	 2.401428	 0.370661
C	 -0.865228	 0.300799	 0.000000
H	 2.039901	 -1.368880	 -0.370644
C	 -0.005377	 -0.769847	 -0.210105
C	 -2.333960	 0.069074	 0.000000
H	 -0.398119	 -1.758142	 -0.371447
O	 -2.847347	 -1.003763	 0.000000
H	 -2.943845	 0.977528	 0.000000

	symmetry c1
}
set optking {
	frozen_dihedral = ("
		11 9 12 14
	")
}

ee = optimize('scf')
oeprop('DIPOLE', 'QUADRUPOLE', 'MULLIKEN_CHARGES')
f=open( 'psi4out.xyz', 'w' )
f.write( "15  " )
f.write( str(ee) + "\n" )
f.write( MOL.save_string_xyz() )
f.close()
--------------------------------------------------------------------------

    Molecular point group: c1
  Charge       = 0
  Multiplicity = 1
  Basis Set: 6-31G*
  Basis Set:
  @DF-RHF Final Energy:  -418.28602620202190
    Total Energy =                       -418.2860262020221853
    Molecular point group: c1
  Basis Set: 6-31G*
  Basis Set:
  Basis Set: 6-31G*
  Basis Set:
  @DF-RHF Final Energy:  -418.28583495923857
    Total Energy =                       -418.2858349592388549
  Basis Set: 6-31G*
  Basis Set:
  Basis Set: 6-31G*
  Basis Set:
  @DF-RHF Final Energy:  -418.28598024756434
    Total Energy =                       -418.2859802475649076
  Basis Set: 6-31G*
  Basis Set:
  Basis Set: 6-31G*
  Basis Set:
  @DF-RHF Final Energy:  -418.28627135888678
    Total Energy =                       -418.2862713588862107
  Basis Set: 6-31G*
  Basis Set:
  Basis Set: 6-31G*
  Basis Set:
  @DF-RHF Final Energy:  -418.28627551449603
    Total Energy =                       -418.2862755144960829
  Basis Set: 6-31G*
  Basis Set:
  Charge       = 0
  Multiplicity = 1
  Basis Set: 6-31G*
  Basis Set:

    Orbital Energies (a.u.)
    -----------------------

    Doubly Occupied:

       1A    -20.604685     2A    -20.564941     3A    -11.332758
       4A    -11.314661     5A    -11.252283     6A    -11.251055
       7A    -11.248881     8A    -11.247064     9A    -11.239059
      10A     -1.423995    11A     -1.405408    12A     -1.169394
      13A     -1.050887    14A     -1.024655    15A     -0.901450
      16A     -0.846024    17A     -0.813415    18A     -0.737818
      19A     -0.701379    20A     -0.673735    21A     -0.661535
      22A     -0.627606    23A     -0.610798    24A     -0.604230
      25A     -0.577345    26A     -0.550133    27A     -0.537683
      28A     -0.516310    29A     -0.485546    30A     -0.423592
      31A     -0.356027    32A     -0.324490

  @DF-RHF Final Energy:  -418.28627654873304

   => Energetics <=

    Nuclear Repulsion Energy =            402.3161549538526174
    One-Electron Energy =               -1367.0471780489808680
    Two-Electron Energy =                 546.4447465463949811
    DFT Exchange-Correlation Energy =       0.0000000000000000
    Empirical Dispersion Energy =           0.0000000000000000
    PCM Polarization Energy =               0.0000000000000000
    EFP Energy =                            0.0000000000000000
    Total Energy =                       -418.2862765487332126
    Molecular point group: c1
  Basis Set: 6-31G*
  Basis Set:

  -Total Gradient:
     Atom            X                  Y                   Z
    ------   -----------------  -----------------  -----------------
       1       -0.000000142274     0.000000020871     0.000001162229
       2       -0.000000215258    -0.000022770348     0.000013288021
       3       -0.000027053813     0.000040496095    -0.000043527201
       4        0.000003847060    -0.000020392527    -0.000029413319
       5       -0.000001353483     0.000019196823     0.000054454488
       6       -0.000001604161    -0.000007653488     0.000002974710
       7        0.000019434849     0.000016687339     0.000052699699
       8        0.000016536111    -0.000004883014    -0.000006860281
       9        0.000035882531    -0.000472410128     0.003084646886
      10        0.000000296836    -0.000003203667    -0.000007117120
      11       -0.000029509800     0.000326623252    -0.001538123519
      12        0.000009339243     0.000166219769    -0.003447102166
      13       -0.000007371973    -0.000010322162    -0.000013434160
      14       -0.000029092230    -0.000019653473     0.001905926094
      15        0.000011006366    -0.000007955341    -0.000029574363

  **** Optimization is complete! (in 6 steps) ****
    Final optimized geometry and variables:
    Molecular point group: c1

    Geometry (in Angstrom), charge = 0, multiplicity = 1:

    H            2.471372782581     2.484799938021     0.346663930491
    O            1.525549071747     2.440050577915     0.362942848470
    C            1.098597180155     1.174719932732     0.155399514592
    C            1.962856624473     0.114575380095    -0.053314953170
    C           -0.272481061605     0.956104230424     0.151507852831
    H            3.027011638571     0.280731927499    -0.056045177569
    C            1.458876692161    -1.163859204922    -0.262551676722
    H           -0.931404640815     1.791392238329     0.307234243347
    C           -0.764992150647    -0.321369996392    -0.046105099611
    H            2.142459976125    -1.976827499320    -0.427836312392
    C            0.099189712044    -1.392084466179    -0.260606671675
    C           -2.236604025413    -0.533945663075    -0.055007286750
    H           -0.304361339191    -2.373766659401    -0.417875023910
    O           -2.759728272066    -1.602307823737    -0.067112773454
    H           -2.837717847807     0.379777367929    -0.033576370074

  Mulliken Charges: (a.u.)
   Center  Symbol    Alpha    Beta     Spin     Total
       1     H     0.27011  0.27011  0.00000  0.45979
       2     O     4.37744  4.37744  0.00000 -0.75487
       3     C     2.79554  2.79554  0.00000  0.40892
       4     C     3.13552  3.13552  0.00000 -0.27104
       5     C     3.12800  3.12800  0.00000 -0.25601
       6     H     0.39915  0.39915  0.00000  0.20170
       7     C     3.09479  3.09479  0.00000 -0.18958
       8     H     0.38463  0.38463  0.00000  0.23074
       9     C     3.04296  3.04296  0.00000 -0.08591
      10     H     0.39252  0.39252  0.00000  0.21496
      11     C     3.10138  3.10138  0.00000 -0.20275
      12     C     2.83270  2.83270  0.00000  0.33459
      13     H     0.37879  0.37879  0.00000  0.24242
      14     O     4.24577  4.24577  0.00000 -0.49153
      15     H     0.42072  0.42072  0.00000  0.15857

   Total alpha = 32.00000, Total beta = 32.00000, Total charge =  0.00000
