                              Psi4 1.0.54 Driver

  ==> Input File <==

--------------------------------------------------------------------------
set {
	reference rhf
	basis cc-pvtz
}

set_num_threads( 4 )
memory 2 gb

molecule MOL {
0 1

H	 2.416493	 -0.708526	 0.353417
C	 1.692903	 0.085809	 0.426094
O	 0.462329	 -0.453336	 -0.000137
H	 2.000343	 0.906222	 -0.210005
H	 1.636159	 0.422267	 1.453622
C	 -0.590565	 0.341382	 0.000062
O	 -1.693898	 -0.053880	 0.000252
H	 -0.340426	 1.403822	 0.000200

	symmetry c1
}
set optking {
	frozen_dihedral = ("
		2 3 6 7
	")
}

ee,wfn = optimize('scf', return_wfn=True)
oeprop( wfn, 'DIPOLE', 'QUADRUPOLE', 'MULLIKEN_CHARGES')
f=open( 'psi4out.xyz', 'w' )
f.write( "8  " )
f.write( str(ee) + "\n" )
f.write( MOL.save_string_xyz() )
f.close()
--------------------------------------------------------------------------

    Molecular point group: c1
  Charge       = 0
  Multiplicity = 1
  Basis Set: CC-PVTZ
  Basis Set:
  @DF-RHF Final Energy:  -227.86895562446489
    Total Energy =                       -227.8689556244648315
    Molecular point group: c1
  Basis Set: CC-PVTZ
  Basis Set:
  Basis Set: CC-PVTZ
  Basis Set:
  @DF-RHF Final Energy:  -227.86899180412314
    Total Energy =                       -227.8689918041232829
  Basis Set: CC-PVTZ
  Basis Set:
  Basis Set: CC-PVTZ
  Basis Set:
  @DF-RHF Final Energy:  -227.86907957709622
    Total Energy =                       -227.8690795770961017
  Basis Set: CC-PVTZ
  Basis Set:
  Basis Set: CC-PVTZ
  Basis Set:
  @DF-RHF Final Energy:  -227.86913320323873
    Total Energy =                       -227.8691332032387322
  Basis Set: CC-PVTZ
  Basis Set:
  Basis Set: CC-PVTZ
  Basis Set:
  @DF-RHF Final Energy:  -227.86915272682899
    Total Energy =                       -227.8691527268290429
  Basis Set: CC-PVTZ
  Basis Set:
  Charge       = 0
  Multiplicity = 1
  Basis Set: CC-PVTZ
  Basis Set:

    Orbital Energies (a.u.)
    -----------------------

    Doubly Occupied:

       1A    -20.608857     2A    -20.548256     3A    -11.374599
       4A    -11.302055     5A     -1.479601     6A     -1.386656
       7A     -0.993880     8A     -0.849441     9A     -0.740745
      10A     -0.688534    11A     -0.685229    12A     -0.609698
      13A     -0.573608    14A     -0.540113    15A     -0.467067
      16A     -0.457586

  @DF-RHF Final Energy:  -227.86915414101992

   => Energetics <=

    Nuclear Repulsion Energy =            121.5236996049283675
    One-Electron Energy =                -552.1738547556124104
    Two-Electron Energy =                 202.7810010096641236
    DFT Exchange-Correlation Energy =       0.0000000000000000
    Empirical Dispersion Energy =           0.0000000000000000
    PCM Polarization Energy =               0.0000000000000000
    EFP Energy =                            0.0000000000000000
    Total Energy =                       -227.8691541410199193
    Molecular point group: c1
  Basis Set: CC-PVTZ
  Basis Set:

  -Total Gradient:
     Atom            X                  Y                   Z
    ------   -----------------  -----------------  -----------------
       1       -0.000074784531     0.000007845571    -0.000014861708
       2       -0.000574935449    -0.000143340963     0.002524881017
       3        0.000976888555     0.000485773338    -0.002178282800
       4       -0.000018009851    -0.000048628392     0.000006882093
       5        0.000027273250    -0.000003080263    -0.000019031006
       6       -0.000513641842    -0.000846710734    -0.003482216286
       7        0.000142984348     0.000587685512     0.003164801848
       8        0.000034225522    -0.000039544068    -0.000002173158

  **** Optimization is complete! (in 6 steps) ****
    Final optimized geometry and variables:
    Molecular point group: c1

    Geometry (in Angstrom), charge = 0, multiplicity = 1:

    H            2.451103869486    -0.655159924277     0.135078574384
    C            1.702224741748     0.091994914702     0.338571879777
    O            0.459583295108    -0.465932166934    -0.018448933967
    H            1.918849546104     0.978785656073    -0.245204194877
    H            1.717626731563     0.338914873533     1.391906817689
    C           -0.563104962872     0.352314785583    -0.189978402022
    O           -1.680809805240     0.003422684360    -0.150421579897
    H           -0.269133266387     1.387501034194    -0.370960678987

  Mulliken Charges: (a.u.)
   Center  Symbol    Alpha    Beta     Spin     Total
       1     H     0.44136  0.44136  0.00000  0.11728
       2     C     3.02952  3.02952  0.00000 -0.05903
       3     O     4.12308  4.12308  0.00000 -0.24617
       4     H     0.46431  0.46431  0.00000  0.07138
       5     H     0.45577  0.45577  0.00000  0.08847
       6     C     2.83564  2.83564  0.00000  0.32872
       7     O     4.17287  4.17287  0.00000 -0.34574
       8     H     0.47745  0.47745  0.00000  0.04509

   Total alpha = 16.00000, Total beta = 16.00000, Total charge =  0.00000

*** Psi4 exiting successfully. Buy a developer a beer!
