  ==> Input File <==

--------------------------------------------------------------------------
set {
	reference rhf
	basis cc-pvtz
}

set_num_threads( 4 )
memory 2 gb

molecule MOL {
0 1

O	 1.087924	 -0.289095	 0.382649
C	 0.029490	 0.077183	 0.000078
C	 -1.232113	 -0.748027	 0.000015
O	 -0.186493	 1.287134	 -0.488391
C	 -2.501422	 0.088592	 -0.000052
H	 -1.188777	 -1.400384	 -0.865133
H	 -1.188857	 -1.400312	 0.865225
H	 -2.548170	 0.725504	 -0.873205
H	 -3.371613	 -0.556398	 -0.000040
H	 -2.548215	 0.725571	 0.873047
C	 0.915905	 2.169730	 -0.546567
H	 1.313959	 2.348117	 0.441344
H	 0.540315	 3.088003	 -0.967912
H	 1.696389	 1.763868	 -1.172958

	symmetry c1
}
set optking {
	frozen_dihedral = ("
		4 2 3 6
	")
}

ee = optimize('scf')
oeprop('DIPOLE', 'QUADRUPOLE', 'MULLIKEN_CHARGES')
f=open( 'psi4out.xyz', 'w' )
f.write( "14  " )
f.write( str(ee) + "\n" )
f.write( MOL.save_string_xyz() )
f.close()
--------------------------------------------------------------------------

    Molecular point group: c1
  Charge       = 0
  Multiplicity = 1
  Basis Set: CC-PVTZ
  Basis Set:
  @DF-RHF Final Energy:  -305.98436332415417
    Total Energy =                       -305.9843633241541170
    Molecular point group: c1
  Basis Set: CC-PVTZ
  Basis Set:
  Basis Set: CC-PVTZ
  Basis Set:
  @DF-RHF Final Energy:  -305.98495275932260
    Total Energy =                       -305.9849527593227094
  Basis Set: CC-PVTZ
  Basis Set:
  Basis Set: CC-PVTZ
  Basis Set:
  @DF-RHF Final Energy:  -305.98433139076235
    Total Energy =                       -305.9843313907624633
  Basis Set: CC-PVTZ
  Basis Set:
  Basis Set: CC-PVTZ
  Basis Set:
  @DF-RHF Final Energy:  -305.98535044175412
    Total Energy =                       -305.9853504417541785
  Basis Set: CC-PVTZ
  Basis Set:
  Basis Set: CC-PVTZ
  Basis Set:
  @DF-RHF Final Energy:  -305.98536796520392
    Total Energy =                       -305.9853679652040910
  Basis Set: CC-PVTZ
  Basis Set:
  Charge       = 0
  Multiplicity = 1
  Basis Set: CC-PVTZ
  Basis Set:

    Orbital Energies (a.u.)
    -----------------------

    Doubly Occupied:

       1A    -20.599665     2A    -20.531064     3A    -11.365383
       4A    -11.279943     5A    -11.237384     6A    -11.220136
       7A     -1.473980     8A     -1.365156     9A     -1.067332
      10A     -0.976205    11A     -0.888275    12A     -0.777268
      13A     -0.697312    14A     -0.685467    15A     -0.675739
      16A     -0.622080    17A     -0.587426    18A     -0.562342
      19A     -0.548449    20A     -0.523712    21A     -0.517411
      22A     -0.499526    23A     -0.458870    24A     -0.437160

  @DF-RHF Final Energy:  -305.98536840741480

   => Energetics <=

    Nuclear Repulsion Energy =            248.8360681793436129
    One-Electron Energy =                -910.4483023669356498
    Two-Electron Energy =                 355.6268657801772406
    DFT Exchange-Correlation Energy =       0.0000000000000000
    Empirical Dispersion Energy =           0.0000000000000000
    PCM Polarization Energy =               0.0000000000000000
    EFP Energy =                            0.0000000000000000
    Total Energy =                       -305.9853684074148532
    Molecular point group: c1
  Basis Set: CC-PVTZ
  Basis Set:

  -Total Gradient:
     Atom            X                  Y                   Z
    ------   -----------------  -----------------  -----------------
       1       -0.000081944148     0.000050511501    -0.000021197961
       2        0.000320876290    -0.000511708663    -0.000518874430
       3       -0.000381993840     0.000609477535    -0.000232250073
       4       -0.000123502852     0.000320045729     0.000449639825
       5        0.000013429758    -0.000013022175     0.000013223237
       6        0.000284973497    -0.000429259433     0.000317070500
       7       -0.000015431015     0.000003915568     0.000000069743
       8        0.000011128848    -0.000006126979     0.000002540344
       9       -0.000000993312    -0.000000800255    -0.000001864658
      10       -0.000004225721     0.000005875428     0.000002287731
      11       -0.000045024351    -0.000058508228    -0.000015619542
      12        0.000006618137     0.000008496139     0.000005580792
      13        0.000001864861     0.000005663884     0.000001854655
      14        0.000014223853     0.000015439952    -0.000002460164

  **** Optimization is complete! (in 6 steps) ****
    Final optimized geometry and variables:
    Molecular point group: c1

    Geometry (in Angstrom), charge = 0, multiplicity = 1:

    O            1.369193043198    -0.756406034730     0.483437942575
    C            0.318777077428    -0.353051258824     0.113663112455
    C           -0.940285719274    -1.187609172396     0.115608349755
    O            0.141161625488     0.864755552035    -0.364721873763
    C           -2.259021379457    -0.424980566838     0.114861099772
    H           -0.871656118823    -1.828895759058    -0.757934848329
    H           -0.864573675870    -1.841653636592     0.973468207529
    H           -2.365110095033     0.184098602128    -0.771715082202
    H           -3.085291668532    -1.124468600818     0.147706691686
    H           -2.337902836836     0.225679459573     0.977142133304
    C            1.276307254951     1.704759979668    -0.434889194400
    H            1.696237324025     1.858922470115     0.547759077753
    H            0.929183696765     2.639883892253    -0.843407276587
    H            2.029894394334     1.273113698265    -1.076505391221

  Mulliken Charges: (a.u.)
   Center  Symbol    Alpha    Beta     Spin     Total
       1     O     4.20271  4.20271  0.00000 -0.40542
       2     C     2.80534  2.80534  0.00000  0.38932
       3     C     3.08954  3.08954  0.00000 -0.17909
       4     O     4.14387  4.14387  0.00000 -0.28774
       5     C     3.14176  3.14176  0.00000 -0.28353
       6     H     0.44429  0.44429  0.00000  0.11142
       7     H     0.43574  0.43574  0.00000  0.12852
       8     H     0.44778  0.44778  0.00000  0.10444
       9     H     0.44925  0.44925  0.00000  0.10150
      10     H     0.45125  0.45125  0.00000  0.09751
      11     C     3.03514  3.03514  0.00000 -0.07027
      12     H     0.45334  0.45334  0.00000  0.09331
      13     H     0.44646  0.44646  0.00000  0.10707
      14     H     0.45353  0.45353  0.00000  0.09295

   Total alpha = 24.00000, Total beta = 24.00000, Total charge = -0.00000
