  ==> Input File <==

--------------------------------------------------------------------------
set {
	reference rhf
	basis cc-pvtz
}

set_num_threads( 4 )
memory 2 gb

molecule MOL {
0 1

H	 -0.242558	 3.661177	 1.708482
O	 -0.257543	 3.656913	 0.768983
C	 -0.200152	 2.342637	 0.289898
C	 1.187041	 1.752848	 0.450021
H	 -0.925759	 1.705287	 0.785284
H	 -0.457229	 2.377751	 -0.759083
O	 1.172093	 0.457955	 -0.054438
H	 1.470713	 1.749624	 1.503783
H	 1.908312	 2.371155	 -0.080110
C	 2.395478	 -0.199028	 -0.000366
H	 2.505946	 -0.901710	 -0.823354
H	 3.174616	 0.545641	 -0.071768
H	 2.513730	 -0.742241	 0.934223

	symmetry c1
}
set optking {
	frozen_dihedral = ("
		4 7 10 13
	")
}

ee = optimize('scf')
oeprop('DIPOLE', 'QUADRUPOLE', 'MULLIKEN_CHARGES')
f=open( 'psi4out.xyz', 'w' )
f.write( "13  " )
f.write( str(ee) + "\n" )
f.write( MOL.save_string_xyz() )
f.close()
--------------------------------------------------------------------------

    Molecular point group: c1
  Charge       = 0
  Multiplicity = 1
  Basis Set: CC-PVTZ
  Basis Set:
  @DF-RHF Final Energy:  -268.05945937894649
    Total Energy =                       -268.0594593789467694
    Molecular point group: c1
  Basis Set: CC-PVTZ
  Basis Set:
  Basis Set: CC-PVTZ
  Basis Set:
  @DF-RHF Final Energy:  -268.06037938699581
    Total Energy =                       -268.0603793869958054
  Basis Set: CC-PVTZ
  Basis Set:
  Basis Set: CC-PVTZ
  Basis Set:
  @DF-RHF Final Energy:  -268.06060451257383
    Total Energy =                       -268.0606045125737751
  Basis Set: CC-PVTZ
  Basis Set:
  Charge       = 0
  Multiplicity = 1
  Basis Set: CC-PVTZ
  Basis Set:

    Orbital Energies (a.u.)
    -----------------------

    Doubly Occupied:

       1A    -20.554454     2A    -20.552705     3A    -11.269506
       4A    -11.267459     5A    -11.267202     6A     -1.389977
       7A     -1.368871     8A     -1.019682     9A     -0.914107
      10A     -0.842535    11A     -0.711869    12A     -0.674907
      13A     -0.661178    14A     -0.640076    15A     -0.597002
      16A     -0.571480    17A     -0.548118    18A     -0.491690
      19A     -0.483077    20A     -0.441412    21A     -0.422022

  @DF-RHF Final Energy:  -268.06060574465107

   => Energetics <=

    Nuclear Repulsion Energy =            190.3356980092584365
    One-Electron Energy =                -743.4139521644083288
    Two-Electron Energy =                 285.0176484104989072
    DFT Exchange-Correlation Energy =       0.0000000000000000
    Empirical Dispersion Energy =           0.0000000000000000
    PCM Polarization Energy =               0.0000000000000000
    EFP Energy =                            0.0000000000000000
    Total Energy =                       -268.0606057446510135
    Molecular point group: c1
  Basis Set: CC-PVTZ
  Basis Set:

  -Total Gradient:
     Atom            X                  Y                   Z
    ------   -----------------  -----------------  -----------------
       1        0.000000906521    -0.000004605191    -0.000001073370
       2        0.000033700687    -0.000021893520    -0.000014008685
       3       -0.000029837075    -0.000035929619    -0.000020206410
       4        0.000596332667     0.000825126654    -0.001969891302
       5        0.000002798696    -0.000002091167    -0.000000409889
       6       -0.000015417524     0.000007162348    -0.000004698103
       7       -0.001067373896    -0.001897352333     0.002638806902
       8       -0.000000556841     0.000005017646    -0.000007822483
       9        0.000009173680    -0.000025892729    -0.000019170188
      10        0.001744614818     0.003377475211     0.000607238796
      11       -0.000027049595    -0.000014081730    -0.000000297775
      12        0.000034633609     0.000015906226     0.000004246325
      13       -0.001281925748    -0.002228841793    -0.001212713819

  **** Optimization is complete! (in 4 steps) ****
    Final optimized geometry and variables:
    Molecular point group: c1

    Geometry (in Angstrom), charge = 0, multiplicity = 1:

    H           -1.125964122033     2.032423054582     1.396120194561
    O           -1.135942230099     2.027075451991     0.456549461078
    C           -1.062931594468     0.712792564394    -0.020569423143
    C            0.328992593818     0.137204675207     0.149052406020
    H           -1.785821105475     0.069201441157     0.470647526117
    H           -1.313031514949     0.744005399501    -1.071400606322
    O            0.330162939852    -1.154388545151    -0.365167011015
    H            0.601836309745     0.134586441197     1.205863205076
    H            1.047653051547     0.764540980073    -0.372689863403
    C            1.551729386246    -1.820298005570    -0.309849809647
    H            1.582270574996    -2.531724378875    -1.123947543470
    H            2.389495319258    -1.138157888261    -0.416214587303
    H            1.654573542276    -2.371844562158     0.620819612882

  Mulliken Charges: (a.u.)
   Center  Symbol    Alpha    Beta     Spin     Total
       1     H     0.39419  0.39419  0.00000  0.21162
       2     O     4.20209  4.20209  0.00000 -0.40417
       3     C     2.97421  2.97421  0.00000  0.05158
       4     C     2.96533  2.96533  0.00000  0.06934
       5     H     0.46661  0.46661  0.00000  0.06678
       6     H     0.45290  0.45290  0.00000  0.09420
       7     O     4.17779  4.17779  0.00000 -0.35558
       8     H     0.48291  0.48291  0.00000  0.03419
       9     H     0.46828  0.46828  0.00000  0.06345
      10     C     3.03017  3.03017  0.00000 -0.06035
      11     H     0.44931  0.44931  0.00000  0.10138
      12     H     0.47170  0.47170  0.00000  0.05660
      13     H     0.46451  0.46451  0.00000  0.07097

   Total alpha = 21.00000, Total beta = 21.00000, Total charge = -0.00000
