  ==> Input File <==

--------------------------------------------------------------------------
set {
	reference rhf
	basis cc-pvtz
}

set_num_threads( 4 )
memory 2 gb

molecule MOL {
0 1

H	 -2.577000	 0.774000	 0.874000
C	 -2.546000	 0.135000	 0.000000
C	 -1.291000	 -0.729000	 -0.000000
H	 -2.577000	 0.775000	 -0.873000
H	 -3.434000	 -0.488000	 -0.000000
C	 -0.000000	 0.073000	 -0.000000
H	 -1.276000	 -1.388000	 -0.867000
H	 -1.276000	 -1.388000	 0.866000
C	 1.291000	 -0.729000	 0.000000
O	 -0.000000	 1.266000	 -0.000000
C	 2.546000	 0.135000	 -0.000000
H	 1.276000	 -1.388000	 -0.866000
H	 1.276000	 -1.388000	 0.867000
H	 2.577000	 0.774000	 -0.874000
H	 3.434000	 -0.488000	 0.000000
H	 2.577000	 0.775000	 0.874000

	symmetry c1
}
ee = optimize('scf')
oeprop('DIPOLE', 'QUADRUPOLE', 'MULLIKEN_CHARGES')
f=open( 'psi4out.xyz', 'w' )
f.write( "16  " )
f.write( str(ee) + "\n" )
f.write( MOL.save_string_xyz() )
f.close()
--------------------------------------------------------------------------

    Molecular point group: c1
  Charge       = 0
  Multiplicity = 1
  Basis Set: CC-PVTZ
  Basis Set:
  @DF-RHF Final Energy:  -270.13174408027965
    Total Energy =                       -270.1317440802795886
    Molecular point group: c1
  Basis Set: CC-PVTZ
  Basis Set:
  Basis Set: CC-PVTZ
  Basis Set:
  @DF-RHF Final Energy:  -270.13186244684039
    Total Energy =                       -270.1318624468405005
  Basis Set: CC-PVTZ
  Basis Set:
  Basis Set: CC-PVTZ
  Basis Set:
  @DF-RHF Final Energy:  -270.13186508346774
    Total Energy =                       -270.1318650834675736
  Basis Set: CC-PVTZ
  Basis Set:
  Basis Set: CC-PVTZ
  Basis Set:
  @DF-RHF Final Energy:  -270.13183902746277
    Total Energy =                       -270.1318390274631724
  Basis Set: CC-PVTZ
  Basis Set:
  Charge       = 0
  Multiplicity = 1
  Basis Set: CC-PVTZ
  Basis Set:

    Orbital Energies (a.u.)
    -----------------------

    Doubly Occupied:

       1A    -20.539278     2A    -11.317907     3A    -11.232201
       4A    -11.232178     5A    -11.211755     6A    -11.211754
       7A     -1.399485     8A     -1.069360     9A     -1.037213
      10A     -0.917053    11A     -0.845943    12A     -0.725977
      13A     -0.669731    14A     -0.649372    15A     -0.619744
      16A     -0.608132    17A     -0.561198    18A     -0.527437
      19A     -0.525605    20A     -0.510864    21A     -0.505349
      22A     -0.492115    23A     -0.488359    24A     -0.401355

  @DF-RHF Final Energy:  -270.13186529748185

   => Energetics <=

    Nuclear Repulsion Energy =            240.3622956524114898
    One-Electron Energy =                -842.3895920216909872
    Two-Electron Energy =                 331.8954310717972476
    DFT Exchange-Correlation Energy =       0.0000000000000000
    Empirical Dispersion Energy =           0.0000000000000000
    PCM Polarization Energy =               0.0000000000000000
    EFP Energy =                            0.0000000000000000
    Total Energy =                       -270.1318652974822498
    Molecular point group: c1
  Basis Set: CC-PVTZ
  Basis Set:

  -Total Gradient:
     Atom            X                  Y                   Z
    ------   -----------------  -----------------  -----------------
       1       -0.000001640125     0.000000241681    -0.000001965831
       2       -0.000011698633     0.000008001350     0.000000908785
       3        0.000019155164     0.000016124320    -0.000003046073
       4       -0.000001579083     0.000000297192     0.000001548382
       5        0.000005150129    -0.000001218882    -0.000000142918
       6       -0.000000174146    -0.000037569604     0.000005502497
       7       -0.000000757646    -0.000006939540    -0.000000769202
       8       -0.000000637347    -0.000007404459     0.000001564602
       9       -0.000018873577     0.000016120823     0.000000109636
      10       -0.000000234904     0.000019707095    -0.000002116462
      11        0.000011646578     0.000007983802    -0.000000020039
      12        0.000000836025    -0.000007589322    -0.000001604293
      13        0.000000663392    -0.000006915049     0.000000504983
      14        0.000001754858     0.000000400367     0.000001623609
      15       -0.000005005474    -0.000001371311    -0.000000159248
      16        0.000001394791     0.000000131537    -0.000001938429

  **** Optimization is complete! (in 5 steps) ****
    Final optimized geometry and variables:
    Molecular point group: c1

    Geometry (in Angstrom), charge = 0, multiplicity = 1:

    H           -2.584460136579     0.725534530941     0.872992790023
    C           -2.547022264267     0.087624847264     0.000129583901
    C           -1.286531128504    -0.763243925595    -0.000332322832
    H           -2.584473861520     0.726450039838    -0.872058951240
    H           -3.427034422469    -0.544421990025    -0.000190042909
    C           -0.000000232543     0.039915833379     0.000013683646
    H           -1.264278305620    -1.420252914068    -0.865631155981
    H           -1.264255139343    -1.421204551284     0.864239251990
    C            1.286531923268    -0.763243226817     0.000267546663
    O           -0.000001525987     1.227509780973     0.000038282980
    C            2.547023283067     0.087624937056    -0.000114392509
    H            1.264245425985    -1.421103808152    -0.864380206820
    H            1.264290255968    -1.420353591196     0.865489261213
    H            2.584452135666     0.725629577146    -0.872909041008
    H            3.427035221978    -0.544422720038     0.000125279085
    H            2.584484219489     0.726355283965     0.872142705595

  Mulliken Charges: (a.u.)
   Center  Symbol    Alpha    Beta     Spin     Total
       1     H     0.44789  0.44789  0.00000  0.10423
       2     C     3.14070  3.14070  0.00000 -0.28140
       3     C     3.09776  3.09776  0.00000 -0.19553
       4     H     0.44787  0.44787  0.00000  0.10426
       5     H     0.45076  0.45076  0.00000  0.09848
       6     C     2.87468  2.87468  0.00000  0.25064
       7     H     0.44605  0.44605  0.00000  0.10790
       8     H     0.44605  0.44605  0.00000  0.10790
       9     C     3.09776  3.09776  0.00000 -0.19553
      10     O     4.17116  4.17116  0.00000 -0.34232
      11     C     3.14070  3.14070  0.00000 -0.28140
      12     H     0.44605  0.44605  0.00000  0.10790
      13     H     0.44605  0.44605  0.00000  0.10791
      14     H     0.44789  0.44789  0.00000  0.10423
      15     H     0.45076  0.45076  0.00000  0.09848
      16     H     0.44787  0.44787  0.00000  0.10426

   Total alpha = 24.00000, Total beta = 24.00000, Total charge = -0.00000
