  ==> Input File <==

--------------------------------------------------------------------------
set {
	reference rhf
	basis 6-31G*
}

set_num_threads( 4 )
memory 2 gb

molecule MOL {
0 1

O	 1.846825	 1.296220	 0.000415
C	 1.705091	 0.115954	 0.001797
C	 0.381791	 -0.609817	 0.001258
O	 2.721346	 -0.737485	 -0.000216
C	 -0.823008	 0.326187	 0.001381
H	 0.371250	 -1.265087	 -0.865474
H	 0.370908	 -1.265746	 0.867490
C	 -2.149452	 -0.435131	 -0.000098
H	 -0.770201	 0.977095	 -0.865636
H	 -0.771220	 0.975655	 0.869608
C	 -3.368779	 0.488503	 -0.000883
H	 -2.193746	 -1.087250	 -0.871175
H	 -2.195311	 -1.087803	 0.870418
C	 -3.367872	 1.478677	 1.163078
H	 -4.274657	 -0.112433	 0.036575
H	 -3.404529	 1.035311	 -0.940490
H	 -3.367262	 0.961315	 2.118353
H	 -4.243929	 2.119127	 1.134833
H	 -2.489907	 2.117919	 1.133766
C	 4.024888	 -0.184556	 -0.001949
H	 4.179030	 0.422472	 -0.882452
H	 4.701782	 -1.024608	 -0.003642
H	 4.181981	 0.421185	 0.878906

	symmetry c1
}
set optking {
	frozen_dihedral = ("
		15 11 8 12
	")
}

ee = optimize('scf')
oeprop('DIPOLE', 'QUADRUPOLE', 'MULLIKEN_CHARGES')
f=open( 'psi4out.xyz', 'w' )
f.write( "23  " )
f.write( str(ee) + "\n" )
f.write( MOL.save_string_xyz() )
f.close()
--------------------------------------------------------------------------

    Molecular point group: c1
  Charge       = 0
  Multiplicity = 1
  Basis Set: 6-31G*
  Basis Set:
  @DF-RHF Final Energy:  -422.97340574784425
    Total Energy =                       -422.9734057478440263
    Molecular point group: c1
  Basis Set: 6-31G*
  Basis Set:
  Basis Set: 6-31G*
  Basis Set:
  @DF-RHF Final Energy:  -422.97386146677934
    Total Energy =                       -422.9738614667796810
  Basis Set: 6-31G*
  Basis Set:
  Basis Set: 6-31G*
  Basis Set:
  @DF-RHF Final Energy:  -422.97434744235909
    Total Energy =                       -422.9743474423589760
  Basis Set: 6-31G*
  Basis Set:
  Basis Set: 6-31G*
  Basis Set:
  @DF-RHF Final Energy:  -422.97403791333386
    Total Energy =                       -422.9740379133343140
  Basis Set: 6-31G*
  Basis Set:
  Basis Set: 6-31G*
  Basis Set:
  @DF-RHF Final Energy:  -422.97449334369884
    Total Energy =                       -422.9744933436979863
  Basis Set: 6-31G*
  Basis Set:
  Basis Set: 6-31G*
  Basis Set:
  @DF-RHF Final Energy:  -422.97450154107599
    Total Energy =                       -422.9745015410761653
  Basis Set: 6-31G*
  Basis Set:
  Basis Set: 6-31G*
  Basis Set:
  @DF-RHF Final Energy:  -422.97450395928496
    Total Energy =                       -422.9745039592838793
  Basis Set: 6-31G*
  Basis Set:
  Charge       = 0
  Multiplicity = 1
  Basis Set: 6-31G*
  Basis Set:

    Orbital Energies (a.u.)
    -----------------------

    Doubly Occupied:

       1A    -20.603621     2A    -20.545429     3A    -11.372224
       4A    -11.280845     5A    -11.235473     6A    -11.218771
       7A    -11.218076     8A    -11.216810     9A    -11.207737
      10A     -1.469308    11A     -1.362749    12A     -1.093026
      13A     -1.041891    14A     -0.984979    15A     -0.931104
      16A     -0.856336    17A     -0.782433    18A     -0.766813
      19A     -0.696708    20A     -0.683430    21A     -0.672182
      22A     -0.644796    23A     -0.613979    24A     -0.597730
      25A     -0.589183    26A     -0.561043    27A     -0.534122
      28A     -0.525531    29A     -0.520378    30A     -0.515056
      31A     -0.490344    32A     -0.465321    33A     -0.462287
      34A     -0.459333    35A     -0.455026    36A     -0.435539

  @DF-RHF Final Energy:  -422.97450401927409

   => Energetics <=

    Nuclear Repulsion Energy =            457.5005745671678028
    One-Electron Energy =               -1482.7309347839084239
    Two-Electron Energy =                 602.2558561974665281
    DFT Exchange-Correlation Energy =       0.0000000000000000
    Empirical Dispersion Energy =           0.0000000000000000
    PCM Polarization Energy =               0.0000000000000000
    EFP Energy =                            0.0000000000000000
    Total Energy =                       -422.9745040192740362
    Molecular point group: c1
  Basis Set: 6-31G*
  Basis Set:

  -Total Gradient:
     Atom            X                  Y                   Z
    ------   -----------------  -----------------  -----------------
       1       -0.000002826623     0.000001670677    -0.000017947081
       2        0.000001151367    -0.000000971544     0.000030329693
       3        0.000004839030     0.000002931845     0.000000483784
       4        0.000003780462    -0.000003395463    -0.000003660857
       5       -0.000005992908    -0.000008294475    -0.000003308771
       6       -0.000002907388    -0.000001209056    -0.000009872656
       7        0.000001021937     0.000004723526    -0.000009810531
       8       -0.001150024180    -0.001465304095     0.001575356529
       9       -0.000004456367    -0.000002561605     0.000008995382
      10       -0.000001966107    -0.000001726213     0.000008003215
      11        0.000243945400     0.000142061265    -0.002443635352
      12        0.000962452559     0.001216571205    -0.000962887375
      13       -0.000008290158     0.000005848621     0.000001649592
      14       -0.000006577364     0.000001286313     0.000003398975
      15       -0.000031211109     0.000104277577     0.001819456883
      16       -0.000006495839    -0.000004244723     0.000001275680
      17       -0.000003742820     0.000002821847     0.000000148836
      18        0.000003610346     0.000007994245     0.000003136547
      19        0.000006167319    -0.000002718621     0.000000773374
      20       -0.000001642822     0.000000761724    -0.000001963622
      21        0.000000560300     0.000000131585    -0.000000029183
      22       -0.000001065432    -0.000000507745    -0.000000099214
      23       -0.000000329617    -0.000000146890     0.000000206151

  **** Optimization is complete! (in 8 steps) ****
    Final optimized geometry and variables:
    Molecular point group: c1

    Geometry (in Angstrom), charge = 0, multiplicity = 1:

    O            1.727574622960     1.081710445659    -0.063649529865
    C            1.571476819014    -0.095023814656    -0.127718523738
    C            0.239595148726    -0.804848877227    -0.143527925169
    O            2.577070217912    -0.958357295977    -0.195216249980
    C           -0.953529208822     0.144166966711    -0.078077134673
    H            0.208451462697    -1.417402574134    -1.040354401278
    H            0.233701239762    -1.501753220435     0.690329997170
    C           -2.285117383534    -0.611984300858    -0.080159492260
    H           -0.915099562122     0.825412680347    -0.923129223248
    H           -0.864377888809     0.758257193479     0.810341920326
    C           -3.524957952947     0.287361353817    -0.149118002945
    H           -2.299814469582    -1.279174672239    -0.939967925414
    H           -2.345477193590    -1.242907006822     0.805043551871
    C           -3.639154898818     1.303746292643     0.989332607314
    H           -4.406912402565    -0.348012240421    -0.127280162492
    H           -3.539922268655     0.809686001554    -1.102866893125
    H           -3.592873190156     0.812839582617     1.958034394000
    H           -4.584540262636     1.834585730509     0.934669661468
    H           -2.847929274476     2.044673221490     0.954949238952
    C            3.887089818034    -0.420947698607    -0.188142175409
    H            4.034279283955     0.232790702623    -1.035771791256
    H            4.553550552331    -1.267211487076    -0.248435326704
    H            4.065964889066     0.132468888608     0.722491445736

  Mulliken Charges: (a.u.)
   Center  Symbol    Alpha    Beta     Spin     Total
       1     O     4.28622  4.28622  0.00000 -0.57244
       2     C     2.60515  2.60515  0.00000  0.78970
       3     C     3.20770  3.20770  0.00000 -0.41540
       4     O     4.30720  4.30720  0.00000 -0.61441
       5     C     3.15487  3.15487  0.00000 -0.30974
       6     H     0.40080  0.40080  0.00000  0.19840
       7     H     0.40069  0.40069  0.00000  0.19861
       8     C     3.15478  3.15478  0.00000 -0.30956
       9     H     0.41282  0.41282  0.00000  0.17437
      10     H     0.40893  0.40893  0.00000  0.18214
      11     C     3.15159  3.15159  0.00000 -0.30319
      12     H     0.42280  0.42280  0.00000  0.15440
      13     H     0.42372  0.42372  0.00000  0.15257
      14     C     3.24328  3.24328  0.00000 -0.48656
      15     H     0.42077  0.42077  0.00000  0.15847
      16     H     0.42168  0.42168  0.00000  0.15663
      17     H     0.42272  0.42272  0.00000  0.15457
      18     H     0.41882  0.41882  0.00000  0.16235
      19     H     0.41643  0.41643  0.00000  0.16714
      20     C     3.09243  3.09243  0.00000 -0.18486
      21     H     0.40908  0.40908  0.00000  0.18185
      22     H     0.40842  0.40842  0.00000  0.18315
      23     H     0.40909  0.40909  0.00000  0.18182

   Total alpha = 36.00000, Total beta = 36.00000, Total charge =  0.00000
