                              Psi4 1.0.54 Driver

  ==> Input File <==

--------------------------------------------------------------------------
set {
	reference rhf
	basis cc-pvtz
}

set_num_threads( 4 )
memory 2 gb

molecule MOL {
0 1

O	 -0.541282	 0.049697	 -0.577679
C	 0.485107	 0.171416	 -0.000134
C	 1.606966	 -0.836201	 0.000174
O	 0.786686	 1.228112	 0.734052
C	 2.988788	 -0.202529	 -0.000115
H	 1.465110	 -1.474645	 -0.864821
H	 1.465209	 -1.474077	 0.865596
H	 3.131767	 0.419673	 -0.873407
H	 3.750876	 -0.972315	 0.000098
H	 3.131883	 0.420264	 0.872742
C	 -0.177947	 2.266774	 0.828673
C	 0.394221	 3.348998	 1.714056
H	 -1.093234	 1.862314	 1.237339
H	 -0.394926	 2.638540	 -0.162807
H	 0.608363	 2.964937	 2.703507
H	 -0.318815	 4.159562	 1.807859
H	 1.310602	 3.745639	 1.295378

	symmetry c1
}
set optking {
	frozen_dihedral = ("
		4 2 3 6
	")
}

ee,wfn = optimize('scf', return_wfn=True)
oeprop( wfn, 'DIPOLE', 'QUADRUPOLE', 'MULLIKEN_CHARGES')
f=open( 'psi4out.xyz', 'w' )
f.write( "17  " )
f.write( str(ee) + "\n" )
f.write( MOL.save_string_xyz() )
f.close()
--------------------------------------------------------------------------

    Molecular point group: c1
  Charge       = 0
  Multiplicity = 1
  Basis Set: CC-PVTZ
  Basis Set:
  @DF-RHF Final Energy:  -345.03798669935520
    Total Energy =                       -345.0379866993555424
    Molecular point group: c1
  Basis Set: CC-PVTZ
  Basis Set:
  Basis Set: CC-PVTZ
  Basis Set:
  @DF-RHF Final Energy:  -344.94925022146617
    Total Energy =                       -344.9492502214663432
  Basis Set: CC-PVTZ
  Basis Set:
  Basis Set: CC-PVTZ
  Basis Set:
  @DF-RHF Final Energy:  -345.03033872070552
    Total Energy =                       -345.0303387207057426
  Basis Set: CC-PVTZ
  Basis Set:
  Basis Set: CC-PVTZ
  Basis Set:
  @DF-RHF Final Energy:  -345.03838288831395
    Total Energy =                       -345.0383828883141177
  Basis Set: CC-PVTZ
  Basis Set:
  @DF-RHF Final Energy:  -345.03627494247581
    Total Energy =                       -345.0362749424759272
  Basis Set: CC-PVTZ
  Basis Set:
  @DF-RHF Final Energy:  -345.03855589969822
    Total Energy =                       -345.0385558996980535
  Basis Set: CC-PVTZ
  Basis Set:
  Basis Set: CC-PVTZ
  Basis Set:
  @DF-RHF Final Energy:  -345.03859666048510
    Total Energy =                       -345.0385966604848136
  Basis Set: CC-PVTZ
  Basis Set:
  Basis Set: CC-PVTZ
  Basis Set:
  @DF-RHF Final Energy:  -345.03859853767455
    Total Energy =                       -345.0385985376748295
  Basis Set: CC-PVTZ
  Basis Set:
  Charge       = 0
  Multiplicity = 1
  Basis Set: CC-PVTZ
  Basis Set:

    Orbital Energies (a.u.)
    -----------------------

    Doubly Occupied:

       1A    -20.595228     2A    -20.530123     3A    -11.363302
       4A    -11.283207     5A    -11.235798     6A    -11.221054
       7A    -11.220404     8A     -1.471011     9A     -1.363445
      10A     -1.073402    11A     -1.031102    12A     -0.906973
      13A     -0.860342    14A     -0.780047    15A     -0.693842
      16A     -0.680051    17A     -0.675823    18A     -0.627610
      19A     -0.583873    20A     -0.574311    21A     -0.553564
      22A     -0.548141    23A     -0.524562    24A     -0.513188
      25A     -0.506410    26A     -0.493124    27A     -0.455577
      28A     -0.434142

  @DF-RHF Final Energy:  -345.03859872484912

   => Energetics <=

    Nuclear Repulsion Energy =            317.9332820403300843
    One-Electron Energy =               -1100.3444465032225708
    Two-Electron Energy =                 437.3725657380439316
    DFT Exchange-Correlation Energy =       0.0000000000000000
    Empirical Dispersion Energy =           0.0000000000000000
    PCM Polarization Energy =               0.0000000000000000
    EFP Energy =                            0.0000000000000000
    Total Energy =                       -345.0385987248484980
    Molecular point group: c1
  Basis Set: CC-PVTZ
  Basis Set:

  -Total Gradient:
     Atom            X                  Y                   Z
    ------   -----------------  -----------------  -----------------
       1       -0.000059138013    -0.000026369951    -0.000008748742
       2        0.000031707712    -0.000123315000     0.000670689191
       3       -0.000264110679    -0.000365646412     0.000541480631
       4        0.000062966546     0.000186412835    -0.000626234252
       5        0.000020286011    -0.000025328971    -0.000018218939
       6        0.000239335708     0.000359772624    -0.000603149015
       7        0.000008190883    -0.000013542287    -0.000006068966
       8       -0.000007711112     0.000008158272     0.000005222565
       9       -0.000007728461    -0.000000060642     0.000004649837
      10       -0.000012200623     0.000002939713     0.000005950989
      11       -0.000004706875    -0.000004697469     0.000084474083
      12       -0.000016342988     0.000000099713    -0.000005485135
      13       -0.000005708231     0.000011477488    -0.000004983755
      14        0.000003101400    -0.000005666422    -0.000018137760
      15        0.000000140870    -0.000011585711    -0.000005813021
      16       -0.000000298466    -0.000000110607    -0.000009088699
      17        0.000012216316     0.000007462830    -0.000006539014

  **** Optimization is complete! (in 9 steps) ****
    Final optimized geometry and variables:
    Molecular point group: c1

    Geometry (in Angstrom), charge = 0, multiplicity = 1:

    O           -1.574528522758    -0.902935543721    -0.235451606143
    C           -0.407477329986    -0.725742739046    -0.134381022792
    C            0.628137671183    -1.793004823764    -0.395921719526
    O            0.120500216627     0.422579030573     0.246920039183
    C            1.931310114820    -1.303521302023    -1.019659147802
    H            0.151362839311    -2.533778505912    -1.021316432915
    H            0.828637080148    -2.264959570517     0.561309361891
    H            1.751037714496    -0.810734627269    -1.967786917625
    H            2.588618031340    -2.144645035618    -1.202130020548
    H            2.443151233774    -0.605926549641    -0.372282399577
    C           -0.766763610424     1.488432951757     0.557402866223
    C            0.067599737660     2.682296797434     0.958425506018
    H           -1.425347103853     1.177353764948     1.355898260000
    H           -1.376310239459     1.702440312530    -0.308927231990
    H            0.674592489439     2.455371598881     1.825895566451
    H           -0.580831942084     3.515437979824     1.202518028915
    H            0.723255180183     2.983983029529     0.151231380377

  Mulliken Charges: (a.u.)
   Center  Symbol    Alpha    Beta     Spin     Total
       1     O     4.20083  4.20083  0.00000 -0.40166
       2     C     2.81117  2.81117  0.00000  0.37766
       3     C     3.08653  3.08653  0.00000 -0.17306
       4     O     4.15090  4.15090  0.00000 -0.30180
       5     C     3.14493  3.14493  0.00000 -0.28986
       6     H     0.43558  0.43558  0.00000  0.12885
       7     H     0.44679  0.44679  0.00000  0.10643
       8     H     0.45177  0.45177  0.00000  0.09645
       9     H     0.44881  0.44881  0.00000  0.10237
      10     H     0.44669  0.44669  0.00000  0.10662
      11     C     2.97799  2.97799  0.00000  0.04402
      12     C     3.13408  3.13408  0.00000 -0.26816
      13     H     0.45358  0.45358  0.00000  0.09284
      14     H     0.45388  0.45388  0.00000  0.09224
      15     H     0.45158  0.45158  0.00000  0.09684
      16     H     0.45365  0.45365  0.00000  0.09271
      17     H     0.45124  0.45124  0.00000  0.09752

   Total alpha = 28.00000, Total beta = 28.00000, Total charge = -0.00000

*** Psi4 exiting successfully. Buy a developer a beer!
