  ==> Input File <==

--------------------------------------------------------------------------
set {
	reference rhf
	basis cc-pvtz
}

set_num_threads( 4 )
memory 2 gb

molecule MOL {
0 1

O	 0.074770	 1.259872	 0.000487
C	 0.029490	 0.077183	 0.000078
C	 -1.232113	 -0.748027	 0.000015
O	 1.106773	 -0.690081	 -0.000204
C	 -2.501422	 0.088592	 -0.000052
H	 -1.188777	 -1.400384	 -0.865133
H	 -1.188857	 -1.400312	 0.865225
H	 -2.548170	 0.725504	 -0.873205
H	 -3.371613	 -0.556398	 -0.000040
H	 -2.548215	 0.725571	 0.873047
C	 1.884564	 -0.716993	 1.179609
H	 2.259373	 0.268857	 1.411672
H	 2.703376	 -1.389320	 0.981244
H	 1.300065	 -1.077019	 2.013267

	symmetry c1
}
set optking {
	frozen_dihedral = ("
		11 4 2 3
	")
}

ee = optimize('scf')
oeprop('DIPOLE', 'QUADRUPOLE', 'MULLIKEN_CHARGES')
f=open( 'psi4out.xyz', 'w' )
f.write( "14  " )
f.write( str(ee) + "\n" )
f.write( MOL.save_string_xyz() )
f.close()
--------------------------------------------------------------------------

    Molecular point group: c1
  Charge       = 0
  Multiplicity = 1
  Basis Set: CC-PVTZ
  Basis Set:
  @DF-RHF Final Energy:  -305.97050134253266
    Total Energy =                       -305.9705013425332254
    Molecular point group: c1
  Basis Set: CC-PVTZ
  Basis Set:
  Basis Set: CC-PVTZ
  Basis Set:
  @DF-RHF Final Energy:  -305.97049544555654
    Total Energy =                       -305.9704954455566508
  Basis Set: CC-PVTZ
  Basis Set:
  Basis Set: CC-PVTZ
  Basis Set:
  @DF-RHF Final Energy:  -305.97078337002768
    Total Energy =                       -305.9707833700277320
  Basis Set: CC-PVTZ
  Basis Set:
  Basis Set: CC-PVTZ
  Basis Set:
  @DF-RHF Final Energy:  -305.97138891330610
    Total Energy =                       -305.9713889133059865
  Basis Set: CC-PVTZ
  Basis Set:
  Basis Set: CC-PVTZ
  Basis Set:
  @DF-RHF Final Energy:  -305.97140083569343
    Total Energy =                       -305.9714008356937143
  Basis Set: CC-PVTZ
  Basis Set:
  Charge       = 0
  Multiplicity = 1
  Basis Set: CC-PVTZ
  Basis Set:

    Orbital Energies (a.u.)
    -----------------------

    Doubly Occupied:

       1A    -20.579981     2A    -20.545328     3A    -11.368410
       4A    -11.286687     5A    -11.240952     6A    -11.217381
       7A     -1.463921     8A     -1.369546     9A     -1.064673
      10A     -0.976489    11A     -0.889565    12A     -0.767497
      13A     -0.702692    14A     -0.680247    15A     -0.674468
      16A     -0.620493    17A     -0.616509    18A     -0.556667
      19A     -0.543707    20A     -0.524709    21A     -0.511332
      22A     -0.497398    23A     -0.458643    24A     -0.440333

  @DF-RHF Final Energy:  -305.97140160025845

   => Energetics <=

    Nuclear Repulsion Energy =            247.1040009452798358
    One-Electron Energy =                -906.9555507973666408
    Two-Electron Energy =                 353.8801482518281318
    DFT Exchange-Correlation Energy =       0.0000000000000000
    Empirical Dispersion Energy =           0.0000000000000000
    PCM Polarization Energy =               0.0000000000000000
    EFP Energy =                            0.0000000000000000
    Total Energy =                       -305.9714016002586732
    Molecular point group: c1
  Basis Set: CC-PVTZ
  Basis Set:

  -Total Gradient:
     Atom            X                  Y                   Z
    ------   -----------------  -----------------  -----------------
       1        0.000005058175    -0.000014258933    -0.000114112789
       2       -0.001357476994    -0.001864373029    -0.006101594941
       3        0.000127231828    -0.000127959736     0.005009423354
       4        0.004225306158     0.006383388032    -0.000664959416
       5        0.000003822265     0.000007776890    -0.000005997564
       6        0.000006883470    -0.000000121265     0.000003614331
       7       -0.000002922841    -0.000026367037    -0.000007282787
       8        0.000004246945    -0.000000471327     0.000004678715
       9        0.000009048584    -0.000005535259     0.000003329213
      10       -0.000005300156    -0.000003452982    -0.000006105086
      11       -0.003053739712    -0.004337893359     0.001908301583
      12       -0.000011451350    -0.000021350625    -0.000011305267
      13        0.000010999835    -0.000005779265    -0.000037071618
      14        0.000038293791     0.000016397895     0.000019082274

  **** Optimization is complete! (in 6 steps) ****
    Final optimized geometry and variables:
    Molecular point group: c1

    Geometry (in Angstrom), charge = 0, multiplicity = 1:

    O            0.157022041013     1.371187109336    -0.134762872012
    C            0.104615736066     0.196839311328    -0.200846073871
    C           -1.162788245553    -0.615841392123    -0.202011669529
    O            1.211026836931    -0.569947203320    -0.237034918676
    C           -2.432050661311     0.218514709997    -0.252402286091
    H           -1.106996204234    -1.310354425542    -1.032917398051
    H           -1.128905563152    -1.230063907987     0.693410748957
    H           -2.465573905536     0.818769901870    -1.152093141297
    H           -3.303196959791    -0.424987367472    -0.239184066977
    H           -2.489915287983     0.891119204227     0.592661842645
    C            1.993472808782    -0.604364904784     0.936785362864
    H            2.317044183730     0.389276265691     1.213316259712
    H            2.851672375442    -1.219126302475     0.719295174467
    H            1.435493042740    -1.047653961231     1.754137411191

  Mulliken Charges: (a.u.)
   Center  Symbol    Alpha    Beta     Spin     Total
       1     O     4.17429  4.17429  0.00000 -0.34857
       2     C     2.79218  2.79218  0.00000  0.41564
       3     C     3.09967  3.09967  0.00000 -0.19935
       4     O     4.16885  4.16885  0.00000 -0.33771
       5     C     3.13914  3.13914  0.00000 -0.27827
       6     H     0.43866  0.43866  0.00000  0.12269
       7     H     0.44614  0.44614  0.00000  0.10771
       8     H     0.44772  0.44772  0.00000  0.10456
       9     H     0.45045  0.45045  0.00000  0.09909
      10     H     0.44781  0.44781  0.00000  0.10438
      11     C     3.03420  3.03420  0.00000 -0.06841
      12     H     0.44931  0.44931  0.00000  0.10138
      13     H     0.44425  0.44425  0.00000  0.11151
      14     H     0.46732  0.46732  0.00000  0.06535

   Total alpha = 24.00000, Total beta = 24.00000, Total charge =  0.00000
