  ==> Input File <==

--------------------------------------------------------------------------
set {
	reference rhf
	basis 6-31G*
}

set_num_threads( 4 )
memory 2 gb

molecule MOL {
0 1

H	 -3.787928	 -0.291921	 -1.659066
C	 -2.772765	 -0.167926	 -1.326121
C	 -2.320808	 1.084189	 -0.937417
C	 -1.920693	 -1.260346	 -1.287057
H	 -2.982660	 1.930577	 -0.968193
C	 -1.015379	 1.242835	 -0.509436
H	 -2.272812	 -2.230189	 -1.588757
C	 -0.613535	 -1.103909	 -0.858996
H	 -0.648453	 2.204249	 -0.204937
C	 -0.157521	 0.149698	 -0.468760
H	 0.049286	 -1.946510	 -0.827166
C	 1.239129	 0.373821	 0.000060
O	 1.970282	 -0.730723	 0.000018
O	 1.664614	 1.432587	 0.341875
C	 3.377318	 -0.566646	 -0.000065
H	 3.695437	 -0.028981	 -0.881264
H	 3.789299	 -1.563704	 0.000236
H	 3.695516	 -0.028316	 0.880770

	symmetry c1
}
set optking {
	frozen_dihedral = ("
		10 12 13 15
	")
}

ee = optimize('scf')
oeprop('DIPOLE', 'QUADRUPOLE', 'MULLIKEN_CHARGES')
f=open( 'psi4out.xyz', 'w' )
f.write( "18  " )
f.write( str(ee) + "\n" )
f.write( MOL.save_string_xyz() )
f.close()
--------------------------------------------------------------------------

    Molecular point group: c1
  Charge       = 0
  Multiplicity = 1
  Basis Set: 6-31G*
  Basis Set:
  @DF-RHF Final Energy:  -457.34828687273136
    Total Energy =                       -457.3482868727313644
    Molecular point group: c1
  Basis Set: 6-31G*
  Basis Set:
  Basis Set: 6-31G*
  Basis Set:
  @DF-RHF Final Energy:  -457.34563688086797
    Total Energy =                       -457.3456368808684829
  Basis Set: 6-31G*
  Basis Set:
  Basis Set: 6-31G*
  Basis Set:
  @DF-RHF Final Energy:  -457.34850530935603
    Total Energy =                       -457.3485053093561419
  Basis Set: 6-31G*
  Basis Set:
  Basis Set: 6-31G*
  Basis Set:
  @DF-RHF Final Energy:  -457.34852581117997
    Total Energy =                       -457.3485258111793428
  Basis Set: 6-31G*
  Basis Set:
  Charge       = 0
  Multiplicity = 1
  Basis Set: 6-31G*
  Basis Set:

    Orbital Energies (a.u.)
    -----------------------

    Doubly Occupied:

       1A    -20.605369     2A    -20.545255     3A    -11.378085
       4A    -11.283650     5A    -11.245819     6A    -11.245639
       7A    -11.244430     8A    -11.242025     9A    -11.237727
      10A    -11.236984    11A     -1.471352    12A     -1.363944
      13A     -1.165497    14A     -1.047763    15A     -1.025082
      16A     -0.977750    17A     -0.860975    18A     -0.834642
      19A     -0.777612    20A     -0.739627    21A     -0.683307
      22A     -0.676379    23A     -0.671452    24A     -0.631500
      25A     -0.624226    26A     -0.598229    27A     -0.587163
      28A     -0.559991    29A     -0.529301    30A     -0.516671
      31A     -0.503216    32A     -0.499122    33A     -0.458854
      34A     -0.444005    35A     -0.345146    36A     -0.341253

  @DF-RHF Final Energy:  -457.34852626043124

   => Energetics <=

    Nuclear Repulsion Energy =            493.1075666485901934
    One-Electron Energy =               -1600.5141103974146972
    Two-Electron Energy =                 650.0580174883931477
    DFT Exchange-Correlation Energy =       0.0000000000000000
    Empirical Dispersion Energy =           0.0000000000000000
    PCM Polarization Energy =               0.0000000000000000
    EFP Energy =                            0.0000000000000000
    Total Energy =                       -457.3485262604314130
    Molecular point group: c1
  Basis Set: 6-31G*
  Basis Set:

  -Total Gradient:
     Atom            X                  Y                   Z
    ------   -----------------  -----------------  -----------------
       1        0.000000096615     0.000000951604    -0.000000643657
       2       -0.000009440407     0.000028304684     0.000017105554
       3       -0.000019588391    -0.000016825667    -0.000032714173
       4        0.000020366484    -0.000008405867    -0.000002345630
       5       -0.000000241798     0.000002565517    -0.000006762892
       6        0.000007749009    -0.000021398629     0.000049759562
       7       -0.000001474402     0.000002184363    -0.000003610129
       8       -0.000025500844    -0.000027106376     0.000026272871
       9        0.000000748205     0.000000676412    -0.000008731527
      10        0.001289685273     0.000815836369    -0.004356941997
      11       -0.000002155020     0.000007783549    -0.000009062136
      12       -0.001882729298    -0.001218136956     0.003850863948
      13        0.000568334844     0.000572727208     0.005436345294
      14        0.000017625090    -0.000021904283     0.000001787589
      15        0.000002868793    -0.000108922132    -0.004983863764
      16        0.000010466756    -0.000010810111     0.000021270810
      17        0.000027554286    -0.000004622891    -0.000000386674
      18       -0.000004365205     0.000007103206     0.000001656948

  **** Optimization is complete! (in 5 steps) ****
    Final optimized geometry and variables:
    Molecular point group: c1

    Geometry (in Angstrom), charge = 0, multiplicity = 1:

    H           -3.856165305719    -0.341221545577    -1.189793415620
    C           -2.842802848701    -0.216912834669    -0.851645052517
    C           -2.392049120186     1.036374633001    -0.464624037616
    C           -1.991915799404    -1.309767739817    -0.804501324822
    H           -3.053225581280     1.883080616059    -0.501682656570
    C           -1.089075891225     1.195532882941    -0.030123330288
    H           -2.343217836922    -2.280308227779    -1.104833657773
    C           -0.686680307776    -1.152604512230    -0.370443512843
    H           -0.723003898051     2.157901592053     0.272308586144
    C           -0.231247097484     0.102241757887     0.016322067074
    H           -0.024393678320    -1.995290161108    -0.332871406560
    C            1.168193565754     0.329165573276     0.475846591403
    O            1.898845509793    -0.778091273782     0.494990138681
    O            1.610674985663     1.399906612713     0.750694969637
    C            3.306307970990    -0.615810287002     0.487270693051
    H            3.609307797014    -0.016294162326    -0.359514148556
    H            3.716804841368    -1.610258053475     0.407373846325
    H            3.643063532565    -0.143768230869     1.398200433342

  Mulliken Charges: (a.u.)
   Center  Symbol    Alpha    Beta     Spin     Total
       1     H     0.39531  0.39531  0.00000  0.20938
       2     C     3.08991  3.08991  0.00000 -0.17982
       3     C     3.10710  3.10710  0.00000 -0.21420
       4     C     3.10710  3.10710  0.00000 -0.21420
       5     H     0.39529  0.39529  0.00000  0.20941
       6     C     3.08632  3.08632  0.00000 -0.17264
       7     H     0.39621  0.39621  0.00000  0.20759
       8     C     3.08729  3.08729  0.00000 -0.17458
       9     H     0.37598  0.37598  0.00000  0.24803
      10     C     3.07760  3.07760  0.00000 -0.15520
      11     H     0.38064  0.38064  0.00000  0.23873
      12     C     2.58007  2.58007  0.00000  0.83986
      13     O     4.31591  4.31591  0.00000 -0.63182
      14     O     4.28917  4.28917  0.00000 -0.57834
      15     C     3.09269  3.09269  0.00000 -0.18538
      16     H     0.41021  0.41021  0.00000  0.17958
      17     H     0.40787  0.40787  0.00000  0.18426
      18     H     0.40533  0.40533  0.00000  0.18935

   Total alpha = 36.00000, Total beta = 36.00000, Total charge = -0.00000
