  ==> Input File <==

--------------------------------------------------------------------------
set {
	reference rhf
	basis 6-31G*
}

set_num_threads( 4 )
memory 2 gb

molecule MOL {
0 1

H	 -3.070817	 -1.274530	 0.083896
O	 -2.310168	 -0.871793	 -0.309793
C	 -2.026376	 0.340750	 0.341611
C	 -0.673256	 0.843270	 -0.132153
H	 -2.792215	 1.080697	 0.115987
H	 -2.013526	 0.200402	 1.421792
C	 0.486613	 -0.083066	 0.235839
H	 -0.715586	 0.970948	 -1.210718
H	 -0.508072	 1.829858	 0.297090
C	 1.840406	 0.433480	 -0.254303
H	 0.300215	 -1.068318	 -0.178947
H	 0.519509	 -0.203625	 1.318070
C	 3.000220	 -0.489290	 0.118523
H	 1.809207	 0.553576	 -1.335192
H	 2.021860	 1.424500	 0.157276
H	 2.864959	 -1.479103	 -0.307933
H	 3.946603	 -0.099227	 -0.243630
H	 3.080049	 -0.602997	 1.196117

	symmetry c1
}
set optking {
	frozen_dihedral = ("
		1 2 3 4
	")
}

ee = optimize('scf')
oeprop('DIPOLE', 'QUADRUPOLE', 'MULLIKEN_CHARGES')
f=open( 'psi4out.xyz', 'w' )
f.write( "18  " )
f.write( str(ee) + "\n" )
f.write( MOL.save_string_xyz() )
f.close()
--------------------------------------------------------------------------

    Molecular point group: c1
  Charge       = 0
  Multiplicity = 1
  Basis Set: 6-31G*
  Basis Set:
  @DF-RHF Final Energy:  -271.17987546094764
    Total Energy =                       -271.1798754609476418
    Molecular point group: c1
  Basis Set: 6-31G*
  Basis Set:
  Basis Set: 6-31G*
  Basis Set:
  @DF-RHF Final Energy:  -271.17987715336875
    Total Energy =                       -271.1798771533688068
  Basis Set: 6-31G*
  Basis Set:
  Basis Set: 6-31G*
  Basis Set:
  @DF-RHF Final Energy:  -271.17987839999017
    Total Energy =                       -271.1798783999900024
  Basis Set: 6-31G*
  Basis Set:
  Charge       = 0
  Multiplicity = 1
  Basis Set: 6-31G*
  Basis Set:

    Orbital Energies (a.u.)
    -----------------------

    Doubly Occupied:

       1A    -20.553037     2A    -11.268082     3A    -11.211966
       4A    -11.210887     5A    -11.206632     6A    -11.204723
       7A     -1.359707     8A     -1.074901     9A     -1.008818
      10A     -0.913261    11A     -0.817802    12A     -0.783817
      13A     -0.705463    14A     -0.639873    15A     -0.627286
      16A     -0.579271    17A     -0.570178    18A     -0.559776
      19A     -0.522941    20A     -0.498625    21A     -0.487293
      22A     -0.467966    23A     -0.458508    24A     -0.450564
      25A     -0.427471

  @DF-RHF Final Energy:  -271.17987860506997

   => Energetics <=

    Nuclear Repulsion Energy =            249.0437556828425727
    One-Electron Energy =                -861.2295714076363993
    Two-Electron Energy =                 341.0059371197237965
    DFT Exchange-Correlation Energy =       0.0000000000000000
    Empirical Dispersion Energy =           0.0000000000000000
    PCM Polarization Energy =               0.0000000000000000
    EFP Energy =                            0.0000000000000000
    Total Energy =                       -271.1798786050700869
    Molecular point group: c1
  Basis Set: 6-31G*
  Basis Set:

  -Total Gradient:
     Atom            X                  Y                   Z
    ------   -----------------  -----------------  -----------------
       1        0.000409595845    -0.000314910322     0.000420850377
       2       -0.000411035046     0.000323040023    -0.000411506397
       3       -0.000179148063     0.000229223159    -0.000337274121
       4        0.000195837928    -0.000237772610     0.000335560980
       5       -0.000006701788    -0.000008240750     0.000006750119
       6        0.000017689012     0.000005565063    -0.000005459170
       7       -0.000010938638     0.000016023125    -0.000005815411
       8       -0.000001105472     0.000002681296    -0.000003169643
       9       -0.000009219579    -0.000002668139    -0.000003887812
      10        0.000000507761     0.000001236409    -0.000000071966
      11       -0.000002044088    -0.000016434173    -0.000003941542
      12        0.000001594445     0.000007018763     0.000006183939
      13       -0.000000095050    -0.000003559719    -0.000007259663
      14       -0.000001670110     0.000003904892     0.000005582733
      15       -0.000001402660    -0.000001477506     0.000005918572
      16        0.000000438778    -0.000005029655     0.000001859746
      17       -0.000003506006    -0.000002658545    -0.000002963774
      18        0.000001202740     0.000004058688    -0.000001356970

  **** Optimization is complete! (in 4 steps) ****
    Final optimized geometry and variables:
    Molecular point group: c1

    Geometry (in Angstrom), charge = 0, multiplicity = 1:

    H           -3.074219403868    -1.273305396191     0.076410636240
    O           -2.313761971036    -0.869265663694    -0.315983189557
    C           -2.026602206503     0.339812261628     0.340887188439
    C           -0.673504714427     0.843270233105    -0.132179276598
    H           -2.793655295471     1.080429761450     0.122204262540
    H           -2.009633705787     0.193865350238     1.420148434522
    C            0.486928719210    -0.080887769485     0.238756351881
    H           -0.714536705268     0.968941552455    -1.211092225292
    H           -0.510294198623     1.831216829877     0.294630427754
    C            1.840332920826     0.433980388596    -0.254206040999
    H            0.300473380778    -1.067739123296    -0.172248053113
    H            0.520817992916    -0.197138482678     1.321551146889
    C            2.999967551521    -0.489409504883     0.117611374672
    H            1.807312494724     0.552775456371    -1.335115139761
    H            2.023344851262     1.425347440278     0.155898595708
    H            2.862393402413    -1.480036022411    -0.306313893621
    H            3.945840737697    -0.101331054797    -0.247890976429
    H            3.082543177788    -0.600808195806     1.195228267037

  Mulliken Charges: (a.u.)
   Center  Symbol    Alpha    Beta     Spin     Total
       1     H     0.28049  0.28049  0.00000  0.43901
       2     O     4.36976  4.36976  0.00000 -0.73951
       3     C     2.99731  2.99731  0.00000  0.00538
       4     C     3.16030  3.16030  0.00000 -0.32060
       5     H     0.42856  0.42856  0.00000  0.14288
       6     H     0.43298  0.43298  0.00000  0.13403
       7     C     3.15309  3.15309  0.00000 -0.30617
       8     H     0.41481  0.41481  0.00000  0.17038
       9     H     0.42416  0.42416  0.00000  0.15169
      10     C     3.15176  3.15176  0.00000 -0.30352
      11     H     0.40821  0.40821  0.00000  0.18357
      12     H     0.42805  0.42805  0.00000  0.14390
      13     C     3.23892  3.23892  0.00000 -0.47784
      14     H     0.42236  0.42236  0.00000  0.15528
      15     H     0.42527  0.42527  0.00000  0.14946
      16     H     0.42092  0.42092  0.00000  0.15816
      17     H     0.42029  0.42029  0.00000  0.15941
      18     H     0.42275  0.42275  0.00000  0.15450

   Total alpha = 25.00000, Total beta = 25.00000, Total charge = -0.00000
