  ==> Input File <==

--------------------------------------------------------------------------
set {
	reference rhf
	basis 6-31G*
}

set_num_threads( 4 )
memory 2 gb

molecule MOL {
0 1

H	 -2.499100	 -0.730091	 -0.745082
O	 -2.347518	 -0.290803	 0.079804
C	 -1.184022	 0.487508	 -0.006784
C	 0.062599	 -0.378592	 0.031606
H	 -1.176523	 1.099369	 -0.904519
H	 -1.187323	 1.153111	 0.844927
O	 1.171513	 0.459272	 -0.058250
H	 0.050699	 -1.089204	 -0.797170
H	 0.078739	 -0.954914	 0.954740
C	 1.029689	 1.509817	 -0.961236
H	 0.202005	 2.161231	 -0.686957
H	 1.946755	 2.082153	 -0.943236
H	 0.861107	 1.144567	 -1.972158

	symmetry c1
}
set optking {
	frozen_dihedral = ("
		10 7 4 8
	")
}

ee = optimize('scf')
oeprop('DIPOLE', 'QUADRUPOLE', 'MULLIKEN_CHARGES')
f=open( 'psi4out.xyz', 'w' )
f.write( "13  " )
f.write( str(ee) + "\n" )
f.write( MOL.save_string_xyz() )
f.close()
--------------------------------------------------------------------------

    Molecular point group: c1
  Charge       = 0
  Multiplicity = 1
  Basis Set: 6-31G*
  Basis Set:
  @DF-RHF Final Energy:  -267.93165712477384
    Total Energy =                       -267.9316571247738921
    Molecular point group: c1
  Basis Set: 6-31G*
  Basis Set:
  Basis Set: 6-31G*
  Basis Set:
  @DF-RHF Final Energy:  -267.93346602962288
    Total Energy =                       -267.9334660296229345
  Basis Set: 6-31G*
  Basis Set:
  Basis Set: 6-31G*
  Basis Set:
  @DF-RHF Final Energy:  -267.94038810870143
    Total Energy =                       -267.9403881087014270
  Basis Set: 6-31G*
  Basis Set:
  Basis Set: 6-31G*
  Basis Set:
  @DF-RHF Final Energy:  -267.94309949894654
    Total Energy =                       -267.9430994989464807
  Basis Set: 6-31G*
  Basis Set:
  @DF-RHF Final Energy:  -267.94375631129560
    Total Energy =                       -267.9437563112957150
  Basis Set: 6-31G*
  Basis Set:
  @DF-RHF Final Energy:  -267.94394644340832
    Total Energy =                       -267.9439464434084357
  Basis Set: 6-31G*
  Basis Set:
  Basis Set: 6-31G*
  Basis Set:
  @DF-RHF Final Energy:  -267.94396884818730
    Total Energy =                       -267.9439688481872395
  Basis Set: 6-31G*
  Basis Set:
  Basis Set: 6-31G*
  Basis Set:
  @DF-RHF Final Energy:  -267.94397409459737
    Total Energy =                       -267.9439740945971948
  Basis Set: 6-31G*
  Basis Set:
  Charge       = 0
  Multiplicity = 1
  Basis Set: 6-31G*
  Basis Set:

    Orbital Energies (a.u.)
    -----------------------

    Doubly Occupied:

       1A    -20.565477     2A    -20.560301     3A    -11.275986
       4A    -11.271428     5A    -11.271313     6A     -1.384876
       7A     -1.369342     8A     -1.013628     9A     -0.937017
      10A     -0.831580    11A     -0.711892    12A     -0.675706
      13A     -0.664137    14A     -0.634457    15A     -0.599554
      16A     -0.574254    17A     -0.534729    18A     -0.504041
      19A     -0.495282    20A     -0.441146    21A     -0.410072

  @DF-RHF Final Energy:  -267.94397443140434

   => Energetics <=

    Nuclear Repulsion Energy =            192.6879572527604410
    One-Electron Energy =                -747.8114296789137825
    Two-Electron Energy =                 287.1794979947488287
    DFT Exchange-Correlation Energy =       0.0000000000000000
    Empirical Dispersion Energy =           0.0000000000000000
    PCM Polarization Energy =               0.0000000000000000
    EFP Energy =                            0.0000000000000000
    Total Energy =                       -267.9439744314044560
    Molecular point group: c1
  Basis Set: 6-31G*
  Basis Set:

  -Total Gradient:
     Atom            X                  Y                   Z
    ------   -----------------  -----------------  -----------------
       1       -0.000008014306    -0.000009840232     0.000001235860
       2        0.000010583528    -0.000001863194    -0.000026372494
       3       -0.000002130196     0.000027933980     0.000043155260
       4       -0.003606724874     0.005087378310    -0.002312774838
       5        0.000002355201    -0.000015514450     0.000009635534
       6        0.000002809587     0.000021284612    -0.000004062149
       7        0.002904054857    -0.004336663970    -0.003280569510
       8        0.002271386059    -0.003164082077     0.002826891443
       9       -0.000008094755    -0.000008924285    -0.000000772033
      10       -0.001564722618     0.002392798446     0.002744504944
      11       -0.000001576514    -0.000011200887     0.000006618674
      12        0.000001478958     0.000014342611    -0.000009015394
      13       -0.000001404926     0.000004351135     0.000001524704

  **** Optimization is complete! (in 9 steps) ****
    Final optimized geometry and variables:
    Molecular point group: c1

    Geometry (in Angstrom), charge = 0, multiplicity = 1:

    H           -2.214959054120    -1.310378347504    -0.396310932578
    O           -2.080041845951    -0.789223459868     0.382876619927
    C           -1.022625427101     0.108559448933     0.173856874287
    C            0.303726208778    -0.643828891663     0.152039649729
    H           -1.181471478414     0.679710370661    -0.736588936287
    H           -1.034532715007     0.801577867862     1.004701970691
    O            1.454467892474     0.149192563094     0.128105691861
    H            0.326944954467    -1.361364567268    -0.670855453690
    H            0.363669439631    -1.224947614692     1.062870733266
    C            1.485182112841     1.212701827687    -0.773522007827
    H            0.806856268349     2.011834529862    -0.489910898576
    H            2.493820363365     1.602109330963    -0.767500527728
    H            1.243985682969     0.893141868411    -1.786266103710

  Mulliken Charges: (a.u.)
   Center  Symbol    Alpha    Beta     Spin     Total
       1     H     0.28075  0.28075  0.00000  0.43849
       2     O     4.36940  4.36940  0.00000 -0.73880
       3     C     3.01530  3.01530  0.00000 -0.03059
       4     C     2.99682  2.99682  0.00000  0.00636
       5     H     0.42769  0.42769  0.00000  0.14463
       6     H     0.40845  0.40845  0.00000  0.18309
       7     O     4.30717  4.30717  0.00000 -0.61433
       8     H     0.43617  0.43617  0.00000  0.12766
       9     H     0.40672  0.40672  0.00000  0.18656
      10     C     3.08449  3.08449  0.00000 -0.16898
      11     H     0.42669  0.42669  0.00000  0.14662
      12     H     0.40923  0.40923  0.00000  0.18154
      13     H     0.43113  0.43113  0.00000  0.13774

   Total alpha = 21.00000, Total beta = 21.00000, Total charge =  0.00000
