  ==> Input File <==

--------------------------------------------------------------------------
set {
	reference rhf
	basis cc-pvtz
}

set_num_threads( 4 )
memory 2 gb

molecule MOL {
0 1

H	 -0.000342	 -0.223902	 -3.352295
C	 -0.027146	 0.371068	 -2.446756
C	 0.024493	 -0.518541	 -1.216015
H	 -0.932586	 0.964979	 -2.449855
H	 0.819708	 1.049865	 -2.473332
N	 -0.042516	 0.263377	 -0.000000
H	 -0.822211	 -1.197105	 -1.225584
H	 0.921114	 -1.142847	 -1.255206
C	 0.024493	 -0.518541	 1.216015
H	 0.682568	 0.950412	 -0.000000
C	 0.625582	 -1.889816	 0.957000
H	 0.644214	 0.018647	 1.926525
H	 -0.955792	 -0.633445	 1.686187
H	 1.617764	 -1.797043	 0.533291
H	 0.693778	 -2.459365	 1.876605
H	 0.015462	 -2.458283	 0.261852

	symmetry c1
}
set optking {
	frozen_dihedral = ("
		12 9 6 3
	")
}

ee = optimize('scf')
oeprop('DIPOLE', 'QUADRUPOLE', 'MULLIKEN_CHARGES')
f=open( 'psi4out.xyz', 'w' )
f.write( "16  " )
f.write( str(ee) + "\n" )
f.write( MOL.save_string_xyz() )
f.close()
--------------------------------------------------------------------------

    Molecular point group: c1
  Charge       = 0
  Multiplicity = 1
  Basis Set: CC-PVTZ
  Basis Set:
  @DF-RHF Final Energy:  -212.37850664930184
    Total Energy =                       -212.3785066493018121
    Molecular point group: c1
  Basis Set: CC-PVTZ
  Basis Set:
  Basis Set: CC-PVTZ
  Basis Set:
  @DF-RHF Final Energy:  -212.37857417357856
    Total Energy =                       -212.3785741735783859
  Basis Set: CC-PVTZ
  Basis Set:
  Basis Set: CC-PVTZ
  Basis Set:
  @DF-RHF Final Energy:  -212.38404491202357
    Total Energy =                       -212.3840449120234553
  Basis Set: CC-PVTZ
  Basis Set:
  Basis Set: CC-PVTZ
  Basis Set:
  @DF-RHF Final Energy:  -212.38540703018742
    Total Energy =                       -212.3854070301874799
  Basis Set: CC-PVTZ
  Basis Set:
  Basis Set: CC-PVTZ
  Basis Set:
  @DF-RHF Final Energy:  -212.38560296841644
    Total Energy =                       -212.3856029684164355
  Basis Set: CC-PVTZ
  Basis Set:
  Basis Set: CC-PVTZ
  Basis Set:
  @DF-RHF Final Energy:  -212.38567145328511
    Total Energy =                       -212.3856714532853402
  Basis Set: CC-PVTZ
  Basis Set:
  Basis Set: CC-PVTZ
  Basis Set:
  @DF-RHF Final Energy:  -212.38567647603656
    Total Energy =                       -212.3856764760367355
  Basis Set: CC-PVTZ
  Basis Set:
  Charge       = 0
  Multiplicity = 1
  Basis Set: CC-PVTZ
  Basis Set:

    Orbital Energies (a.u.)
    -----------------------

    Doubly Occupied:

       1A    -15.525642     2A    -11.240077     3A    -11.237858
       4A    -11.207157     5A    -11.205238     6A     -1.199759
       7A     -1.024602     8A     -0.968775     9A     -0.853654
      10A     -0.795894    11A     -0.662712    12A     -0.629008
      13A     -0.602794    14A     -0.590046    15A     -0.538876
      16A     -0.531964    17A     -0.510247    18A     -0.493463
      19A     -0.481146    20A     -0.471706    21A     -0.354484

  @DF-RHF Final Energy:  -212.38567679541447

   => Energetics <=

    Nuclear Repulsion Energy =            191.7173266280295536
    One-Electron Energy =                -665.9558012336019601
    Two-Electron Energy =                 261.8527978101577673
    DFT Exchange-Correlation Energy =       0.0000000000000000
    Empirical Dispersion Energy =           0.0000000000000000
    PCM Polarization Energy =               0.0000000000000000
    EFP Energy =                            0.0000000000000000
    Total Energy =                       -212.3856767954146108
    Molecular point group: c1
  Basis Set: CC-PVTZ
  Basis Set:

  -Total Gradient:
     Atom            X                  Y                   Z
    ------   -----------------  -----------------  -----------------
       1        0.000001223163     0.000001786906    -0.000002408540
       2        0.000026963882    -0.000004186891    -0.000005064391
       3        0.004469078172     0.000367006325    -0.000000480005
       4        0.000001128450    -0.000011402664     0.000006307985
       5        0.000001791105     0.000007877811    -0.000005179170
       6       -0.005679134619    -0.001141995318    -0.000376711083
       7       -0.000005160778    -0.000019850762    -0.000012989579
       8        0.000003480849     0.000009832065     0.000002844544
       9       -0.003285932066     0.003491557046     0.002264068935
      10        0.000002214281     0.000015586531     0.000008811722
      11       -0.000007266627    -0.000018182665     0.000007348128
      12        0.004465204302    -0.002705406158    -0.001882953106
      13       -0.000003084443     0.000000516969     0.000002970909
      14        0.000002634695     0.000003398128    -0.000015642602
      15        0.000004842264    -0.000001430930    -0.000001847239
      16        0.000002017371     0.000004893602     0.000010923489

  **** Optimization is complete! (in 8 steps) ****
    Final optimized geometry and variables:
    Molecular point group: c1

    Geometry (in Angstrom), charge = 0, multiplicity = 1:

    H           -0.191364450052     0.414572475408    -3.111838146828
    C           -0.210979812332     0.941420063606    -2.164665680758
    C           -0.105764681903    -0.034396110355    -1.003735347389
    H           -1.129729852892     1.510890264070    -2.102962184994
    H            0.618563911034     1.642128547263    -2.160541282906
    N           -0.155138395018     0.679267468268     0.256286685001
    H           -0.942197454699    -0.724138971888    -1.046425742881
    H            0.796980492784    -0.632577381098    -1.122746631768
    C           -0.090255733648    -0.077128478127     1.505327541639
    H            0.552978229621     1.379532521537     0.256118739833
    C            0.496017444225    -1.487545348756     1.435704509537
    H            0.536359165584     0.481334681806     2.191138341596
    H           -1.082131468945    -0.135484033518     1.942000091611
    H            1.517261631686    -1.480464558644     1.071545507460
    H            0.502514473297    -1.918813861997     2.430616981241
    H           -0.083600221847    -2.144435433742     0.799400813904

  Mulliken Charges: (a.u.)
   Center  Symbol    Alpha    Beta     Spin     Total
       1     H     0.45445  0.45445  0.00000  0.09110
       2     C     3.14352  3.14352  0.00000 -0.28704
       3     C     3.02312  3.02312  0.00000 -0.04625
       4     H     0.44931  0.44931  0.00000  0.10138
       5     H     0.46020  0.46020  0.00000  0.07960
       6     N     3.64085  3.64085  0.00000 -0.28170
       7     H     0.45845  0.45845  0.00000  0.08310
       8     H     0.46941  0.46941  0.00000  0.06119
       9     C     3.02949  3.02949  0.00000 -0.05898
      10     H     0.44377  0.44377  0.00000  0.11246
      11     C     3.15871  3.15871  0.00000 -0.31741
      12     H     0.46002  0.46002  0.00000  0.07996
      13     H     0.45597  0.45597  0.00000  0.08806
      14     H     0.45493  0.45493  0.00000  0.09013
      15     H     0.44658  0.44658  0.00000  0.10684
      16     H     0.45122  0.45122  0.00000  0.09756

   Total alpha = 21.00000, Total beta = 21.00000, Total charge = -0.00000
