                              Psi4 1.0.54 Driver

  ==> Input File <==

--------------------------------------------------------------------------
set {
	reference rhf
	basis cc-pvtz
}

set_num_threads( 4 )
memory 2 gb

molecule MOL {
0 1

H	 -2.770230	 -0.601998	 -0.707322
O	 -2.313989	 -0.142475	 -0.025864
C	 -0.943808	 -0.065018	 -0.330000
H	 -0.812293	 -0.225641	 -1.398673
C	 -0.231030	 -1.182113	 0.407592
C	 -0.353797	 1.300461	 0.050970
H	 -0.312800	 -0.992012	 1.473041
H	 -0.738841	 -2.119564	 0.220514
C	 1.246176	 -1.268044	 -0.015480
H	 -0.539537	 2.008579	 -0.751815
H	 -0.889989	 1.662858	 0.920677
C	 1.153605	 1.231851	 0.356834
H	 1.823096	 -1.684665	 0.802361
H	 1.352335	 -1.958223	 -0.845114
C	 1.826409	 0.100723	 -0.416008
H	 1.622968	 2.181508	 0.128734
H	 1.301983	 1.066493	 1.419367
H	 2.897299	 0.112407	 -0.249665
H	 1.683458	 0.265621	 -1.480024

	symmetry c1
}
set optking {
	frozen_dihedral = ("
		1 2 3 4
	")
}

ee,wfn = optimize('scf', return_wfn=True)
oeprop( wfn, 'DIPOLE', 'QUADRUPOLE', 'MULLIKEN_CHARGES')
f=open( 'psi4out.xyz', 'w' )
f.write( "19  " )
f.write( str(ee) + "\n" )
f.write( MOL.save_string_xyz() )
f.close()
--------------------------------------------------------------------------

    Molecular point group: c1
  Charge       = 0
  Multiplicity = 1
  Basis Set: CC-PVTZ
  Basis Set:
  @DF-RHF Final Energy:  -309.16146943054122
    Total Energy =                       -309.1614694305414446
    Molecular point group: c1
  Basis Set: CC-PVTZ
  Basis Set:
  Basis Set: CC-PVTZ
  Basis Set:
  @DF-RHF Final Energy:  -309.16242477093954
    Total Energy =                       -309.1624247709396514
  Basis Set: CC-PVTZ
  Basis Set:
  Basis Set: CC-PVTZ
  Basis Set:
  @DF-RHF Final Energy:  -309.16260499593733
    Total Energy =                       -309.1626049959373859
  Basis Set: CC-PVTZ
  Basis Set:
  Basis Set: CC-PVTZ
  Basis Set:
  @DF-RHF Final Energy:  -309.16260876625734
    Total Energy =                       -309.1626087662571081
  Basis Set: CC-PVTZ
  Basis Set:
  Charge       = 0
  Multiplicity = 1
  Basis Set: CC-PVTZ
  Basis Set:

    Orbital Energies (a.u.)
    -----------------------

    Doubly Occupied:

       1A    -20.542873     2A    -11.268350     3A    -11.213806
       4A    -11.212742     5A    -11.211567     6A    -11.207154
       7A    -11.206662     8A     -1.362272     9A     -1.109093
      10A     -1.001129    11A     -0.989413    12A     -0.844154
      13A     -0.831889    14A     -0.731442    15A     -0.715315
      16A     -0.654906    17A     -0.622835    18A     -0.599552
      19A     -0.563290    20A     -0.545629    21A     -0.538345
      22A     -0.517814    23A     -0.498047    24A     -0.487262
      25A     -0.465918    26A     -0.449754    27A     -0.430328
      28A     -0.408231

  @DF-RHF Final Energy:  -309.16260925312969

   => Energetics <=

    Nuclear Repulsion Energy =            331.7224312616735347
    One-Electron Energy =               -1077.3105377728313670
    Two-Electron Energy =                 436.4254972580281446
    DFT Exchange-Correlation Energy =       0.0000000000000000
    Empirical Dispersion Energy =           0.0000000000000000
    PCM Polarization Energy =               0.0000000000000000
    EFP Energy =                            0.0000000000000000
    Total Energy =                       -309.1626092531296308
    Molecular point group: c1
  Basis Set: CC-PVTZ
  Basis Set:

  -Total Gradient:
     Atom            X                  Y                   Z
    ------   -----------------  -----------------  -----------------
       1       -0.000183752617     0.001442565460    -0.000764882788
       2        0.000233321656    -0.002146472834     0.000980186244
       3       -0.000102527120     0.002113057143    -0.000388695769
       4        0.000047301586    -0.001381816341     0.000224919991
       5        0.000002636166     0.000005833604    -0.000024094427
       6        0.000015125601     0.000003046246    -0.000012388881
       7       -0.000001639466     0.000001098645    -0.000006007068
       8       -0.000003884551    -0.000005324367    -0.000003307323
       9        0.000012429244     0.000003339023     0.000007445710
      10        0.000006754042     0.000009676185    -0.000001818024
      11       -0.000007053341    -0.000026412995    -0.000008305834
      12        0.000003753368     0.000008317661    -0.000014789731
      13        0.000013032020    -0.000007655792     0.000008846627
      14        0.000001613130     0.000006232184     0.000008881770
      15       -0.000019865753    -0.000017654645    -0.000000587301
      16       -0.000006877899     0.000002048911     0.000000629595
      17       -0.000008696919    -0.000001017115     0.000000895803
      18        0.000000555973    -0.000014851664    -0.000003386546
      19       -0.000002225118     0.000005990691    -0.000003542048

  **** Optimization is complete! (in 5 steps) ****
    Final optimized geometry and variables:
    Molecular point group: c1

    Geometry (in Angstrom), charge = 0, multiplicity = 1:

    H           -2.809792420875    -0.505673022734    -0.689833319697
    O           -2.319620840286    -0.080278655307    -0.012505388346
    C           -0.945595336686    -0.074733424695    -0.326957721760
    H           -0.827437925832    -0.231728876943    -1.396616668357
    C           -0.209986851968    -1.195050738041     0.393505583008
    C           -0.368522384142     1.289871044900     0.058450893095
    H           -0.291583339932    -1.020713608527     1.461560596498
    H           -0.701868975562    -2.141300273765     0.198824165522
    C            1.267447015885    -1.257450213455    -0.034333464797
    H           -0.560631065652     1.994822225504    -0.743072172878
    H           -0.919822668121     1.643966332340     0.920988772727
    C            1.135538533275     1.233220214184     0.376818482630
    H            1.851786378351    -1.680890484958     0.774769356980
    H            1.380353371140    -1.932627378538    -0.875751649689
    C            1.828506892517     0.125813572327    -0.412172001426
    H            1.593811852941     2.193091290506     0.169678703871
    H            1.279568446686     1.050423987239     1.437311756501
    H            2.898964090436     0.149942413095    -0.244243853081
    H            1.684314764033     0.306058647119    -1.473733878923

  Mulliken Charges: (a.u.)
   Center  Symbol    Alpha    Beta     Spin     Total
       1     H     0.39237  0.39237  0.00000  0.21526
       2     O     4.20628  4.20628  0.00000 -0.41256
       3     C     2.92714  2.92714  0.00000  0.14573
       4     H     0.46723  0.46723  0.00000  0.06553
       5     C     3.09498  3.09498  0.00000 -0.18997
       6     C     3.10863  3.10863  0.00000 -0.21726
       7     H     0.45327  0.45327  0.00000  0.09347
       8     H     0.44872  0.44872  0.00000  0.10257
       9     C     3.11494  3.11494  0.00000 -0.22988
      10     H     0.45011  0.45011  0.00000  0.09979
      11     H     0.44436  0.44436  0.00000  0.11128
      12     C     3.10072  3.10072  0.00000 -0.20144
      13     H     0.44730  0.44730  0.00000  0.10540
      14     H     0.44825  0.44825  0.00000  0.10351
      15     C     3.10212  3.10212  0.00000 -0.20424
      16     H     0.44226  0.44226  0.00000  0.11547
      17     H     0.45341  0.45341  0.00000  0.09317
      18     H     0.44311  0.44311  0.00000  0.11378
      19     H     0.45481  0.45481  0.00000  0.09038

   Total alpha = 28.00000, Total beta = 28.00000, Total charge = -0.00000

*** Psi4 exiting successfully. Buy a developer a beer!
