  ==> Input File <==

--------------------------------------------------------------------------
set {
	reference rhf
	basis 6-31G*
}

set_num_threads( 4 )
memory 2 gb

molecule MOL {
0 1

H	 -1.827376	 -0.928193	 -0.216177
O	 -2.035884	 -0.060112	 0.102722
C	 -0.955155	 0.788182	 -0.092531
C	 0.353668	 0.040312	 -0.004810
H	 -0.985057	 1.290372	 -1.054184
H	 -0.974469	 1.533190	 0.688632
F	 0.394464	 -0.937475	 -0.903053
F	 1.368604	 0.853376	 -0.249821
F	 0.546173	 -0.502608	 1.179981

	symmetry c1
}
set optking {
	frozen_dihedral = ("
		1 2 3 5
	")
}

ee = optimize('scf')
oeprop('DIPOLE', 'QUADRUPOLE', 'MULLIKEN_CHARGES')
f=open( 'psi4out.xyz', 'w' )
f.write( "9  " )
f.write( str(ee) + "\n" )
f.write( MOL.save_string_xyz() )
f.close()
--------------------------------------------------------------------------

    Molecular point group: c1
  Charge       = 0
  Multiplicity = 1
  Basis Set: 6-31G*
  Basis Set:
  @DF-RHF Final Energy:  -450.66030983023859
    Total Energy =                       -450.6603098302382477
    Molecular point group: c1
  Basis Set: 6-31G*
  Basis Set:
  Basis Set: 6-31G*
  Basis Set:
  @DF-RHF Final Energy:  -450.66047705131615
    Total Energy =                       -450.6604770513164340
  Basis Set: 6-31G*
  Basis Set:
  Basis Set: 6-31G*
  Basis Set:
  @DF-RHF Final Energy:  -450.66053377120591
    Total Energy =                       -450.6605337712057349
  Basis Set: 6-31G*
  Basis Set:
  Charge       = 0
  Multiplicity = 1
  Basis Set: 6-31G*
  Basis Set:

    Orbital Energies (a.u.)
    -----------------------

    Doubly Occupied:

       1A    -26.350598     2A    -26.349560     3A    -26.345372
       4A    -20.587761     5A    -11.507306     6A    -11.309296
       7A     -1.746834     8A     -1.646089     9A     -1.642624
      10A     -1.399819    11A     -1.051056    12A     -0.928410
      13A     -0.836411    14A     -0.835048    15A     -0.815182
      16A     -0.722501    17A     -0.718024    18A     -0.688335
      19A     -0.670221    20A     -0.666932    21A     -0.648833
      22A     -0.636578    23A     -0.622174    24A     -0.526936
      25A     -0.477790

  @DF-RHF Final Energy:  -450.66053549349715

   => Energetics <=

    Nuclear Repulsion Energy =            277.3272200148306865
    One-Electron Energy =               -1176.5161242444619347
    Two-Electron Energy =                 448.5283687361341549
    DFT Exchange-Correlation Energy =       0.0000000000000000
    Empirical Dispersion Energy =           0.0000000000000000
    PCM Polarization Energy =               0.0000000000000000
    EFP Energy =                            0.0000000000000000
    Total Energy =                       -450.6605354934970933
    Molecular point group: c1
  Basis Set: 6-31G*
  Basis Set:

  -Total Gradient:
     Atom            X                  Y                   Z
    ------   -----------------  -----------------  -----------------
       1        0.001377563117    -0.001001581252     0.003349364851
       2       -0.002243823200     0.001975056426    -0.003685451252
       3        0.002558790999    -0.003520189597    -0.001177521851
       4       -0.000143760521    -0.000013437677     0.000145665276
       5       -0.001636653354     0.002482064395     0.001458059165
       6        0.000016981636    -0.000030448651     0.000020327952
       7        0.000002294602     0.000064985686     0.000197270376
       8        0.000128979109     0.000121641165    -0.000106454711
       9       -0.000060372387    -0.000078090495    -0.000201259806

  **** Optimization is complete! (in 4 steps) ****
    Final optimized geometry and variables:
    Molecular point group: c1

    Geometry (in Angstrom), charge = 0, multiplicity = 1:

    H           -1.865055270855    -0.925305752049    -0.258168941945
    O           -2.049334961134    -0.060707528088     0.084239083530
    C           -0.958771162578     0.782743633552    -0.093198790414
    C            0.354800617107     0.046917005077    -0.008401771011
    H           -1.001777954097     1.307011608131    -1.041870175625
    H           -0.974672788069     1.521293712999     0.695961409749
    F            0.388680284263    -0.956149554000    -0.880170919192
    F            1.362007173370     0.855740612651    -0.281112657245
    F            0.559935686800    -0.473471211010     1.186581198453

  Mulliken Charges: (a.u.)
   Center  Symbol    Alpha    Beta     Spin     Total
       1     H     0.27133  0.27133  0.00000  0.45733
       2     O     4.36836  4.36836  0.00000 -0.73672
       3     C     3.03435  3.03435  0.00000 -0.06870
       4     C     2.47903  2.47903  0.00000  1.04194
       5     H     0.40859  0.40859  0.00000  0.18282
       6     H     0.39891  0.39891  0.00000  0.20218
       7     F     4.68535  4.68535  0.00000 -0.37069
       8     F     4.67866  4.67866  0.00000 -0.35732
       9     F     4.67541  4.67541  0.00000 -0.35083

   Total alpha = 25.00000, Total beta = 25.00000, Total charge = -0.00000
