  ==> Input File <==

--------------------------------------------------------------------------
set {
	reference rhf
	basis 6-31G*
}

set_num_threads( 4 )
memory 2 gb

molecule MOL {
0 1

H	 2.770533	 -0.500140	 0.452794
O	 2.016064	 -0.864478	 0.000222
C	 1.050492	 0.053836	 0.000068
C	 -0.318135	 -0.576402	 0.000164
O	 1.285279	 1.218255	 -0.000078
C	 -1.454360	 0.441875	 -0.000474
H	 -0.374042	 -1.230163	 -0.866135
H	 -0.374274	 -1.229227	 0.867154
C	 -2.826123	 -0.230780	 0.000056
H	 -1.357605	 1.085198	 -0.868380
H	 -1.357504	 1.086451	 0.866496
H	 -2.959731	 -0.858053	 -0.876869
H	 -3.619374	 0.509403	 -0.000080
H	 -2.959371	 -0.857318	 0.877556

	symmetry c1
}
set optking {
	frozen_dihedral = ("
		1 2 3 5
	")
}

ee = optimize('scf')
oeprop('DIPOLE', 'QUADRUPOLE', 'MULLIKEN_CHARGES')
f=open( 'psi4out.xyz', 'w' )
f.write( "14  " )
f.write( str(ee) + "\n" )
f.write( MOL.save_string_xyz() )
f.close()
--------------------------------------------------------------------------

    Molecular point group: c1
  Charge       = 0
  Multiplicity = 1
  Basis Set: 6-31G*
  Basis Set:
  @DF-RHF Final Energy:  -305.87542844140376
    Total Energy =                       -305.8754284414034146
    Molecular point group: c1
  Basis Set: 6-31G*
  Basis Set:
  Basis Set: 6-31G*
  Basis Set:
  @DF-RHF Final Energy:  -305.87212962289789
    Total Energy =                       -305.8721296228978872
  Basis Set: 6-31G*
  Basis Set:
  Basis Set: 6-31G*
  Basis Set:
  @DF-RHF Final Energy:  -305.87587690691271
    Total Energy =                       -305.8758769069126515
  Basis Set: 6-31G*
  Basis Set:
  Basis Set: 6-31G*
  Basis Set:
  @DF-RHF Final Energy:  -305.87593684865686
    Total Energy =                       -305.8759368486569201
  Basis Set: 6-31G*
  Basis Set:
  @DF-RHF Final Energy:  -305.87594480619839
    Total Energy =                       -305.8759448061985040
  @DF-RHF Final Energy:  -305.87594749252321
    Total Energy =                       -305.8759474925232098
  @DF-RHF Final Energy:  -305.87594164753506
    Total Energy =                       -305.8759416475350577
  @DF-RHF Final Energy:  -305.87594899279634
    Total Energy =                       -305.8759489927964523
  @DF-RHF Final Energy:  -305.87593321629049
    Total Energy =                       -305.8759332162904343
  @DF-RHF Final Energy:  -305.87594678175543
    Total Energy =                       -305.8759467817554878
  @DF-RHF Final Energy:  -305.87537329782288
    Total Energy =                       -305.8753732978226481
  @DF-RHF Final Energy:  -305.87455923141164
    Total Energy =                       -305.8745592314116379
  @DF-RHF Final Energy:  -305.87592922383288
    Total Energy =                       -305.8759292238329408
  Basis Set: 6-31G*
  Basis Set:
  @DF-RHF Final Energy:  -305.87594787759036
    Total Energy =                       -305.8759478775901357
  Basis Set: 6-31G*
  Basis Set:
  Basis Set: 6-31G*
  Basis Set:
  @DF-RHF Final Energy:  -305.87584242889710
    Total Energy =                       -305.8758424288972719
  Basis Set: 6-31G*
  Basis Set:
  Basis Set: 6-31G*
  Basis Set:
  @DF-RHF Final Energy:  -305.87594852214784
    Total Energy =                       -305.8759485221477803
  Basis Set: 6-31G*
  Basis Set:
  Charge       = 0
  Multiplicity = 1
  Basis Set: 6-31G*
  Basis Set:

    Orbital Energies (a.u.)
    -----------------------

    Doubly Occupied:

       1A    -20.609114     2A    -20.554277     3A    -11.381810
       4A    -11.240971     5A    -11.225362     6A    -11.217031
       7A     -1.471096     8A     -1.366965     9A     -1.082665
      10A     -0.978839    11A     -0.856354    12A     -0.791924
      13A     -0.701657    14A     -0.686732    15A     -0.664801
      16A     -0.621178    17A     -0.584869    18A     -0.571701
      19A     -0.545440    20A     -0.504696    21A     -0.491747
      22A     -0.482157    23A     -0.479734    24A     -0.444391

  @DF-RHF Final Energy:  -305.87594875673176

   => Energetics <=

    Nuclear Repulsion Energy =            239.7772062366830426
    One-Electron Energy =                -892.1952857331810947
    Two-Electron Energy =                 346.5421307397666055
    DFT Exchange-Correlation Energy =       0.0000000000000000
    Empirical Dispersion Energy =           0.0000000000000000
    PCM Polarization Energy =               0.0000000000000000
    EFP Energy =                            0.0000000000000000
    Total Energy =                       -305.8759487567314750
    Molecular point group: c1
  Basis Set: 6-31G*
  Basis Set:

  -Total Gradient:
     Atom            X                  Y                   Z
    ------   -----------------  -----------------  -----------------
       1       -0.002753567730    -0.004145974546     0.008801154999
       2        0.003114932939     0.005325038223    -0.015053258258
       3        0.000379472972    -0.001572713598     0.015226344882
       4       -0.000036945543     0.000008679611     0.000008017515
       5       -0.000692001853     0.000415202429    -0.008992692966
       6       -0.000000330596    -0.000028047878     0.000000741500
       7       -0.000006662589     0.000000502537    -0.000006833067
       8        0.000003472319    -0.000012749333    -0.000001287485
       9       -0.000004750281     0.000007111981     0.000015568861
      10        0.000002528095    -0.000009067061     0.000000851540
      11       -0.000006614188     0.000010328798     0.000002379315
      12        0.000001091792     0.000007288894    -0.000004719868
      13       -0.000002634488    -0.000000393710     0.000006770887
      14        0.000002009149    -0.000005206345    -0.000003037856

  **** Optimization is complete! (in 17 steps) ****
    Final optimized geometry and variables:
    Molecular point group: c1

    Geometry (in Angstrom), charge = 0, multiplicity = 1:

    H            2.815083356266    -0.531489451152     0.318859591729
    O            2.020127545824    -0.859873878043    -0.087610033790
    C            1.051702185719     0.057352486195     0.036063557147
    C           -0.316489030271    -0.573334248033     0.015165454983
    O            1.281045027822     1.220220183835     0.079160022469
    C           -1.455080993635     0.441232822949    -0.022856993034
    H           -0.352260265464    -1.242173099259    -0.840416884268
    H           -0.388883279650    -1.213198366318     0.891337957220
    C           -2.825288832186    -0.234562224710    -0.033396717346
    H           -1.345291783724     1.068703905985    -0.901029671867
    H           -1.374271065625     1.102038784965     0.833348976869
    H           -2.942903952054    -0.877492961903    -0.901175905284
    H           -3.620096001027     0.503497169828    -0.059693279342
    H           -2.971808223403    -0.845928317001     0.852705247877

  Mulliken Charges: (a.u.)
   Center  Symbol    Alpha    Beta     Spin     Total
       1     H     0.26715  0.26715  0.00000  0.46569
       2     O     4.35500  4.35500  0.00000 -0.70999
       3     C     2.62596  2.62596  0.00000  0.74808
       4     C     3.20939  3.20939  0.00000 -0.41878
       5     O     4.27136  4.27136  0.00000 -0.54273
       6     C     3.15252  3.15252  0.00000 -0.30505
       7     H     0.39784  0.39784  0.00000  0.20432
       8     H     0.40113  0.40113  0.00000  0.19773
       9     C     3.24285  3.24285  0.00000 -0.48570
      10     H     0.41048  0.41048  0.00000  0.17905
      11     H     0.41001  0.41001  0.00000  0.17997
      12     H     0.42062  0.42062  0.00000  0.15875
      13     H     0.41450  0.41450  0.00000  0.17100
      14     H     0.42118  0.42118  0.00000  0.15765

   Total alpha = 24.00000, Total beta = 24.00000, Total charge = -0.00000
