  ==> Input File <==

--------------------------------------------------------------------------
set {
	reference rhf
	basis 6-31G*
}

set_num_threads( 4 )
memory 2 gb

molecule MOL {
0 1

H	 -2.646374	 -0.642757	 1.268656
C	 -2.083525	 -0.384536	 0.393091
O	 -0.807605	 -0.127164	 0.768327
F	 -2.118945	 -1.383102	 -0.486752
F	 -2.621877	 0.670592	 -0.209486
C	 0.084052	 0.273579	 -0.209957
C	 0.880980	 -0.958995	 -0.617174
Cl	 1.161972	 1.540268	 0.398979
H	 -0.412232	 0.659301	 -1.083281
F	 1.746765	 -0.655371	 -1.560767
F	 0.049928	 -1.861409	 -1.099295
F	 1.526384	 -1.487172	 0.393991

	symmetry c1
}
set optking {
	frozen_dihedral = ("
		9 6 3 2
	")
}

ee = optimize('scf')
oeprop('DIPOLE', 'QUADRUPOLE', 'MULLIKEN_CHARGES')
f=open( 'psi4out.xyz', 'w' )
f.write( "12  " )
f.write( str(ee) + "\n" )
f.write( MOL.save_string_xyz() )
f.close()
--------------------------------------------------------------------------

    Molecular point group: c1
  Charge       = 0
  Multiplicity = 1
  Basis Set: 6-31G*
  Basis Set:
  @DF-RHF Final Energy: -1146.30560894405471
    Total Energy =                      -1146.3056089440547112
    Molecular point group: c1
  Basis Set: 6-31G*
  Basis Set:
  Basis Set: 6-31G*
  Basis Set:
  @DF-RHF Final Energy: -1146.30941475894906
    Total Energy =                      -1146.3094147589488330
  Basis Set: 6-31G*
  Basis Set:
  Basis Set: 6-31G*
  Basis Set:
  @DF-RHF Final Energy: -1146.31095472383595
    Total Energy =                      -1146.3109547238354935
  Basis Set: 6-31G*
  Basis Set:
  Basis Set: 6-31G*
  Basis Set:
  @DF-RHF Final Energy: -1146.31124429264355
    Total Energy =                      -1146.3112442926444601
  Basis Set: 6-31G*
  Basis Set:
  Basis Set: 6-31G*
  Basis Set:
  @DF-RHF Final Energy: -1146.31131448466863
    Total Energy =                      -1146.3113144846695377
  Basis Set: 6-31G*
  Basis Set:
  Basis Set: 6-31G*
  Basis Set:
  @DF-RHF Final Energy: -1146.31132824929091
    Total Energy =                      -1146.3113282492922735
  Basis Set: 6-31G*
  Basis Set:
  Basis Set: 6-31G*
  Basis Set:
  @DF-RHF Final Energy: -1146.31133190816126
    Total Energy =                      -1146.3113319081617192
  Basis Set: 6-31G*
  Basis Set:
  Charge       = 0
  Multiplicity = 1
  Basis Set: 6-31G*
  Basis Set:

    Orbital Energies (a.u.)
    -----------------------

    Doubly Occupied:

       1A   -104.844278     2A    -26.359280     3A    -26.358811
       4A    -26.357069     5A    -26.345981     6A    -26.345317
       7A    -20.648853     8A    -11.527607     9A    -11.489497
      10A    -11.402374    11A    -10.578892    12A     -8.048255
      13A     -8.044693    14A     -8.044599    15A     -1.761276
      16A     -1.717395    17A     -1.657054    18A     -1.656173
      19A     -1.637886    20A     -1.483702    21A     -1.180591
      22A     -1.045781    23A     -0.990117    24A     -0.918191
      25A     -0.855822    26A     -0.853278    27A     -0.843888
      28A     -0.830791    29A     -0.812794    30A     -0.791235
      31A     -0.727970    32A     -0.723873    33A     -0.706689
      34A     -0.698086    35A     -0.675029    36A     -0.674351
      37A     -0.658238    38A     -0.654835    39A     -0.645862
      40A     -0.639221    41A     -0.594317    42A     -0.573313
      43A     -0.526371    44A     -0.477480    45A     -0.468653

  @DF-RHF Final Energy: -1146.31133241450016

   => Energetics <=

    Nuclear Repulsion Energy =            740.7336432689900221
    One-Electron Energy =               -3064.3384201237963680
    Two-Electron Energy =                1177.2934444403053931
    DFT Exchange-Correlation Energy =       0.0000000000000000
    Empirical Dispersion Energy =           0.0000000000000000
    PCM Polarization Energy =               0.0000000000000000
    EFP Energy =                            0.0000000000000000
    Total Energy =                      -1146.3113324145010665
    Molecular point group: c1
  Basis Set: 6-31G*
  Basis Set:

  -Total Gradient:
     Atom            X                  Y                   Z
    ------   -----------------  -----------------  -----------------
       1       -0.000005761503    -0.000028373601    -0.000011127150
       2        0.000974181510    -0.004984737777    -0.000946736652
       3       -0.001306772976     0.009220574583     0.001948556426
       4       -0.000018890729    -0.000050605734    -0.000012456668
       5       -0.000002865189    -0.000046421292     0.000027665619
       6        0.000052062001    -0.010037295855    -0.003630768039
       7        0.000021405119    -0.000114826976     0.000034491920
       8        0.000000559852     0.000093026384    -0.000066268862
       9        0.000354322142     0.005921776463     0.002606178390
      10       -0.000005243343     0.000080364117    -0.000005469849
      11       -0.000042653370    -0.000045568086     0.000010316320
      12       -0.000020343522    -0.000007912181     0.000045618499

  **** Optimization is complete! (in 8 steps) ****
    Final optimized geometry and variables:
    Molecular point group: c1

    Geometry (in Angstrom), charge = 0, multiplicity = 1:

    H           -2.573376469598    -0.342603745448     1.496901440727
    C           -2.043723836786    -0.080698952138     0.601941980510
    O           -0.743128474492     0.117973634199     0.932003607648
    F           -2.183012460742    -1.034155698849    -0.309532132297
    F           -2.559345627201     1.027539740228     0.070812777940
    C            0.156060785565     0.478259884148    -0.059722299921
    C            1.036151641823    -0.709206439424    -0.441764187449
    CL           1.175828616762     1.782496400130     0.580055567758
    H           -0.334115583611     0.891379787997    -0.923925397154
    F            1.914054237696    -0.343466043712    -1.352517671674
    F            0.303601498646    -1.675350745792    -0.952361472570
    F            1.678172208841    -1.187055988576     0.597428554370

  Mulliken Charges: (a.u.)
   Center  Symbol    Alpha    Beta     Spin     Total
       1     H     0.40182  0.40182  0.00000  0.19635
       2     C     2.56444  2.56444  0.00000  0.87113
       3     O     4.29912  4.29912  0.00000 -0.59823
       4     F     4.68306  4.68306  0.00000 -0.36613
       5     F     4.68760  4.68760  0.00000 -0.37521
       6     C     3.05094  3.05094  0.00000 -0.10188
       7     C     2.43566  2.43566  0.00000  1.12869
       8    CL     8.49743  8.49743  0.00000  0.00514
       9     H     0.36523  0.36523  0.00000  0.26953
      10     F     4.67339  4.67339  0.00000 -0.34679
      11     F     4.67309  4.67309  0.00000 -0.34619
      12     F     4.66821  4.66821  0.00000 -0.33643

   Total alpha = 45.00000, Total beta = 45.00000, Total charge = -0.00000
