                              Psi4 1.0.54 Driver

  ==> Input File <==

--------------------------------------------------------------------------
set {
	reference rhf
	basis cc-pvtz
}

set_num_threads( 4 )
memory 2 gb

molecule MOL {
0 1

H	 1.857177	 -2.852937	 0.295153
C	 1.539407	 -1.937829	 -0.193092
C	 0.490689	 -1.227528	 0.651992
H	 1.130900	 -2.189816	 -1.163940
H	 2.420753	 -1.328676	 -0.350877
N	 0.000297	 0.000045	 0.046090
H	 -0.345002	 -1.900886	 0.783617
H	 0.886798	 -1.038030	 1.653550
C	 -1.359159	 0.315706	 0.454404
C	 0.911129	 1.116915	 0.239761
C	 -2.416729	 -0.286720	 -0.460525
H	 -1.478729	 1.390261	 0.442008
H	 -1.539692	 0.003361	 1.486761
C	 0.821773	 2.163375	 -0.862680
H	 1.922253	 0.734300	 0.256898
H	 0.749833	 1.588451	 1.213183
H	 -2.285276	 0.073129	 -1.473515
H	 -2.371743	 -1.368476	 -0.483209
H	 -3.408658	 -0.007405	 -0.121593
H	 1.048628	 1.716815	 -1.822903
H	 -0.163371	 2.608474	 -0.927131
H	 1.530943	 2.963346	 -0.678462

	symmetry c1
}
set optking {
	frozen_dihedral = ("
		3 6 9 11
	")
}

ee,wfn = optimize('scf', return_wfn=True)
oeprop( wfn, 'DIPOLE', 'QUADRUPOLE', 'MULLIKEN_CHARGES')
f=open( 'psi4out.xyz', 'w' )
f.write( "22  " )
f.write( str(ee) + "\n" )
f.write( MOL.save_string_xyz() )
f.close()
--------------------------------------------------------------------------

    Molecular point group: c1
  Charge       = 0
  Multiplicity = 1
  Basis Set: CC-PVTZ
  Basis Set:
  @DF-RHF Final Energy:  -290.47613373469989
    Total Energy =                       -290.4761337347000563
    Molecular point group: c1
  Basis Set: CC-PVTZ
  Basis Set:
  Basis Set: CC-PVTZ
  Basis Set:
  @DF-RHF Final Energy:  -290.47621632091102
    Total Energy =                       -290.4762163209110213
  Basis Set: CC-PVTZ
  Basis Set:
  Basis Set: CC-PVTZ
  Basis Set:
  @DF-RHF Final Energy:  -290.47622838958858
    Total Energy =                       -290.4762283895886412
  Basis Set: CC-PVTZ
  Basis Set:
  Basis Set: CC-PVTZ
  Basis Set:
  @DF-RHF Final Energy:  -290.47623700089810
    Total Energy =                       -290.4762370008977541
  Basis Set: CC-PVTZ
  Basis Set:
  Charge       = 0
  Multiplicity = 1
  Basis Set: CC-PVTZ
  Basis Set:

    Orbital Energies (a.u.)
    -----------------------

    Doubly Occupied:

       1A    -15.532962     2A    -11.239384     3A    -11.238650
       4A    -11.238288     5A    -11.203938     6A    -11.203852
       7A    -11.202770     8A     -1.225900     9A     -1.025066
      10A     -1.024032    11A     -0.956649    12A     -0.848578
      13A     -0.844005    14A     -0.774080    15A     -0.649741
      16A     -0.644532    17A     -0.619825    18A     -0.593645
      19A     -0.589570    20A     -0.551974    21A     -0.533677
      22A     -0.520616    23A     -0.517438    24A     -0.496680
      25A     -0.494002    26A     -0.487743    27A     -0.462937
      28A     -0.461119    29A     -0.344117

  @DF-RHF Final Energy:  -290.47623717736957

   => Energetics <=

    Nuclear Repulsion Energy =            337.8138413985706734
    One-Electron Energy =               -1061.5286239603472040
    Two-Electron Energy =                 433.2385453844071890
    DFT Exchange-Correlation Energy =       0.0000000000000000
    Empirical Dispersion Energy =           0.0000000000000000
    PCM Polarization Energy =               0.0000000000000000
    EFP Energy =                            0.0000000000000000
    Total Energy =                       -290.4762371773692848
    Molecular point group: c1
  Basis Set: CC-PVTZ
  Basis Set:

  -Total Gradient:
     Atom            X                  Y                   Z
    ------   -----------------  -----------------  -----------------
       1       -0.000006594827     0.000010127046    -0.000006055779
       2       -0.000007069863    -0.000017366032    -0.000011264277
       3        0.000714946372     0.000993674490     0.001443212877
       4        0.000004555838    -0.000005932043    -0.000008996651
       5       -0.000006068085    -0.000021746198     0.000002489123
       6       -0.000949437490    -0.000737747360    -0.002365493007
       7        0.000011473234     0.000023260564    -0.000007713998
       8       -0.000005886542    -0.000002227127     0.000016929083
       9        0.000238440294    -0.001699963144     0.001947833032
      10        0.000052770205    -0.000029579550    -0.000013750268
      11       -0.000004990999     0.001443224451    -0.001023891052
      12        0.000021059155     0.000023453260    -0.000000778758
      13       -0.000010667976    -0.000001167331     0.000007705864
      14       -0.000020622617    -0.000005510003     0.000015034077
      15       -0.000008655886     0.000029280129     0.000014038817
      16       -0.000016641981    -0.000000806861    -0.000013227974
      17        0.000004599482     0.000001129235     0.000005262112
      18       -0.000002385557     0.000011368960    -0.000000103470
      19        0.000005507896    -0.000007735774    -0.000012079858
      20        0.000002174835    -0.000003981631     0.000005235817
      21       -0.000011748063     0.000002723118     0.000001875407
      22       -0.000004757422    -0.000004478200     0.000003738883

  **** Optimization is complete! (in 5 steps) ****
    Final optimized geometry and variables:
    Molecular point group: c1

    Geometry (in Angstrom), charge = 0, multiplicity = 1:

    H            1.830191161813    -2.889040259035     0.364680538724
    C            1.541993039381    -1.968564229136    -0.131692841971
    C            0.479645024213    -1.244532238595     0.684254982237
    H            1.157646243267    -2.213545348758    -1.114167642297
    H            2.438141161622    -1.375138114053    -0.262545537797
    N            0.003318783861    -0.020291715558     0.060847331031
    H           -0.364799638831    -1.912397210191     0.797305437241
    H            0.852799658496    -1.051730879810     1.694140439533
    C           -1.352806413529     0.309841538535     0.478619934425
    C            0.929119007794     1.087746398474     0.232218161288
    C           -2.410701925715    -0.304052674238    -0.427845060731
    H           -1.473206724760     1.384716624265     0.457835449773
    H           -1.524851126971     0.009915729930     1.513575728884
    C            0.810648332948     2.138895742155    -0.862695881481
    H            1.937136434549     0.697504215536     0.214249212341
    H            0.803090164191     1.556811936276     1.212021003055
    H           -2.292395314681     0.059509723853    -1.440936033105
    H           -2.336877216259    -1.385160597402    -0.453186962450
    H           -3.406680823329    -0.047617911759    -0.081819673036
    H            1.006037770232     1.695139794089    -1.831148866974
    H           -0.175024201034     2.586830426594    -0.894748847030
    H            1.527719391937     2.935929051909    -0.697528637622

  Mulliken Charges: (a.u.)
   Center  Symbol    Alpha    Beta     Spin     Total
       1     H     0.45287  0.45287  0.00000  0.09426
       2     C     3.14230  3.14230  0.00000 -0.28459
       3     C     3.04339  3.04339  0.00000 -0.08678
       4     H     0.45145  0.45145  0.00000  0.09709
       5     H     0.45626  0.45626  0.00000  0.08749
       6     N     3.62308  3.62308  0.00000 -0.24616
       7     H     0.45033  0.45033  0.00000  0.09935
       8     H     0.46299  0.46299  0.00000  0.07401
       9     C     3.05044  3.05044  0.00000 -0.10088
      10     C     3.04438  3.04438  0.00000 -0.08876
      11     C     3.13516  3.13516  0.00000 -0.27032
      12     H     0.44947  0.44947  0.00000  0.10107
      13     H     0.45867  0.45867  0.00000  0.08266
      14     C     3.14220  3.14220  0.00000 -0.28440
      15     H     0.44954  0.44954  0.00000  0.10093
      16     H     0.46337  0.46337  0.00000  0.07326
      17     H     0.45218  0.45218  0.00000  0.09563
      18     H     0.45653  0.45653  0.00000  0.08693
      19     H     0.45506  0.45506  0.00000  0.08988
      20     H     0.45159  0.45159  0.00000  0.09681
      21     H     0.45603  0.45603  0.00000  0.08793
      22     H     0.45270  0.45270  0.00000  0.09460

   Total alpha = 29.00000, Total beta = 29.00000, Total charge =  0.00000

*** Psi4 exiting successfully. Buy a developer a beer!
