  ==> Input File <==

--------------------------------------------------------------------------
set {
	reference rhf
	basis cc-pvtz
}

set_num_threads( 4 )
memory 2 gb

molecule MOL {
0 1

H	 -0.366580	 2.045936	 -0.305741
C	 0.351829	 1.335402	 0.083179
N	 -0.000018	 0.000080	 -0.334836
H	 1.327156	 1.599860	 -0.305475
H	 0.380566	 1.445403	 1.171445
C	 0.785846	 -0.436826	 -1.463512
C	 0.055918	 -0.940287	 0.758243
H	 0.448803	 -1.411268	 -1.793599
H	 0.665787	 0.254950	 -2.287660
H	 1.853417	 -0.508013	 -1.234834
H	 -0.597834	 -0.616744	 1.558312
H	 -0.280114	 -1.914274	 0.425742
H	 1.063385	 -1.052657	 1.169940

	symmetry c1
}
set optking {
	frozen_dihedral = ("
		6 3 2 1
	")
}

ee = optimize('scf')
oeprop('DIPOLE', 'QUADRUPOLE', 'MULLIKEN_CHARGES')
f=open( 'psi4out.xyz', 'w' )
f.write( "13  " )
f.write( str(ee) + "\n" )
f.write( MOL.save_string_xyz() )
f.close()
--------------------------------------------------------------------------

    Molecular point group: c1
  Charge       = 0
  Multiplicity = 1
  Basis Set: CC-PVTZ
  Basis Set:
  @DF-RHF Final Energy:  -173.32780197604473
    Total Energy =                       -173.3278019760448387
    Molecular point group: c1
  Basis Set: CC-PVTZ
  Basis Set:
  Basis Set: CC-PVTZ
  Basis Set:
  @DF-RHF Final Energy:  -173.32860664327976
    Total Energy =                       -173.3286066432797554
  Basis Set: CC-PVTZ
  Basis Set:
  Basis Set: CC-PVTZ
  Basis Set:
  @DF-RHF Final Energy:  -173.32872392906435
    Total Energy =                       -173.3287239290644948
  Basis Set: CC-PVTZ
  Basis Set:
  Basis Set: CC-PVTZ
  Basis Set:
  @DF-RHF Final Energy:  -173.32872795220260
    Total Energy =                       -173.3287279522027688
  Basis Set: CC-PVTZ
  Basis Set:
  Charge       = 0
  Multiplicity = 1
  Basis Set: CC-PVTZ
  Basis Set:

    Orbital Energies (a.u.)
    -----------------------

    Doubly Occupied:

       1A    -15.537509     2A    -11.233937     3A    -11.233855
       4A    -11.233689     5A     -1.222729     6A     -0.951864
       7A     -0.950815     8A     -0.807656     9A     -0.640360
      10A     -0.629872    11A     -0.627105    12A     -0.551795
      13A     -0.545554    14A     -0.513782    15A     -0.501228
      16A     -0.498277    17A     -0.346329

  @DF-RHF Final Energy:  -173.32872844622293

   => Energetics <=

    Nuclear Repulsion Energy =            139.1243501319771383
    One-Electron Energy =                -508.8534435253752690
    Two-Electron Energy =                 196.4003649471750350
    DFT Exchange-Correlation Energy =       0.0000000000000000
    Empirical Dispersion Energy =           0.0000000000000000
    PCM Polarization Energy =               0.0000000000000000
    EFP Energy =                            0.0000000000000000
    Total Energy =                       -173.3287284462230673
    Molecular point group: c1
  Basis Set: CC-PVTZ
  Basis Set:

  -Total Gradient:
     Atom            X                  Y                   Z
    ------   -----------------  -----------------  -----------------
       1       -0.002337394479    -0.000454086707     0.003569809883
       2        0.003788480066     0.000080909715    -0.003794402842
       3       -0.003643402906     0.001503484437    -0.001799347146
       4       -0.000001762896    -0.000004043624    -0.000004485457
       5        0.000003026256     0.000012975936     0.000018164103
       6        0.002193063779    -0.001136230540     0.002057690214
       7       -0.000044835684     0.000045657242    -0.000062598231
       8        0.000005731780    -0.000006513544    -0.000007073042
       9        0.000013248314    -0.000003494898    -0.000019038511
      10        0.000012058742    -0.000003584143     0.000001949349
      11        0.000003433461    -0.000012660829     0.000016811345
      12        0.000001876656    -0.000021188562     0.000018616640
      13        0.000006476912    -0.000001224483     0.000003903695

  **** Optimization is complete! (in 5 steps) ****
    Final optimized geometry and variables:
    Molecular point group: c1

    Geometry (in Angstrom), charge = 0, multiplicity = 1:

    H           -0.684697408363     2.081273011707    -0.077622923448
    C            0.034325333906     1.364816509824     0.304221285763
    N           -0.317077199189     0.011897075330    -0.096418827851
    H            1.030406305961     1.652986471057    -0.024034041789
    H            0.014080880285     1.455591317188     1.383278514064
    C            0.455765053013    -0.439115307926    -1.229070135342
    C           -0.253332626131    -0.933801556777     0.993950156337
    H            0.096422296677    -1.403962813295    -1.564504145415
    H            0.349843640936     0.256958210097    -2.052220659921
    H            1.522043630595    -0.533235155367    -1.003095276783
    H           -0.911710255318    -0.623841096598     1.795060693169
    H           -0.583635068275    -1.907312085943     0.653405300222
    H            0.753793547903    -1.047310452839     1.406632085130

  Mulliken Charges: (a.u.)
   Center  Symbol    Alpha    Beta     Spin     Total
       1     H     0.45055  0.45055  0.00000  0.09890
       2     C     3.08634  3.08634  0.00000 -0.17268
       3     N     3.59938  3.59938  0.00000 -0.19876
       4     H     0.46622  0.46622  0.00000  0.06755
       5     H     0.45893  0.45893  0.00000  0.08215
       6     C     3.09111  3.09111  0.00000 -0.18223
       7     C     3.08973  3.08973  0.00000 -0.17946
       8     H     0.45338  0.45338  0.00000  0.09324
       9     H     0.45189  0.45189  0.00000  0.09622
      10     H     0.47337  0.47337  0.00000  0.05326
      11     H     0.45218  0.45218  0.00000  0.09564
      12     H     0.45330  0.45330  0.00000  0.09339
      13     H     0.47361  0.47361  0.00000  0.05278

   Total alpha = 17.00000, Total beta = 17.00000, Total charge =  0.00000
