  ==> Input File <==

--------------------------------------------------------------------------
set {
	reference rhf
	basis 6-31G*
}

set_num_threads( 4 )
memory 2 gb

molecule MOL {
0 1

H	 2.046534	 -0.756867	 1.270511
C	 1.951159	 -0.223429	 0.317018
C	 0.692068	 0.589600	 0.160137
O	 2.806095	 -0.310695	 -0.503713
C	 -0.558097	 -0.297372	 0.091132
H	 0.791645	 1.202255	 -0.728243
H	 0.616171	 1.253469	 1.020572
C	 -1.850991	 0.512573	 -0.019058
H	 -0.476753	 -0.965681	 -0.762987
H	 -0.604799	 -0.930658	 0.975228
C	 -3.096943	 -0.368295	 -0.099594
H	 -1.800724	 1.150330	 -0.898172
H	 -1.931651	 1.177355	 0.838044
H	 -3.060452	 -1.020287	 -0.967456
H	 -3.996858	 0.233488	 -0.175704
H	 -3.191959	 -0.995686	 0.782074

	symmetry c1
}
set optking {
	frozen_dihedral = ("
		4 2 3 6
	")
}

ee = optimize('scf')
oeprop('DIPOLE', 'QUADRUPOLE', 'MULLIKEN_CHARGES')
f=open( 'psi4out.xyz', 'w' )
f.write( "16  " )
f.write( str(ee) + "\n" )
f.write( MOL.save_string_xyz() )
f.close()
--------------------------------------------------------------------------

    Molecular point group: c1
  Charge       = 0
  Multiplicity = 1
  Basis Set: 6-31G*
  Basis Set:
  @DF-RHF Final Energy:  -270.01978806303987
    Total Energy =                       -270.0197880630399823
    Molecular point group: c1
  Basis Set: 6-31G*
  Basis Set:
  Basis Set: 6-31G*
  Basis Set:
  @DF-RHF Final Energy:  -270.01905035492950
    Total Energy =                       -270.0190503549295613
  Basis Set: 6-31G*
  Basis Set:
  Basis Set: 6-31G*
  Basis Set:
  @DF-RHF Final Energy:  -270.01981729652198
    Total Energy =                       -270.0198172965219214
  Basis Set: 6-31G*
  Basis Set:
  Basis Set: 6-31G*
  Basis Set:
  @DF-RHF Final Energy:  -270.01975959698001
    Total Energy =                       -270.0197595969801228
  Basis Set: 6-31G*
  Basis Set:
  Basis Set: 6-31G*
  Basis Set:
  @DF-RHF Final Energy:  -270.01982572556210
    Total Energy =                       -270.0198257255621002
  Basis Set: 6-31G*
  Basis Set:
  Charge       = 0
  Multiplicity = 1
  Basis Set: 6-31G*
  Basis Set:

    Orbital Energies (a.u.)
    -----------------------

    Doubly Occupied:

       1A    -20.562493     2A    -11.326417     3A    -11.236787
       4A    -11.235018     5A    -11.229180     6A    -11.218243
       7A     -1.402242     8A     -1.096225     9A     -1.018676
      10A     -0.906064    11A     -0.812279    12A     -0.792359
      13A     -0.679646    14A     -0.646476    15A     -0.629780
      16A     -0.602923    17A     -0.579981    18A     -0.551641
      19A     -0.526200    20A     -0.511151    21A     -0.487687
      22A     -0.480970    23A     -0.478175    24A     -0.408826

  @DF-RHF Final Energy:  -270.01982594760295

   => Energetics <=

    Nuclear Repulsion Energy =            229.2023387669857755
    One-Electron Energy =                -819.6054515687749245
    Two-Electron Energy =                 320.3832868541862808
    DFT Exchange-Correlation Energy =       0.0000000000000000
    Empirical Dispersion Energy =           0.0000000000000000
    PCM Polarization Energy =               0.0000000000000000
    EFP Energy =                            0.0000000000000000
    Total Energy =                       -270.0198259476028397
    Molecular point group: c1
  Basis Set: 6-31G*
  Basis Set:

  -Total Gradient:
     Atom            X                  Y                   Z
    ------   -----------------  -----------------  -----------------
       1        0.000003792271     0.000004337947    -0.000002057318
       2        0.000461036826     0.000763955015     0.000402251502
       3       -0.000443656080    -0.000752437749    -0.000508273682
       4       -0.000279687712    -0.000466411190    -0.000227268344
       5        0.000017345343     0.000015637280     0.000010386158
       6        0.000241583235     0.000426054052     0.000305227671
       7       -0.000007746760    -0.000000801659     0.000000609247
       8       -0.000012904708     0.000010890849     0.000022946602
       9        0.000007752183    -0.000000920953     0.000001793936
      10       -0.000000138553    -0.000000102415     0.000004774706
      11        0.000010710980    -0.000001142920    -0.000016584269
      12        0.000001338416     0.000000173345     0.000003931544
      13       -0.000003526552     0.000000883869     0.000005114221
      14       -0.000001999106    -0.000007682789    -0.000000632740
      15        0.000005873240     0.000002201230    -0.000005233057
      16        0.000000226978     0.000005366088     0.000003013823

  **** Optimization is complete! (in 6 steps) ****
    Final optimized geometry and variables:
    Molecular point group: c1

    Geometry (in Angstrom), charge = 0, multiplicity = 1:

    H            2.045280269366    -0.743868297154     1.281965896900
    C            1.960462241905    -0.198999878626     0.334187991684
    C            0.708168683019     0.623335898877     0.175290471246
    O            2.810845619176    -0.299066740300    -0.489961697507
    C           -0.540113795890    -0.268326333162     0.105467622917
    H            0.808027520156     1.228792463710    -0.717942439162
    H            0.627122500585     1.290899910493     1.031552659461
    C           -1.835065531873     0.538483575328    -0.002594861808
    H           -0.454367501945    -0.934129888969    -0.749747930825
    H           -0.584421639307    -0.902973376421     0.988757416397
    C           -3.078137468815    -0.346184067211    -0.084593983399
    H           -1.786482379675     1.177551573779    -0.880863477943
    H           -1.917671591180     1.201774309840     0.855502571754
    H           -3.038845780040    -0.998167196782    -0.952294744642
    H           -3.979609815710     0.253126795810    -0.161722496711
    H           -3.172413727308    -0.973858014629     0.796925189783

  Mulliken Charges: (a.u.)
   Center  Symbol    Alpha    Beta     Spin     Total
       1     H     0.43179  0.43179  0.00000  0.13641
       2     C     2.83186  2.83186  0.00000  0.33629
       3     C     3.20595  3.20595  0.00000 -0.41189
       4     O     4.23644  4.23644  0.00000 -0.47288
       5     C     3.16427  3.16427  0.00000 -0.32854
       6     H     0.39968  0.39968  0.00000  0.20064
       7     H     0.41216  0.41216  0.00000  0.17567
       8     C     3.15155  3.15155  0.00000 -0.30310
       9     H     0.41127  0.41127  0.00000  0.17746
      10     H     0.41915  0.41915  0.00000  0.16170
      11     C     3.24056  3.24056  0.00000 -0.48112
      12     H     0.41828  0.41828  0.00000  0.16344
      13     H     0.42096  0.42096  0.00000  0.15808
      14     H     0.41906  0.41906  0.00000  0.16189
      15     H     0.41646  0.41646  0.00000  0.16707
      16     H     0.42055  0.42055  0.00000  0.15889

   Total alpha = 24.00000, Total beta = 24.00000, Total charge =  0.00000
