  ==> Input File <==

--------------------------------------------------------------------------
set {
	reference rhf
	basis 6-31G*
}

set_num_threads( 4 )
memory 2 gb

molecule MOL {
0 1

O	 -1.028570	 -0.329247	 2.377651
C	 -1.171982	 0.386528	 1.439903
C	 -1.982480	 1.654375	 1.437971
O	 -0.632575	 0.154573	 0.251549
H	 -2.771647	 1.583428	 0.698289
H	 -2.407076	 1.814738	 2.417685
H	 -1.351164	 2.492056	 1.165046
C	 0.160891	 -1.019931	 0.106212
C	 1.589627	 -0.672828	 0.480843
H	 0.089836	 -1.367806	 -0.916050
H	 -0.238459	 -1.792301	 0.749618
C	 2.246377	 0.346236	 -0.452210
H	 2.163194	 -1.597435	 0.473358
H	 1.604769	 -0.303424	 1.502885
C	 3.691736	 0.652107	 -0.061850
H	 2.219579	 -0.032311	 -1.472055
H	 1.666466	 1.263317	 -0.447249
H	 4.134505	 1.377213	 -0.737283
H	 4.305508	 -0.243868	 -0.089969
H	 3.748266	 1.059562	 0.943567

	symmetry c1
}
set optking {
	frozen_dihedral = ("
		2 4 8 10
	")
}

ee = optimize('scf')
oeprop('DIPOLE', 'QUADRUPOLE', 'MULLIKEN_CHARGES')
f=open( 'psi4out.xyz', 'w' )
f.write( "20  " )
f.write( str(ee) + "\n" )
f.write( MOL.save_string_xyz() )
f.close()
--------------------------------------------------------------------------

    Molecular point group: c1
  Charge       = 0
  Multiplicity = 1
  Basis Set: 6-31G*
  Basis Set:
  @DF-RHF Final Energy:  -383.94319286677643
    Total Energy =                       -383.9431928667767124
    Molecular point group: c1
  Basis Set: 6-31G*
  Basis Set:
  Basis Set: 6-31G*
  Basis Set:
  @DF-RHF Final Energy:  -383.94426995632978
    Total Energy =                       -383.9442699563296628
  Basis Set: 6-31G*
  Basis Set:
  Basis Set: 6-31G*
  Basis Set:
  @DF-RHF Final Energy:  -383.94145520092115
    Total Energy =                       -383.9414552009214958
  Basis Set: 6-31G*
  Basis Set:
  Basis Set: 6-31G*
  Basis Set:
  @DF-RHF Final Energy:  -383.94468574962661
    Total Energy =                       -383.9446857496262737
  Basis Set: 6-31G*
  Basis Set:
  Basis Set: 6-31G*
  Basis Set:
  @DF-RHF Final Energy:  -383.94471451162349
    Total Energy =                       -383.9447145116234879
  Basis Set: 6-31G*
  Basis Set:
  Charge       = 0
  Multiplicity = 1
  Basis Set: 6-31G*
  Basis Set:

    Orbital Energies (a.u.)
    -----------------------

    Doubly Occupied:

       1A    -20.601483     2A    -20.544505     3A    -11.375924
       4A    -11.281962     5A    -11.233413     6A    -11.222047
       7A    -11.219767     8A    -11.212232     9A     -1.466923
      10A     -1.362704    11A     -1.083254    12A     -1.028461
      13A     -0.979593    14A     -0.886653    15A     -0.817907
      16A     -0.754353    17A     -0.697469    18A     -0.684126
      19A     -0.660968    20A     -0.631232    21A     -0.596247
      22A     -0.594510    23A     -0.570963    24A     -0.565663
      25A     -0.537301    26A     -0.525073    27A     -0.516288
      28A     -0.490536    29A     -0.474243    30A     -0.465848
      31A     -0.444510    32A     -0.437690

  @DF-RHF Final Energy:  -383.94471407597547

   => Energetics <=

    Nuclear Repulsion Energy =            390.3543291046065065
    One-Electron Energy =               -1296.6703989163502229
    Two-Electron Energy =                 522.3713557357687023
    DFT Exchange-Correlation Energy =       0.0000000000000000
    Empirical Dispersion Energy =           0.0000000000000000
    PCM Polarization Energy =               0.0000000000000000
    EFP Energy =                            0.0000000000000000
    Total Energy =                       -383.9447140759750710
    Molecular point group: c1
  Basis Set: 6-31G*
  Basis Set:

  -Total Gradient:
     Atom            X                  Y                   Z
    ------   -----------------  -----------------  -----------------
       1        0.000006349798    -0.000008645857    -0.000068395069
       2       -0.000458617055    -0.000310690867    -0.000138143104
       3       -0.000003122386    -0.000015662847    -0.000000504637
       4        0.000656562089     0.000515977563     0.000292981888
       5       -0.000021278315     0.000017728225    -0.000005049505
       6       -0.000007213141     0.000005086606     0.000002049338
       7        0.000005856288    -0.000033399894    -0.000002596287
       8        0.000445056019     0.000297725993    -0.000247856560
       9       -0.000107154621     0.000014631525    -0.000017441948
      10       -0.000508612798    -0.000434248599     0.000199329596
      11        0.000014789700    -0.000022576274     0.000032729713
      12        0.000040629339    -0.000071442639    -0.000035033723
      13       -0.000057151442    -0.000015912632    -0.000047022302
      14        0.000031091467    -0.000017691857    -0.000003518642
      15       -0.000024420808     0.000081276259     0.000055496213
      16        0.000014545490    -0.000021618047     0.000007799582
      17       -0.000024325849     0.000008517873    -0.000033170173
      18       -0.000002987635     0.000019938796     0.000019887090
      19       -0.000019985684     0.000003155319    -0.000025798084
      20        0.000019989546    -0.000012148644     0.000014256617

  **** Optimization is complete! (in 6 steps) ****
    Final optimized geometry and variables:
    Molecular point group: c1

    Geometry (in Angstrom), charge = 0, multiplicity = 1:

    O           -1.391101539954    -0.424122524435     1.710956534727
    C           -1.550909908502     0.249977752752     0.745093939175
    C           -2.400387843060     1.491161226358     0.694909795263
    O           -0.999139772314    -0.000967871508    -0.434624656405
    H           -3.182617930688     1.369264088591    -0.045362582552
    H           -2.834653330374     1.672935454921     1.666626578097
    H           -1.793749691485     2.337675029236     0.394585488197
    C           -0.177556210404    -1.159437271027    -0.571709797461
    C            1.277138676318    -0.862313328323    -0.245261234307
    H           -0.293800049934    -1.458135623441    -1.604749229716
    H           -0.562811908036    -1.941399997055     0.064429772387
    C            1.913544052434     0.191021665105    -1.153863096368
    H            1.827278068085    -1.797718572728    -0.329739768031
    H            1.347380693574    -0.554986595825     0.793933555097
    C            3.372961923572     0.469583699955    -0.796321442116
    H            1.851420508452    -0.141342806455    -2.188168722112
    H            1.342872793772     1.112596569135    -1.093779813160
    H            3.800387288882     1.221563531164    -1.452086291252
    H            3.978021532379    -0.428444616886    -0.884142518757
    H            3.464500575709     0.829966183013     0.224309957887

  Mulliken Charges: (a.u.)
   Center  Symbol    Alpha    Beta     Spin     Total
       1     O     4.28418  4.28418  0.00000 -0.56835
       2     C     2.61981  2.61981  0.00000  0.76038
       3     C     3.28172  3.28172  0.00000 -0.56343
       4     O     4.30891  4.30891  0.00000 -0.61782
       5     H     0.40016  0.40016  0.00000  0.19969
       6     H     0.39706  0.39706  0.00000  0.20588
       7     H     0.40087  0.40087  0.00000  0.19826
       8     C     3.00972  3.00972  0.00000 -0.01945
       9     C     3.16881  3.16881  0.00000 -0.33762
      10     H     0.41124  0.41124  0.00000  0.17752
      11     H     0.39869  0.39869  0.00000  0.20262
      12     C     3.15412  3.15412  0.00000 -0.30824
      13     H     0.41966  0.41966  0.00000  0.16068
      14     H     0.40715  0.40715  0.00000  0.18569
      15     C     3.23998  3.23998  0.00000 -0.47997
      16     H     0.42334  0.42334  0.00000  0.15332
      17     H     0.41495  0.41495  0.00000  0.17009
      18     H     0.41808  0.41808  0.00000  0.16383
      19     H     0.42153  0.42153  0.00000  0.15694
      20     H     0.42002  0.42002  0.00000  0.15995

   Total alpha = 32.00000, Total beta = 32.00000, Total charge =  0.00000
