                              Psi4 1.0.54 Driver

  ==> Input File <==

--------------------------------------------------------------------------
set {
	reference rhf
	basis cc-pvtz
}

set_num_threads( 4 )
memory 2 gb

molecule MOL {
0 1

O	 -2.071633	 -1.227563	 -0.223463
C	 -1.652164	 -0.152425	 0.058082
C	 -0.327811	 0.006324	 0.778296
C	 -2.402515	 1.108629	 -0.298924
C	 0.739363	 0.595168	 -0.152203
H	 -0.447703	 0.642208	 1.649159
H	 -0.017179	 -0.975189	 1.112927
C	 2.094239	 0.754020	 0.531396
H	 0.410724	 1.562712	 -0.523079
H	 0.840026	 -0.050817	 -1.017613
C	 3.161978	 1.327582	 -0.393873
H	 1.986206	 1.396827	 1.400678
H	 2.420586	 -0.212386	 0.904352
H	 2.879910	 2.310570	 -0.756098
H	 3.314789	 0.689180	 -1.257274
H	 4.111996	 1.424405	 0.118465
H	 -3.240910	 0.874416	 -0.936711
H	 -1.747554	 1.818823	 -0.790984
H	 -2.760419	 1.579708	 0.610998

	symmetry c1
}
set optking {
	frozen_dihedral = ("
		5 3 2 4
	")
}

ee,wfn = optimize('scf', return_wfn=True)
oeprop( wfn, 'DIPOLE', 'QUADRUPOLE', 'MULLIKEN_CHARGES')
f=open( 'psi4out.xyz', 'w' )
f.write( "19  " )
f.write( str(ee) + "\n" )
f.write( MOL.save_string_xyz() )
f.close()
--------------------------------------------------------------------------

    Molecular point group: c1
  Charge       = 0
  Multiplicity = 1
  Basis Set: CC-PVTZ
  Basis Set:
  @DF-RHF Final Energy:  -309.17632452972970
    Total Energy =                       -309.1763245297298681
    Molecular point group: c1
  Basis Set: CC-PVTZ
  Basis Set:
  Basis Set: CC-PVTZ
  Basis Set:
  @DF-RHF Final Energy:  -309.17667397724455
    Total Energy =                       -309.1766739772446044
  Basis Set: CC-PVTZ
  Basis Set:
  Basis Set: CC-PVTZ
  Basis Set:
  @DF-RHF Final Energy:  -309.17662964160752
    Total Energy =                       -309.1766296416072919
  Basis Set: CC-PVTZ
  Basis Set:
  Basis Set: CC-PVTZ
  Basis Set:
  @DF-RHF Final Energy:  -309.17674770878074
    Total Energy =                       -309.1767477087806810
  Basis Set: CC-PVTZ
  Basis Set:
  @DF-RHF Final Energy:  -309.17681731675066
    Total Energy =                       -309.1768173167506575
  @DF-RHF Final Energy:  -309.17684296164390
    Total Energy =                       -309.1768429616437288
  @DF-RHF Final Energy:  -309.17684704578176
    Total Energy =                       -309.1768470457817557
  @DF-RHF Final Energy:  -309.17685499898136
    Total Energy =                       -309.1768549989812414
  Basis Set: CC-PVTZ
  Basis Set:
  @DF-RHF Final Energy:  -309.17686825405104
    Total Energy =                       -309.1768682540513851
  Basis Set: CC-PVTZ
  Basis Set:
  Basis Set: CC-PVTZ
  Basis Set:
  @DF-RHF Final Energy:  -309.17687464051397
    Total Energy =                       -309.1768746405139154
  Basis Set: CC-PVTZ
  Basis Set:
  Basis Set: CC-PVTZ
  Basis Set:
  @DF-RHF Final Energy:  -309.17687918852766
    Total Energy =                       -309.1768791885277210
  Basis Set: CC-PVTZ
  Basis Set:
  Charge       = 0
  Multiplicity = 1
  Basis Set: CC-PVTZ
  Basis Set:

    Orbital Energies (a.u.)
    -----------------------

    Doubly Occupied:

       1A    -20.537630     2A    -11.319315     3A    -11.230793
       4A    -11.228179     5A    -11.226166     6A    -11.224437
       7A    -11.214644     8A     -1.397143     9A     -1.094785
      10A     -1.030210    11A     -0.983626    12A     -0.893669
      13A     -0.809503    14A     -0.734513    15A     -0.665612
      16A     -0.648146    17A     -0.627393    18A     -0.615459
      19A     -0.582446    20A     -0.576113    21A     -0.555178
      22A     -0.535584    23A     -0.509302    24A     -0.506781
      25A     -0.485292    26A     -0.477647    27A     -0.473502
      28A     -0.399658

  @DF-RHF Final Energy:  -309.17687930851298

   => Energetics <=

    Nuclear Repulsion Energy =            301.6798064949775835
    One-Electron Energy =               -1016.5479169321442896
    Two-Electron Energy =                 405.6912311286538397
    DFT Exchange-Correlation Energy =       0.0000000000000000
    Empirical Dispersion Energy =           0.0000000000000000
    PCM Polarization Energy =               0.0000000000000000
    EFP Energy =                            0.0000000000000000
    Total Energy =                       -309.1768793085128664
    Molecular point group: c1
  Basis Set: CC-PVTZ
  Basis Set:

  -Total Gradient:
     Atom            X                  Y                   Z
    ------   -----------------  -----------------  -----------------
       1        0.000022492767     0.000039644994     0.000012073449
       2       -0.000240430825     0.000039875535     0.000334720161
       3        0.000167126528    -0.000290809208    -0.000192592672
       4        0.000116216947     0.000004384244    -0.000217812390
       5       -0.000074347153     0.000212771324     0.000062870734
       6       -0.000007945197    -0.000001977957     0.000002704295
       7        0.000001400169    -0.000002758389     0.000001390629
       8        0.000002739107    -0.000008967023    -0.000000653116
       9        0.000001842983     0.000001655682    -0.000002657581
      10        0.000000481227     0.000003876616     0.000001786692
      11        0.000001011239     0.000006808770     0.000001509886
      12        0.000000591467    -0.000001317672    -0.000001984840
      13       -0.000000467314    -0.000001099359    -0.000000463958
      14        0.000000774833     0.000000397437    -0.000002641467
      15       -0.000000961465    -0.000000701594     0.000003198794
      16       -0.000000456556     0.000001857124     0.000000114687
      17        0.000009686840     0.000008903519     0.000003308877
      18       -0.000001995084    -0.000004176010     0.000004729376
      19        0.000002239481    -0.000008368029    -0.000009601556

  **** Optimization is complete! (in 12 steps) ****
    Final optimized geometry and variables:
    Molecular point group: c1

    Geometry (in Angstrom), charge = 0, multiplicity = 1:

    O           -2.032561920462    -1.567644531796    -0.176501985569
    C           -1.608983069370    -0.477547552125     0.033117668292
    C           -0.279142279613    -0.274552533084     0.731852248818
    C           -2.374484826241     0.754271716960    -0.395651530099
    C            0.815412836666     0.260740465548    -0.198286204376
    H           -0.417619018096     0.415648432510     1.559442627891
    H            0.015549941846    -1.232350428419     1.138629570465
    C            2.169988239146     0.366597251194     0.496974506704
    H            0.535827545919     1.237774935028    -0.579772519339
    H            0.903314652074    -0.396141320312    -1.058917726703
    C            3.268135902134     0.896460548558    -0.418597480073
    H            2.078057359480     1.014838024604     1.364067324952
    H            2.454612910683    -0.610735157758     0.874864325176
    H            3.028140941457     1.888803894221    -0.785627330708
    H            3.405409973692     0.250489413134    -1.279089454723
    H            4.215877818882     0.957695090894     0.103225338612
    H           -3.333520795492     0.463269415080    -0.795533513717
    H           -1.819703395867     1.294818093047    -1.153733186989
    H           -2.513339624783     1.426083798516     0.443986413538

  Mulliken Charges: (a.u.)
   Center  Symbol    Alpha    Beta     Spin     Total
       1     O     4.17329  4.17329  0.00000 -0.34658
       2     C     2.85827  2.85827  0.00000  0.28346
       3     C     3.09478  3.09478  0.00000 -0.18956
       4     C     3.15964  3.15964  0.00000 -0.31927
       5     C     3.10347  3.10347  0.00000 -0.20695
       6     H     0.44928  0.44928  0.00000  0.10144
       7     H     0.43882  0.43882  0.00000  0.12237
       8     C     3.08507  3.08507  0.00000 -0.17015
       9     H     0.45167  0.45167  0.00000  0.09666
      10     H     0.44463  0.44463  0.00000  0.11073
      11     C     3.14919  3.14919  0.00000 -0.29839
      12     H     0.45373  0.45373  0.00000  0.09255
      13     H     0.44999  0.44999  0.00000  0.10002
      14     H     0.45526  0.45526  0.00000  0.08947
      15     H     0.45317  0.45317  0.00000  0.09366
      16     H     0.44683  0.44683  0.00000  0.10635
      17     H     0.43369  0.43369  0.00000  0.13263
      18     H     0.44902  0.44902  0.00000  0.10196
      19     H     0.45019  0.45019  0.00000  0.09962

   Total alpha = 28.00000, Total beta = 28.00000, Total charge = -0.00000

*** Psi4 exiting successfully. Buy a developer a beer!
