  ==> Input File <==

--------------------------------------------------------------------------
set {
	reference rhf
	basis 6-31G*
}

set_num_threads( 1 )
memory 2 gb

molecule MOL {
0 1

H	 -1.141675	 2.637925	 3.685941
O	 -0.452068	 2.056831	 3.398405
C	 -0.730570	 1.599514	 2.099988
C	 0.393648	 0.672799	 1.672110
H	 -1.681111	 1.068258	 2.076594
H	 -0.807752	 2.436517	 1.407306
C	 0.198102	 0.111031	 0.262842
H	 0.461173	 -0.137999	 2.392370
H	 1.329778	 1.221156	 1.730784
C	 1.331804	 -0.827780	 -0.158768
H	 -0.753349	 -0.413096	 0.215902
H	 0.131732	 0.932087	 -0.449886
C	 2.723619	 -0.410569	 0.329459
H	 1.342964	 -0.912588	 -1.244120
H	 1.116806	 -1.824343	 0.220779
C	 3.243875	 0.895854	 -0.272975
H	 3.424222	 -1.207124	 0.091250
H	 2.714788	 -0.329854	 1.414619
H	 3.251977	 0.848779	 -1.358681
H	 2.637085	 1.747371	 0.016682
H	 4.259473	 1.094070	 0.055697

	symmetry c1
}
set optking {
	frozen_dihedral = ("
		2 3 4 8,
		8 4 7 10,
		16 13 10 14,
		1 2 3 5
	")
}

ee = energy('scf')
oeprop('DIPOLE', 'QUADRUPOLE', 'MULLIKEN_CHARGES')
f=open( 'psi4out.xyz', 'w' )
f.write( "21  " )
f.write( str(ee) + "\n" )
f.write( MOL.save_string_xyz() )
f.close()
--------------------------------------------------------------------------

    Molecular point group: c1

    Geometry (in Angstrom), charge = 0, multiplicity = 1:

       Center              X                  Y                   Z               Mass
    ------------   -----------------  -----------------  -----------------  -----------------
           H         -2.073157254129     2.005178728940     2.590155871495     1.007825032070
           O         -1.383550254129     1.424084728940     2.302619871495    15.994914619560
           C         -1.662052254129     0.966767728940     1.004202871495    12.000000000000
           C         -0.537834254129     0.040052728940     0.576324871495    12.000000000000
           H         -2.612593254129     0.435511728940     0.980808871495     1.007825032070
           H         -1.739234254129     1.803770728940     0.311520871495     1.007825032070
           C         -0.733380254129    -0.521715271060    -0.832943128505    12.000000000000
           H         -0.470309254129    -0.770745271060     1.296584871495     1.007825032070
           H          0.398295745871     0.588409728940     0.634998871495     1.007825032070
           C          0.400321745871    -1.460526271060    -1.254553128505    12.000000000000
           H         -1.684831254129    -1.045842271060    -0.879883128505     1.007825032070
           H         -0.799750254129     0.299340728940    -1.545671128505     1.007825032070
           C          1.792136745871    -1.043315271060    -0.766326128505    12.000000000000
           H          0.411481745871    -1.545334271060    -2.339905128505     1.007825032070
           H          0.185323745871    -2.457089271060    -0.875006128505     1.007825032070
           C          2.312392745871     0.263107728940    -1.368760128505    12.000000000000
           H          2.492739745871    -1.839870271060    -1.004535128505     1.007825032070
           H          1.783305745871    -0.962600271060     0.318833871495     1.007825032070
           H          2.320494745871     0.216032728940    -2.454466128505     1.007825032070
           H          1.705602745871     1.114624728940    -1.079103128505     1.007825032070
           H          3.327990745871     0.461323728940    -1.040088128505     1.007825032070

  Charge       = 0
  Multiplicity = 1
  Basis Set: 6-31G*
  Basis Set:

    Orbital Energies (a.u.)
    -----------------------

    Doubly Occupied:

       1A    -20.551713     2A    -11.266624     3A    -11.215344
       4A    -11.213028     5A    -11.212202     6A    -11.209528
       7A    -11.206804     8A     -1.358501     9A     -1.089342
      10A     -1.026478    11A     -0.956717    12A     -0.874063
      13A     -0.821950    14A     -0.761666    15A     -0.688847
      16A     -0.662116    17A     -0.630021    18A     -0.616630
      19A     -0.571041    20A     -0.563020    21A     -0.545758
      22A     -0.528349    23A     -0.502143    24A     -0.493418
      25A     -0.476079    26A     -0.453866    27A     -0.447887
      28A     -0.447139    29A     -0.433864

  @DF-RHF Final Energy:  -310.20663760028174

   => Energetics <=

    Nuclear Repulsion Energy =            322.8164311230566454
    One-Electron Energy =               -1060.3979898556033277
    Two-Electron Energy =                 427.3749211322661381
    DFT Exchange-Correlation Energy =       0.0000000000000000
    Empirical Dispersion Energy =           0.0000000000000000
    PCM Polarization Energy =               0.0000000000000000
    EFP Energy =                            0.0000000000000000
    Total Energy =                       -310.2066376002805441

  Mulliken Charges: (a.u.)
   Center  Symbol    Alpha    Beta     Spin     Total
       1     H     0.28118  0.28118  0.00000  0.43764
       2     O     4.37195  4.37195  0.00000 -0.74390
       3     C     2.98844  2.98844  0.00000  0.02312
       4     C     3.16671  3.16671  0.00000 -0.33342
       5     H     0.43317  0.43317  0.00000  0.13365
       6     H     0.43316  0.43316  0.00000  0.13368
       7     C     3.16235  3.16235  0.00000 -0.32471
       8     H     0.41476  0.41476  0.00000  0.17049
       9     H     0.41045  0.41045  0.00000  0.17910
      10     C     3.15163  3.15163  0.00000 -0.30327
      11     H     0.42038  0.42038  0.00000  0.15924
      12     H     0.42269  0.42269  0.00000  0.15463
      13     C     3.16159  3.16159  0.00000 -0.32318
      14     H     0.42204  0.42204  0.00000  0.15593
      15     H     0.42118  0.42118  0.00000  0.15764
      16     C     3.24091  3.24091  0.00000 -0.48182
      17     H     0.41999  0.41999  0.00000  0.16003
      18     H     0.41616  0.41616  0.00000  0.16767
      19     H     0.42238  0.42238  0.00000  0.15523
      20     H     0.42026  0.42026  0.00000  0.15948
      21     H     0.41862  0.41862  0.00000  0.16276

   Total alpha = 29.00000, Total beta = 29.00000, Total charge =  0.00000
