  ==> Input File <==

--------------------------------------------------------------------------
set {
	reference rhf
	basis 6-31G*
}

set_num_threads( 4 )
memory 2 gb

molecule MOL {
0 1

O	 3.225979	 0.970355	 -0.599647
C	 2.701189	 0.057885	 -0.047330
C	 1.245376	 -0.013843	 0.345420
O	 3.347903	 -1.046386	 0.304773
C	 0.455112	 1.231400	 -0.050772
H	 0.838542	 -0.913825	 -0.103701
H	 1.208210	 -0.175333	 1.419774
C	 -0.998893	 1.219485	 0.433193
H	 0.482531	 1.345121	 -1.130325
H	 0.957290	 2.103070	 0.354729
C	 -1.883438	 0.145884	 -0.207175
H	 -1.431207	 2.195402	 0.224832
H	 -1.019646	 1.105716	 1.516076
C	 -3.347647	 0.245583	 0.225435
H	 -1.822183	 0.231698	 -1.291012
H	 -1.510341	 -0.844814	 0.042401
C	 -4.239992	 -0.825570	 -0.404234
H	 -3.732888	 1.230466	 -0.033079
H	 -3.408585	 0.170602	 1.310038
C	 -3.928294	 -2.234466	 0.099311
H	 -5.282474	 -0.591705	 -0.198856
H	 -4.128704	 -0.796752	 -1.486161
H	 -4.576763	 -2.971020	 -0.365000
H	 -4.064257	 -2.305393	 1.174802
H	 -2.901414	 -2.511680	 -0.121920
C	 4.728119	 -1.109107	 -0.004993
H	 4.882018	 -1.033965	 -1.071845
H	 5.068212	 -2.067527	 0.355250
H	 5.265056	 -0.311663	 0.488280

	symmetry c1
}
set optking {
	frozen_dihedral = ("
		21 17 14 11
	")
}

ee = optimize('scf')
oeprop('DIPOLE', 'QUADRUPOLE', 'MULLIKEN_CHARGES')
f=open( 'psi4out.xyz', 'w' )
f.write( "29  " )
f.write( str(ee) + "\n" )
f.write( MOL.save_string_xyz() )
f.close()
--------------------------------------------------------------------------

    Molecular point group: c1
  Charge       = 0
  Multiplicity = 1
  Basis Set: 6-31G*
  Basis Set:
  @DF-RHF Final Energy:  -501.04199682464071
    Total Energy =                       -501.0419968246401368
    Molecular point group: c1
  Basis Set: 6-31G*
  Basis Set:
  Basis Set: 6-31G*
  Basis Set:
  @DF-RHF Final Energy:  -501.04229205547961
    Total Energy =                       -501.0422920554805160
  Basis Set: 6-31G*
  Basis Set:
  Basis Set: 6-31G*
  Basis Set:
  @DF-RHF Final Energy:  -501.04245554130637
    Total Energy =                       -501.0424555413068219
  Basis Set: 6-31G*
  Basis Set:
  Basis Set: 6-31G*
  Basis Set:
  @DF-RHF Final Energy:  -501.04244503212931
    Total Energy =                       -501.0424450321295353
  Basis Set: 6-31G*
  Basis Set:
  @DF-RHF Final Energy:  -501.04245731983372
    Total Energy =                       -501.0424573198342841
  Basis Set: 6-31G*
  Basis Set:
  @DF-RHF Final Energy:  -501.04246179815118
    Total Energy =                       -501.0424617981517486
  Basis Set: 6-31G*
  Basis Set:
  Basis Set: 6-31G*
  Basis Set:
  @DF-RHF Final Energy:  -501.04243866090610
    Total Energy =                       -501.0424386609068961
  Basis Set: 6-31G*
  Basis Set:
  Basis Set: 6-31G*
  Basis Set:
  @DF-RHF Final Energy:  -501.04246393496328
    Total Energy =                       -501.0424639349628251
  Basis Set: 6-31G*
  Basis Set:
  Charge       = 0
  Multiplicity = 1
  Basis Set: 6-31G*
  Basis Set:

    Orbital Energies (a.u.)
    -----------------------

    Doubly Occupied:

       1A    -20.603399     2A    -20.545227     3A    -11.372041
       4A    -11.280679     5A    -11.234808     6A    -11.219079
       7A    -11.217603     8A    -11.216203     9A    -11.215583
      10A    -11.214664    11A    -11.209328    12A     -1.469097
      13A     -1.362542    14A     -1.098010    15A     -1.066319
      16A     -1.018269    17A     -0.975952    18A     -0.928347
      19A     -0.869889    20A     -0.802605    21A     -0.780468
      22A     -0.763974    23A     -0.700835    24A     -0.682343
      25A     -0.672093    26A     -0.642622    27A     -0.631034
      28A     -0.607079    29A     -0.595565    30A     -0.590253
      31A     -0.558279    32A     -0.554470    33A     -0.536090
      34A     -0.524295    35A     -0.521556    36A     -0.510034
      37A     -0.495829    38A     -0.477438    39A     -0.473104
      40A     -0.461475    41A     -0.456345    42A     -0.451624
      43A     -0.442039    44A     -0.435773

  @DF-RHF Final Energy:  -501.04246400136992

   => Energetics <=

    Nuclear Repulsion Energy =            616.7289372081658030
    One-Electron Energy =               -1904.5742810943388577
    Two-Electron Energy =                 786.8028798848022234
    DFT Exchange-Correlation Energy =       0.0000000000000000
    Empirical Dispersion Energy =           0.0000000000000000
    PCM Polarization Energy =               0.0000000000000000
    EFP Energy =                            0.0000000000000000
    Total Energy =                       -501.0424640013707176
    Molecular point group: c1
  Basis Set: 6-31G*
  Basis Set:

  -Total Gradient:
     Atom            X                  Y                   Z
    ------   -----------------  -----------------  -----------------
       1        0.000004815371     0.000008355427     0.000017396680
       2       -0.000012999765    -0.000023703724    -0.000049914918
       3        0.000005343452     0.000009325807     0.000016449568
       4        0.000003534577     0.000007190765     0.000014899505
       5        0.000003517551     0.000002479563    -0.000002686028
       6        0.000006178391     0.000001348598    -0.000001090933
       7       -0.000004325146    -0.000000684178     0.000000382875
       8        0.000000041989     0.000000265916     0.000000201480
       9        0.000002473531    -0.000000815893     0.000000423645
      10        0.000003818425     0.000000386934    -0.000001152630
      11       -0.000065308659     0.000186686472    -0.000208175750
      12       -0.000002006065    -0.000002170658     0.000001377396
      13       -0.000001703615    -0.000002600323    -0.000001840388
      14        0.000074780597    -0.000214265888     0.000239735857
      15       -0.000001736583     0.000003357356     0.000006530185
      16       -0.000004534656    -0.000009617693    -0.000001261545
      17        0.000023477426    -0.000207957978     0.000305038556
      18       -0.000004330601     0.000005055986     0.000001432702
      19        0.000014713981     0.000005199144    -0.000001163685
      20       -0.000025716873     0.000015319927     0.000008739809
      21       -0.000015452281     0.000207527915    -0.000332811433
      22       -0.000006456007    -0.000002454596    -0.000012163923
      23       -0.000000996397    -0.000003976143    -0.000002173299
      24        0.000002254943    -0.000006058385     0.000005494177
      25        0.000000798575     0.000021209790    -0.000004210063
      26       -0.000000207355     0.000000371984     0.000000200167
      27       -0.000000560012     0.000000146269     0.000000074058
      28        0.000000040358     0.000000122293     0.000000305509
      29        0.000000544839    -0.000000044688    -0.000000037574

  **** Optimization is complete! (in 9 steps) ****
    Final optimized geometry and variables:
    Molecular point group: c1

    Geometry (in Angstrom), charge = 0, multiplicity = 1:

    O            3.062895654884     1.117225810271    -0.631842738152
    C            2.548776966796     0.213528752209    -0.055591837042
    C            1.095315351425     0.138054159580     0.345140645837
    O            3.207093762151    -0.875898377206     0.320412448192
    C            0.291627409262     1.365422212568    -0.078945326998
    H            0.695450047953    -0.776937676017    -0.079192809840
    H            1.064161221922     0.003557041762     1.423397991336
    C           -1.160024375626     1.353305769851     0.412187107482
    H            0.313133261167     1.451859847242    -1.161163944201
    H            0.787782228408     2.251588103543     0.301786925452
    C           -2.039415637536     0.258577640677    -0.199694707474
    H           -1.600581161689     2.321119073361     0.184384192630
    H           -1.174714420187     1.263561754853     1.497466890421
    C           -3.501174449866     0.363306788977     0.244700822688
    H           -1.990585729692     0.326394144678    -1.285678007572
    H           -1.647519934056    -0.719225793012     0.064563524935
    C           -4.438765856612    -0.668700254732    -0.392953964915
    H           -3.866552121806     1.358810117163     0.001410431284
    H           -3.556630236104     0.276879550328     1.328838864628
    C           -4.193807968613    -2.111198074176     0.053252059336
    H           -5.464085360830    -0.397907718279    -0.153378618686
    H           -4.356783298164    -0.606504563388    -1.476273497069
    H           -4.928577162858    -2.780239865970    -0.384012554752
    H           -4.266227785345    -2.202846451752     1.133691704789
    H           -3.213081415388    -2.467762120171    -0.243959625793
    C            4.586650664622    -0.933363785177     0.006676010747
    H            4.735767613064    -0.882654372119    -1.062298286274
    H            4.937007579229    -1.879600924198     0.388612970802
    H            5.117996492115    -0.119292975675     0.478369870046

  Mulliken Charges: (a.u.)
   Center  Symbol    Alpha    Beta     Spin     Total
       1     O     4.28595  4.28595  0.00000 -0.57190
       2     C     2.60480  2.60480  0.00000  0.79039
       3     C     3.20973  3.20973  0.00000 -0.41947
       4     O     4.30746  4.30746  0.00000 -0.61492
       5     C     3.15363  3.15363  0.00000 -0.30726
       6     H     0.39906  0.39906  0.00000  0.20187
       7     H     0.40118  0.40118  0.00000  0.19764
       8     C     3.15647  3.15647  0.00000 -0.31294
       9     H     0.41312  0.41312  0.00000  0.17376
      10     H     0.40873  0.40873  0.00000  0.18253
      11     C     3.15661  3.15661  0.00000 -0.31321
      12     H     0.41834  0.41834  0.00000  0.16331
      13     H     0.42385  0.42385  0.00000  0.15229
      14     C     3.15227  3.15227  0.00000 -0.30453
      15     H     0.42303  0.42303  0.00000  0.15395
      16     H     0.42157  0.42157  0.00000  0.15685
      17     C     3.15260  3.15260  0.00000 -0.30520
      18     H     0.42168  0.42168  0.00000  0.15665
      19     H     0.42417  0.42417  0.00000  0.15167
      20     C     3.24097  3.24097  0.00000 -0.48194
      21     H     0.42065  0.42065  0.00000  0.15871
      22     H     0.42306  0.42306  0.00000  0.15388
      23     H     0.41891  0.41891  0.00000  0.16219
      24     H     0.42219  0.42219  0.00000  0.15562
      25     H     0.42086  0.42086  0.00000  0.15828
      26     C     3.09241  3.09241  0.00000 -0.18483
      27     H     0.40909  0.40909  0.00000  0.18183
      28     H     0.40850  0.40850  0.00000  0.18300
      29     H     0.40912  0.40912  0.00000  0.18177

   Total alpha = 44.00000, Total beta = 44.00000, Total charge = -0.00000
