                              Psi4 1.0.54 Driver

  ==> Input File <==

--------------------------------------------------------------------------
set {
	reference rhf
	basis cc-pvtz
}

set_num_threads( 4 )
memory 2 gb

molecule MOL {
0 1

O	 -0.988209	 -1.402973	 0.050087
C	 -0.675082	 -0.248375	 -0.009685
C	 -1.742526	 0.826517	 -0.011537
N	 0.622246	 0.144888	 -0.099306
H	 -1.692187	 1.430984	 -0.908438
H	 -2.698344	 0.331477	 0.031354
H	 -1.642182	 1.483702	 0.843456
C	 1.664362	 -0.855075	 0.000773
C	 1.062593	 1.511815	 0.046842
H	 2.462693	 -0.615235	 -0.690868
H	 1.261764	 -1.821931	 -0.240650
H	 2.081581	 -0.891687	 1.003878
H	 1.933471	 1.673488	 -0.575307
H	 0.305262	 2.210034	 -0.265945
H	 1.339548	 1.741606	 1.073261

	symmetry c1
}
ee,wfn = energy('scf', return_wfn=True)
oeprop( wfn, 'DIPOLE', 'QUADRUPOLE', 'MULLIKEN_CHARGES')
oeprop( wfn, 'GRID_ESP')
f=open( 'psi4out.xyz', 'w' )
f.write( "15  " )
f.write( str(ee) + "\n" )
f.write( MOL.save_string_xyz() )
f.close()
--------------------------------------------------------------------------

    Molecular point group: c1

    Geometry (in Angstrom), charge = 0, multiplicity = 1:

       Center              X                  Y                   Z               Mass
    ------------   -----------------  -----------------  -----------------  -----------------
           O         -0.988174942073    -1.402890717497     0.050085580674    15.994914619560
           C         -0.675047942073    -0.248292717497    -0.009686419326    12.000000000000
           C         -1.742491942073     0.826599282503    -0.011538419326    12.000000000000
           N          0.622280057927     0.144970282503    -0.099307419326    14.003074004780
           H         -1.692152942073     1.431066282503    -0.908439419326     1.007825032070
           H         -2.698309942073     0.331559282503     0.031352580674     1.007825032070
           H         -1.642147942073     1.483784282503     0.843454580674     1.007825032070
           C          1.664396057927    -0.854992717497     0.000771580674    12.000000000000
           C          1.062627057927     1.511897282503     0.046840580674    12.000000000000
           H          2.462727057927    -0.615152717497    -0.690869419326     1.007825032070
           H          1.261798057927    -1.821848717497    -0.240651419326     1.007825032070
           H          2.081615057927    -0.891604717497     1.003876580674     1.007825032070
           H          1.933505057927     1.673570282503    -0.575308419326     1.007825032070
           H          0.305296057927     2.210116282503    -0.265946419326     1.007825032070
           H          1.339582057927     1.741688282503     1.073259580674     1.007825032070

  Charge       = 0
  Multiplicity = 1
  Basis Set: CC-PVTZ
  Basis Set:

    Orbital Energies (a.u.)
    -----------------------

    Doubly Occupied:

       1A    -20.503841     2A    -15.578408     3A    -11.335130
       4A    -11.263939     5A    -11.246456     6A    -11.226490
       7A     -1.387453     8A     -1.246263     9A     -1.015109
      10A     -0.973146    11A     -0.920719    12A     -0.738973
      13A     -0.683265    14A     -0.661891    15A     -0.653824
      16A     -0.590173    17A     -0.578253    18A     -0.567624
      19A     -0.561820    20A     -0.548329    21A     -0.530360
      22A     -0.507188    23A     -0.413859    24A     -0.370620

  @DF-RHF Final Energy:  -286.13563804951929

   => Energetics <=

    Nuclear Repulsion Energy =            252.9092358361826314
    One-Electron Energy =                -889.8834058216700669
    Two-Electron Energy =                 350.8385319359683763
    DFT Exchange-Correlation Energy =       0.0000000000000000
    Empirical Dispersion Energy =           0.0000000000000000
    PCM Polarization Energy =               0.0000000000000000
    EFP Energy =                            0.0000000000000000
    Total Energy =                       -286.1356380495190024

  Mulliken Charges: (a.u.)
   Center  Symbol    Alpha    Beta     Spin     Total
       1     O     4.22049  4.22049  0.00000 -0.44099
       2     C     2.84529  2.84529  0.00000  0.30942
       3     C     3.16083  3.16083  0.00000 -0.32165
       4     N     3.56216  3.56216  0.00000 -0.12432
       5     H     0.44884  0.44884  0.00000  0.10232
       6     H     0.42864  0.42864  0.00000  0.14273
       7     H     0.44919  0.44919  0.00000  0.10162
       8     C     3.09857  3.09857  0.00000 -0.19714
       9     C     3.09572  3.09572  0.00000 -0.19144
      10     H     0.45672  0.45672  0.00000  0.08657
      11     H     0.42658  0.42658  0.00000  0.14685
      12     H     0.45786  0.45786  0.00000  0.08428
      13     H     0.44932  0.44932  0.00000  0.10137
      14     H     0.44511  0.44511  0.00000  0.10977
      15     H     0.45470  0.45470  0.00000  0.09061

   Total alpha = 24.00000, Total beta = 24.00000, Total charge = -0.00000

*** Psi4 exiting successfully. Buy a developer a beer!
