  ==> Input File <==

--------------------------------------------------------------------------
set {
	reference rhf
	basis cc-pvtz
}

set_num_threads( 4 )
memory 2 gb

molecule MOL {
0 1

H	 -3.268214	 -0.875720	 0.463107
C	 -2.806015	 0.000007	 0.024886
N	 -1.391133	 0.000016	 0.301321
H	 -3.029448	 0.000055	 -1.045738
H	 -3.268126	 0.875758	 0.463150
C	 -0.685980	 -1.025011	 -0.437363
C	 -1.106918	 -0.097762	 1.716663
H	 -1.036182	 -2.025061	 -0.165135
H	 -0.876447	 -0.888605	 -1.495285
C	 0.807255	 -0.938450	 -0.182860
H	 -1.604678	 0.715568	 2.231267
H	 -1.485811	 -1.034604	 2.135728
C	 0.386317	 -0.011201	 1.971165
H	 1.305016	 -1.751781	 -0.697464
H	 1.186148	 -0.001608	 -0.601925
N	 1.091470	 -1.036228	 1.232482
H	 0.576785	 -0.147607	 3.029088
H	 0.736519	 0.988849	 1.698938
C	 2.506352	 -1.036219	 1.508917
H	 2.985073	 -1.854843	 0.986188
H	 2.675591	 -1.173254	 2.569644
H	 2.998253	 -0.107739	 1.205410

	symmetry c1
}
set optking {
	frozen_dihedral = ("
		6 3 2 4
	")
}

ee = optimize('scf')
oeprop('DIPOLE', 'QUADRUPOLE', 'MULLIKEN_CHARGES')
f=open( 'psi4out.xyz', 'w' )
f.write( "22  " )
f.write( str(ee) + "\n" )
f.write( MOL.save_string_xyz() )
f.close()
--------------------------------------------------------------------------

    Molecular point group: c1
  Charge       = 0
  Multiplicity = 1
  Basis Set: CC-PVTZ
  Basis Set:
  @DF-RHF Final Energy:  -344.34977041067009
    Total Energy =                       -344.3497704106699757
    Molecular point group: c1
  Basis Set: CC-PVTZ
  Basis Set:
  Basis Set: CC-PVTZ
  Basis Set:
  @DF-RHF Final Energy:  -344.35042083538946
    Total Energy =                       -344.3504208353894001
  Basis Set: CC-PVTZ
  Basis Set:
  Basis Set: CC-PVTZ
  Basis Set:
  @DF-RHF Final Energy:  -344.35050042540342
    Total Energy =                       -344.3505004254033111
  Basis Set: CC-PVTZ
  Basis Set:
  Charge       = 0
  Multiplicity = 1
  Basis Set: CC-PVTZ
  Basis Set:

    Orbital Energies (a.u.)
    -----------------------

    Doubly Occupied:

       1A    -15.537699     2A    -15.537131     3A    -11.237672
       4A    -11.237585     5A    -11.237009     6A    -11.236936
       7A    -11.234350     8A    -11.234321     9A     -1.257505
      10A     -1.206504    11A     -1.026134    12A     -0.993062
      13A     -0.912269    14A     -0.868447    15A     -0.836326
      16A     -0.755200    17A     -0.667018    18A     -0.638490
      19A     -0.632696    20A     -0.627526    21A     -0.623073
      22A     -0.582379    23A     -0.550421    24A     -0.546626
      25A     -0.542903    26A     -0.517473    27A     -0.496990
      28A     -0.491173    29A     -0.466944    30A     -0.457553
      31A     -0.352461    32A     -0.346878

  @DF-RHF Final Energy:  -344.35050166162392

   => Energetics <=

    Nuclear Repulsion Energy =            421.9947516857634469
    One-Electron Energy =               -1302.9130024632231653
    Two-Electron Energy =                 536.5677491158355679
    DFT Exchange-Correlation Energy =       0.0000000000000000
    Empirical Dispersion Energy =           0.0000000000000000
    PCM Polarization Energy =               0.0000000000000000
    EFP Energy =                            0.0000000000000000
    Total Energy =                       -344.3505016616240937
    Molecular point group: c1
  Basis Set: CC-PVTZ
  Basis Set:

  -Total Gradient:
     Atom            X                  Y                   Z
    ------   -----------------  -----------------  -----------------
       1        0.000034055749    -0.000003200089     0.000006736244
       2       -0.000008756767     0.002403108168    -0.000309180169
       3       -0.000218397215    -0.001502133631     0.001327847603
       4        0.000039491166    -0.001659970718     0.000003418708
       5        0.000026068559     0.000004511826     0.000005262165
       6        0.000220241856     0.000803033988    -0.001010943776
       7       -0.000087751152    -0.000049313562     0.000130708032
       8        0.000023631754     0.000030820064     0.000006854944
       9        0.000011349278    -0.000011022800    -0.000011015585
      10       -0.000012551732    -0.000051262471    -0.000006842781
      11       -0.000012489461     0.000011368901     0.000000562694
      12       -0.000004943661     0.000004745784    -0.000022251607
      13       -0.000019368369     0.000032650436    -0.000125785026
      14        0.000026069589    -0.000005880479     0.000002394351
      15       -0.000022706969    -0.000007998483     0.000007177665
      16        0.000016203344    -0.000014981723     0.000008213676
      17       -0.000046055967    -0.000001016074    -0.000021383439
      18        0.000022889732     0.000023511806     0.000010432856
      19        0.000011062651    -0.000009631132    -0.000009095352
      20        0.000002799174     0.000001854086     0.000003469140
      21        0.000000892762    -0.000000264391     0.000003011889
      22       -0.000001734325     0.000001070493     0.000000407768

  **** Optimization is complete! (in 4 steps) ****
    Final optimized geometry and variables:
    Molecular point group: c1

    Geometry (in Angstrom), charge = 0, multiplicity = 1:

    H           -3.174225265845    -0.356725774012    -0.329576828447
    C           -2.659155002799     0.519273130902    -0.734987095515
    N           -1.244008118496     0.508438429707    -0.461878778898
    H           -2.828454129307     0.529379147154    -1.804124182229
    H           -3.115510391289     1.403542882451    -0.307642300133
    C           -0.536912647626    -0.510753282525    -1.205591945951
    C           -0.955586717441     0.419514259898     0.951968999036
    H           -0.881444609092    -1.514382906369    -0.938358717418
    H           -0.728019570842    -0.369907649186    -2.262664618121
    C            0.956351228591    -0.418914354524    -0.951645220236
    H           -1.454727238724     1.234184466270     1.463743390642
    H           -1.331501940978    -0.516030186131     1.376805110616
    C            0.538127437767     0.510466101243     1.201837888766
    H            1.456964809488    -1.230271097368    -1.466774606746
    H            1.331060591469     0.519482441831    -1.371227760454
    N            1.242829606946    -0.514906739241     0.463315520165
    H            0.731944087943     0.376894810113     2.259563984702
    H            0.885614842497     1.510673864799     0.926352013646
    C            2.658013979015    -0.513686995349     0.737474040940
    H            3.136450092888    -1.332792585550     0.215137143082
    H            2.829130274231    -0.649051081743     1.798172215398
    H            3.149111873181     0.414639914835     0.431864672991

  Mulliken Charges: (a.u.)
   Center  Symbol    Alpha    Beta     Spin     Total
       1     H     0.47017  0.47017  0.00000  0.05965
       2     C     3.09817  3.09817  0.00000 -0.19634
       3     N     3.61283  3.61283  0.00000 -0.22566
       4     H     0.45273  0.45273  0.00000  0.09455
       5     H     0.45117  0.45117  0.00000  0.09765
       6     C     3.03462  3.03462  0.00000 -0.06924
       7     C     3.03558  3.03558  0.00000 -0.07115
       8     H     0.46884  0.46884  0.00000  0.06232
       9     H     0.45377  0.45377  0.00000  0.09247
      10     C     3.03572  3.03572  0.00000 -0.07143
      11     H     0.45401  0.45401  0.00000  0.09198
      12     H     0.46773  0.46773  0.00000  0.06455
      13     C     3.03539  3.03539  0.00000 -0.07079
      14     H     0.45383  0.45383  0.00000  0.09234
      15     H     0.46814  0.46814  0.00000  0.06372
      16     N     3.61311  3.61311  0.00000 -0.22622
      17     H     0.45381  0.45381  0.00000  0.09239
      18     H     0.46806  0.46806  0.00000  0.06389
      19     C     3.09839  3.09839  0.00000 -0.19679
      20     H     0.45193  0.45193  0.00000  0.09613
      21     H     0.45193  0.45193  0.00000  0.09614
      22     H     0.47008  0.47008  0.00000  0.05985

   Total alpha = 32.00000, Total beta = 32.00000, Total charge = -0.00000
