                              Psi4 1.0.54 Driver

  ==> Input File <==

--------------------------------------------------------------------------
set {
	reference rhf
	basis cc-pvtz
}

set_num_threads( 4 )
memory 2 gb

molecule MOL {
0 1

H	 -3.258660	 -0.290394	 1.471450
C	 -3.307964	 -0.275695	 0.374072
C	 -2.653809	 0.914422	 -0.273689
O	 -3.855140	 -1.148880	 -0.205112
C	 -2.014918	 0.577587	 -1.624257
H	 -3.388576	 1.703730	 -0.365581
H	 -1.881141	 1.255146	 0.412020
C	 -3.028250	 0.219356	 -2.709159
H	 -1.427016	 1.429787	 -1.947470
H	 -1.312337	 -0.242168	 -1.495516
C	 -2.377564	 -0.103085	 -4.051702
H	 -3.722497	 1.046266	 -2.833044
H	 -3.626764	 -0.629237	 -2.388071
C	 -3.394181	 -0.449251	 -5.137937
H	 -1.774782	 0.744380	 -4.362834
H	 -1.690778	 -0.937290	 -3.926305
C	 -2.785442	 -0.859316	 -6.480019
H	 -4.058346	 0.398273	 -5.290818
H	 -4.019831	 -1.262547	 -4.780984
C	 -2.029861	 0.251948	 -7.204779
H	 -3.584530	 -1.213042	 -7.124013
H	 -2.122108	 -1.706904	 -6.328736
H	 -2.666963	 1.116071	 -7.364113
H	 -1.159591	 0.580669	 -6.649569
H	 -1.686456	 -0.087056	 -8.175404

	symmetry c1
}
set optking {
	frozen_dihedral = ("
		6 3 2 4
	")
}

ee,wfn = optimize('scf', return_wfn=True)
oeprop( wfn, 'DIPOLE', 'QUADRUPOLE', 'MULLIKEN_CHARGES')
f=open( 'psi4out.xyz', 'w' )
f.write( "25  " )
f.write( str(ee) + "\n" )
f.write( MOL.save_string_xyz() )
f.close()
--------------------------------------------------------------------------

    Molecular point group: c1
  Charge       = 0
  Multiplicity = 1
  Basis Set: CC-PVTZ
  Basis Set:
  @DF-RHF Final Energy:  -387.25593772931796
    Total Energy =                       -387.2559377293177931
    Molecular point group: c1
  Basis Set: CC-PVTZ
  Basis Set:
  Basis Set: CC-PVTZ
  Basis Set:
  @DF-RHF Final Energy:  -387.25814246570121
    Total Energy =                       -387.2581424657013258
  Basis Set: CC-PVTZ
  Basis Set:
  Basis Set: CC-PVTZ
  Basis Set:
  @DF-RHF Final Energy:  -387.25747638152711
    Total Energy =                       -387.2574763815273400
  Basis Set: CC-PVTZ
  Basis Set:
  Basis Set: CC-PVTZ
  Basis Set:
  @DF-RHF Final Energy:  -387.25847571586610
    Total Energy =                       -387.2584757158662114
  Basis Set: CC-PVTZ
  Basis Set:
  Basis Set: CC-PVTZ
  Basis Set:
  @DF-RHF Final Energy:  -387.25855639863016
    Total Energy =                       -387.2585563986295938
  Basis Set: CC-PVTZ
  Basis Set:
  Basis Set: CC-PVTZ
  Basis Set:
  @DF-RHF Final Energy:  -387.25855844920659
    Total Energy =                       -387.2585584492068165
  Basis Set: CC-PVTZ
  Basis Set:
  Basis Set: CC-PVTZ
  Basis Set:
  @DF-RHF Final Energy:  -387.25856071147876
    Total Energy =                       -387.2585607114783670
  Basis Set: CC-PVTZ
  Basis Set:
  Charge       = 0
  Multiplicity = 1
  Basis Set: CC-PVTZ
  Basis Set:

    Orbital Energies (a.u.)
    -----------------------

    Doubly Occupied:

       1A    -20.553134     2A    -11.323734     3A    -11.236148
       4A    -11.223555     5A    -11.210802     6A    -11.209163
       7A    -11.208632     8A    -11.208143     9A    -11.204432
      10A     -1.408866    11A     -1.095743    12A     -1.064331
      13A     -1.010088    14A     -0.941922    15A     -0.875449
      16A     -0.813822    17A     -0.777979    18A     -0.769088
      19A     -0.687410    20A     -0.655101    21A     -0.630757
      22A     -0.614578    23A     -0.606542    24A     -0.589735
      25A     -0.560402    26A     -0.553582    27A     -0.537558
      28A     -0.514996    29A     -0.505738    30A     -0.498311
      31A     -0.479128    32A     -0.473474    33A     -0.458092
      34A     -0.452639    35A     -0.437968    36A     -0.409400

  @DF-RHF Final Energy:  -387.25856114894975

   => Energetics <=

    Nuclear Repulsion Energy =            443.6877298349046441
    One-Electron Energy =               -1404.2916953952458243
    Two-Electron Energy =                 573.3454044113913142
    DFT Exchange-Correlation Energy =       0.0000000000000000
    Empirical Dispersion Energy =           0.0000000000000000
    PCM Polarization Energy =               0.0000000000000000
    EFP Energy =                            0.0000000000000000
    Total Energy =                       -387.2585611489498660
    Molecular point group: c1
  Basis Set: CC-PVTZ
  Basis Set:

  -Total Gradient:
     Atom            X                  Y                   Z
    ------   -----------------  -----------------  -----------------
       1        0.000002614064    -0.000001966174     0.000006362464
       2        0.004190507790    -0.002049495338    -0.000382550381
       3       -0.000727961131     0.002246584862     0.002992475321
       4       -0.002963422831     0.001201784260    -0.000085578309
       5        0.000002147629     0.000012239663     0.000000876529
       6       -0.000500290956    -0.001412193714    -0.002539995919
       7        0.000000935496     0.000010166198     0.000000981940
       8       -0.000012493990    -0.000011318452    -0.000004987947
       9       -0.000001823163    -0.000001449944     0.000002559172
      10       -0.000003233801     0.000003320382    -0.000000809426
      11        0.000005046132    -0.000006159730     0.000005812088
      12       -0.000000365917     0.000006592442     0.000007376483
      13        0.000006572854     0.000005634479    -0.000003323536
      14        0.000005110783    -0.000005843620     0.000006788395
      15        0.000001102737    -0.000005296838     0.000002140127
      16        0.000001712533     0.000000618905    -0.000005420183
      17       -0.000006933119     0.000016190708    -0.000003078433
      18        0.000008146616    -0.000006436139    -0.000002451956
      19       -0.000000216644    -0.000002412416    -0.000010367185
      20        0.000005229344    -0.000003747547     0.000005369667
      21       -0.000007486672    -0.000003849842     0.000001610509
      22       -0.000001854395     0.000010331671     0.000006084769
      23        0.000000035209    -0.000002482909     0.000001248189
      24       -0.000000333365     0.000001571014    -0.000000544005
      25       -0.000002745206    -0.000002381921    -0.000000578373

  **** Optimization is complete! (in 8 steps) ****
    Final optimized geometry and variables:
    Molecular point group: c1

    Geometry (in Angstrom), charge = 0, multiplicity = 1:

    H           -0.543325920473    -0.097078410635     4.606428804643
    C           -0.516792148518    -0.224077672418     3.516991208950
    C           -0.003125142686     0.968954431463     2.748636436621
    O           -0.916840038734    -1.226715970398     3.034137464819
    C            0.677983469994     0.644534101024     1.414932426629
    H           -0.868416067690     1.605062033088     2.568830385392
    H            0.663225473565     1.524693689666     3.398987765125
    C           -0.284538137017     0.335253984146     0.269740890498
    H            1.291336404020     1.496504597615     1.138260120105
    H            1.357218984041    -0.190322507534     1.555357869834
    C            0.436389664775     0.028961152192    -1.040342591629
    H           -0.943594312168     1.188818899495     0.123532214971
    H           -0.914159858492    -0.501588882073     0.542934863432
    C           -0.524312214264    -0.256949612375    -2.193002217356
    H            1.083710513574     0.863171078304    -1.294132737383
    H            1.086553563910    -0.831089109400    -0.897096377202
    C            0.148386688167    -0.659518934302    -3.506459323481
    H           -1.148822559210     0.616948196431    -2.365358022817
    H           -1.197241944557    -1.054843945444    -1.892262578049
    C            0.984909771995     0.438688858738    -4.158654873085
    H           -0.622487074122    -0.969859740606    -4.205195201031
    H            0.771318505582    -1.533675688028    -3.336314491035
    H            0.389567260601     1.329220474609    -4.334049045679
    H            1.831426587575     0.722649327879    -3.545137179995
    H            1.373399068082     0.108979221022    -5.115537027582

  Mulliken Charges: (a.u.)
   Center  Symbol    Alpha    Beta     Spin     Total
       1     H     0.44847  0.44847  0.00000  0.10305
       2     C     2.92124  2.92124  0.00000  0.15753
       3     C     3.10329  3.10329  0.00000 -0.20659
       4     O     4.16728  4.16728  0.00000 -0.33457
       5     C     3.09089  3.09089  0.00000 -0.18177
       6     H     0.44422  0.44422  0.00000  0.11155
       7     H     0.43855  0.43855  0.00000  0.12290
       8     C     3.09121  3.09121  0.00000 -0.18243
       9     H     0.44704  0.44704  0.00000  0.10592
      10     H     0.44971  0.44971  0.00000  0.10059
      11     C     3.09360  3.09360  0.00000 -0.18720
      12     H     0.45891  0.45891  0.00000  0.08219
      13     H     0.43750  0.43750  0.00000  0.12499
      14     C     3.09490  3.09490  0.00000 -0.18979
      15     H     0.45468  0.45468  0.00000  0.09064
      16     H     0.45341  0.45341  0.00000  0.09319
      17     C     3.09042  3.09042  0.00000 -0.18084
      18     H     0.45518  0.45518  0.00000  0.08964
      19     H     0.44753  0.44753  0.00000  0.10494
      20     C     3.15271  3.15271  0.00000 -0.30541
      21     H     0.44863  0.44863  0.00000  0.10274
      22     H     0.45445  0.45445  0.00000  0.09109
      23     H     0.45544  0.45544  0.00000  0.08913
      24     H     0.45420  0.45420  0.00000  0.09161
      25     H     0.44655  0.44655  0.00000  0.10690

   Total alpha = 36.00000, Total beta = 36.00000, Total charge =  0.00000

*** Psi4 exiting successfully. Buy a developer a beer!
