                              Psi4 1.0.54 Driver

  ==> Input File <==

--------------------------------------------------------------------------
set {
	reference rhf
	basis cc-pvtz
}

set_num_threads( 4 )
memory 2 gb

molecule MOL {
0 1

H	 2.086864	 1.244143	 0.984896
O	 1.215923	 0.879283	 1.030460
C	 1.050374	 0.054877	 0.000135
C	 -0.318151	 -0.570512	 0.000144
O	 1.902601	 -0.135156	 -0.797088
C	 -1.454884	 0.441630	 -0.000560
H	 -0.371613	 -1.223646	 -0.864985
H	 -0.371920	 -1.222758	 0.865929
C	 -2.822577	 -0.232186	 0.000063
H	 -1.359760	 1.084704	 -0.867077
H	 -1.359641	 1.085996	 0.864983
H	 -2.954352	 -0.858985	 -0.875745
H	 -3.615886	 0.505352	 0.000019
H	 -2.953878	 -0.858359	 0.876394

	symmetry c1
}
set optking {
	frozen_dihedral = ("
		2 3 4 7
	")
}

ee,wfn = optimize('scf', return_wfn=True)
oeprop( wfn, 'DIPOLE', 'QUADRUPOLE', 'MULLIKEN_CHARGES')
f=open( 'psi4out.xyz', 'w' )
f.write( "14  " )
f.write( str(ee) + "\n" )
f.write( MOL.save_string_xyz() )
f.close()
--------------------------------------------------------------------------

    Molecular point group: c1
  Charge       = 0
  Multiplicity = 1
  Basis Set: CC-PVTZ
  Basis Set:
  @DF-RHF Final Energy:  -305.99927104356277
    Total Energy =                       -305.9992710435629419
    Molecular point group: c1
  Basis Set: CC-PVTZ
  Basis Set:
  Basis Set: CC-PVTZ
  Basis Set:
  @DF-RHF Final Energy:  -305.99944722840809
    Total Energy =                       -305.9994472284081439
  Basis Set: CC-PVTZ
  Basis Set:
  Basis Set: CC-PVTZ
  Basis Set:
  @DF-RHF Final Energy:  -305.99953145643735
    Total Energy =                       -305.9995314564373530
  Basis Set: CC-PVTZ
  Basis Set:
  Basis Set: CC-PVTZ
  Basis Set:
  @DF-RHF Final Energy:  -305.99959803826300
    Total Energy =                       -305.9995980382628886
  Basis Set: CC-PVTZ
  Basis Set:
  Basis Set: CC-PVTZ
  Basis Set:
  @DF-RHF Final Energy:  -305.99960183383735
    Total Energy =                       -305.9996018338375166
  Basis Set: CC-PVTZ
  Basis Set:
  Charge       = 0
  Multiplicity = 1
  Basis Set: CC-PVTZ
  Basis Set:

    Orbital Energies (a.u.)
    -----------------------

    Doubly Occupied:

       1A    -20.604960     2A    -20.539589     3A    -11.372989
       4A    -11.238767     5A    -11.232447     6A    -11.219016
       7A     -1.477736     8A     -1.368341     9A     -1.087560
      10A     -0.980625    11A     -0.850304    12A     -0.815866
      13A     -0.705282    14A     -0.687938    15A     -0.652413
      16A     -0.631000    17A     -0.595653    18A     -0.566531
      19A     -0.553655    20A     -0.521910    21A     -0.500821
      22A     -0.488704    23A     -0.478047    24A     -0.440738

  @DF-RHF Final Energy:  -305.99960207238638

   => Energetics <=

    Nuclear Repulsion Energy =            240.9305899221492950
    One-Electron Energy =                -894.6386009398288479
    Two-Electron Energy =                 347.7084089452928310
    DFT Exchange-Correlation Energy =       0.0000000000000000
    Empirical Dispersion Energy =           0.0000000000000000
    PCM Polarization Energy =               0.0000000000000000
    EFP Energy =                            0.0000000000000000
    Total Energy =                       -305.9996020723867787
    Molecular point group: c1
  Basis Set: CC-PVTZ
  Basis Set:

  -Total Gradient:
     Atom            X                  Y                   Z
    ------   -----------------  -----------------  -----------------
       1       -0.000004026986    -0.000006594980    -0.000003677782
       2       -0.000193782146     0.000374568759    -0.000246455117
       3        0.000211095530    -0.000406083414     0.000269493976
       4        0.000175553377    -0.000365480258     0.000289393718
       5        0.000003682648    -0.000007455913    -0.000009820219
       6        0.000026548581    -0.000012560188     0.000022905870
       7       -0.000197433603     0.000423808833    -0.000305901569
       8       -0.000007249208    -0.000001007188    -0.000016009220
       9       -0.000015185007    -0.000006611463    -0.000015779958
      10       -0.000006735360    -0.000013084775     0.000014997967
      11        0.000004466596     0.000019768523     0.000004333120
      12       -0.000002310410    -0.000005356853    -0.000001335112
      13        0.000000080779    -0.000000351990    -0.000001545195
      14        0.000005295209     0.000006440905    -0.000000600479

  **** Optimization is complete! (in 6 steps) ****
    Final optimized geometry and variables:
    Molecular point group: c1

    Geometry (in Angstrom), charge = 0, multiplicity = 1:

    H            2.158092214101     1.148310497242     0.906288814247
    O            1.287016822758     0.787378899743     0.974731437885
    C            1.089597497672    -0.029769741480    -0.056041303979
    C           -0.273743891192    -0.665821163160    -0.039011843396
    O            1.920613201031    -0.215747034572    -0.876871865211
    C           -1.420178506443     0.349145645868    -0.030456824153
    H           -0.334267907775    -1.304479255172    -0.908132776454
    H           -0.332203643126    -1.290577130168     0.846545300531
    C           -2.783341759730    -0.332666429804    -0.056371648170
    H           -1.325172173658     1.001709056252    -0.892639222151
    H           -1.339434611430     0.977444727731     0.847323262963
    H           -2.898672236277    -0.948054939878    -0.941847803607
    H           -3.581309468915     0.399958338188    -0.055674716029
    H           -2.918081815788    -0.970457284516     0.810667993688

  Mulliken Charges: (a.u.)
   Center  Symbol    Alpha    Beta     Spin     Total
       1     H     0.38055  0.38055  0.00000  0.23889
       2     O     4.16314  4.16314  0.00000 -0.32628
       3     C     2.80859  2.80859  0.00000  0.38282
       4     C     3.08695  3.08695  0.00000 -0.17391
       5     O     4.19345  4.19345  0.00000 -0.38691
       6     C     3.09239  3.09239  0.00000 -0.18479
       7     H     0.43621  0.43621  0.00000  0.12759
       8     H     0.44546  0.44546  0.00000  0.10908
       9     C     3.14993  3.14993  0.00000 -0.29985
      10     H     0.44842  0.44842  0.00000  0.10316
      11     H     0.44230  0.44230  0.00000  0.11539
      12     H     0.45286  0.45286  0.00000  0.09427
      13     H     0.44564  0.44564  0.00000  0.10872
      14     H     0.45409  0.45409  0.00000  0.09181

   Total alpha = 24.00000, Total beta = 24.00000, Total charge = -0.00000

*** Psi4 exiting successfully. Buy a developer a beer!
