  ==> Input File <==

--------------------------------------------------------------------------
set {
	reference rhf
	basis 6-31G*
}

set_num_threads( 4 )
memory 2 gb

molecule MOL {
0 1

H	 -0.000158	 1.970498	 0.756846
O	 -0.000074	 1.880206	 -0.189275
C	 -0.000015	 0.544847	 -0.545111
C	 -1.278788	 -0.123820	 -0.051541
C	 1.278802	 -0.123718	 -0.051505
H	 -0.000001	 0.490777	 -1.623619
F	 -1.542871	 0.277080	 1.173647
F	 -2.316740	 0.165316	 -0.807461
F	 -1.141375	 -1.439879	 -0.025012
F	 2.323327	 0.466644	 -0.591854
F	 1.326242	 -1.401483	 -0.363667
F	 1.388946	 -0.015632	 1.262939

	symmetry c1
}
set optking {
	frozen_dihedral = ("
		7 4 3 6
	")
}

ee = optimize('scf')
oeprop('DIPOLE', 'QUADRUPOLE', 'MULLIKEN_CHARGES')
f=open( 'psi4out.xyz', 'w' )
f.write( "12  " )
f.write( str(ee) + "\n" )
f.write( MOL.save_string_xyz() )
f.close()
--------------------------------------------------------------------------

    Molecular point group: c1
  Charge       = 0
  Multiplicity = 1
  Basis Set: 6-31G*
  Basis Set:
  @DF-RHF Final Energy:  -786.27575647496349
    Total Energy =                       -786.2757564749633730
    Molecular point group: c1
  Basis Set: 6-31G*
  Basis Set:
  Basis Set: 6-31G*
  Basis Set:
  @DF-RHF Final Energy:  -786.27688984528834
    Total Energy =                       -786.2768898452882240
  Basis Set: 6-31G*
  Basis Set:
  Basis Set: 6-31G*
  Basis Set:
  @DF-RHF Final Energy:  -786.27721044529369
    Total Energy =                       -786.2772104452931217
  Basis Set: 6-31G*
  Basis Set:
  Basis Set: 6-31G*
  Basis Set:
  @DF-RHF Final Energy:  -786.27727387044945
    Total Energy =                       -786.2772738704497897
  Basis Set: 6-31G*
  Basis Set:
  Basis Set: 6-31G*
  Basis Set:
  @DF-RHF Final Energy:  -786.27728050677956
    Total Energy =                       -786.2772805067795616
  Basis Set: 6-31G*
  Basis Set:
  Charge       = 0
  Multiplicity = 1
  Basis Set: 6-31G*
  Basis Set:

    Orbital Energies (a.u.)
    -----------------------

    Doubly Occupied:

       1A    -26.364249     2A    -26.364167     3A    -26.362412
       4A    -26.360399     5A    -26.358503     6A    -26.357542
       7A    -20.615998     8A    -11.527566     9A    -11.524810
      10A    -11.349141    11A     -1.765175    12A     -1.758750
      13A     -1.662838    14A     -1.658066    15A     -1.657129
      16A     -1.655055    17A     -1.434491    18A     -1.101200
      19A     -0.997136    20A     -0.938117    21A     -0.864908
      22A     -0.862347    23A     -0.852103    24A     -0.845117
      25A     -0.832419    26A     -0.816522    27A     -0.741781
      28A     -0.727537    29A     -0.724946    30A     -0.719568
      31A     -0.688446    32A     -0.686408    33A     -0.682920
      34A     -0.675269    35A     -0.670377    36A     -0.661929
      37A     -0.657862    38A     -0.651555    39A     -0.620037
      40A     -0.551997    41A     -0.505461

  @DF-RHF Final Energy:  -786.27728164084431

   => Energetics <=

    Nuclear Repulsion Energy =            670.3745146521767992
    One-Electron Energy =               -2427.5990856032135525
    Two-Electron Energy =                 970.9472893101922182
    DFT Exchange-Correlation Energy =       0.0000000000000000
    Empirical Dispersion Energy =           0.0000000000000000
    PCM Polarization Energy =               0.0000000000000000
    EFP Energy =                            0.0000000000000000
    Total Energy =                       -786.2772816408444214
    Molecular point group: c1
  Basis Set: 6-31G*
  Basis Set:

  -Total Gradient:
     Atom            X                  Y                   Z
    ------   -----------------  -----------------  -----------------
       1       -0.000003703477     0.000007351717     0.000008102389
       2        0.000027848511    -0.000055712535    -0.000014112157
       3        0.001302690299    -0.002711604762    -0.000084110420
       4        0.001584745454    -0.002144014019     0.001258615003
       5        0.000037065855     0.000046835016    -0.000121998616
       6       -0.001446318686     0.002759140763    -0.000201031415
       7       -0.001411091512     0.001975849845    -0.000898500594
       8       -0.000047362402     0.000055964652    -0.000069769074
       9        0.000027269622     0.000105156629     0.000006022282
      10       -0.000024623393     0.000019057327    -0.000007811504
      11       -0.000024312411     0.000000490279     0.000064263821
      12       -0.000022207867    -0.000058514917     0.000060330285

  **** Optimization is complete! (in 6 steps) ****
    Final optimized geometry and variables:
    Molecular point group: c1

    Geometry (in Angstrom), charge = 0, multiplicity = 1:

    H           -0.060385016396     2.000148453701     0.680466560145
    O           -0.005740026712     1.873644507305    -0.259521868843
    C           -0.000349685833     0.525632299627    -0.566635324968
    C           -1.275261803142    -0.126292782557    -0.029615184663
    C            1.281687245153    -0.127234489397    -0.064417160577
    H           -0.020971135261     0.451720135733    -1.643442650845
    F           -1.526810243499     0.292400733882     1.200362514629
    F           -2.299646445526     0.221797492011    -0.781874303300
    F           -1.211252863081    -1.439776911627    -0.012134876359
    F            2.326140911688     0.535162690770    -0.511185645591
    F            1.390113044342    -1.375810826958    -0.467355675200
    F            1.326766301823    -0.113146848203     1.259064321278

  Mulliken Charges: (a.u.)
   Center  Symbol    Alpha    Beta     Spin     Total
       1     H     0.26533  0.26533  0.00000  0.46934
       2     O     4.36307  4.36307  0.00000 -0.72613
       3     C     3.05192  3.05192  0.00000 -0.10385
       4     C     2.44164  2.44164  0.00000  1.11672
       5     C     2.44506  2.44506  0.00000  1.10987
       6     H     0.37409  0.37409  0.00000  0.25183
       7     F     4.68089  4.68089  0.00000 -0.36179
       8     F     4.67636  4.67636  0.00000 -0.35271
       9     F     4.67233  4.67233  0.00000 -0.34465
      10     F     4.67405  4.67405  0.00000 -0.34809
      11     F     4.67419  4.67419  0.00000 -0.34839
      12     F     4.68108  4.68108  0.00000 -0.36215

   Total alpha = 41.00000, Total beta = 41.00000, Total charge = -0.00000
