  ==> Input File <==

--------------------------------------------------------------------------
set {
	reference rhf
	basis 6-31G*
}

set_num_threads( 4 )
memory 2 gb

molecule MOL {
0 1

H	 1.683992	 -4.671382	 -3.280058
C	 1.719282	 -3.830192	 -2.612056
C	 0.718308	 -3.638181	 -1.665798
C	 2.757649	 -2.924276	 -2.679616
H	 -0.098863	 -4.334283	 -1.598707
C	 0.760192	 -2.560734	 -0.807572
H	 3.540679	 -3.056721	 -3.405154
C	 2.814655	 -1.831735	 -1.820801
H	 -0.006225	 -2.400585	 -0.072187
C	 1.811852	 -1.649819	 -0.881454
H	 3.635010	 -1.144921	 -1.898078
O	 1.765256	 -0.628444	 0.000000
C	 2.778419	 0.335181	 0.000000
H	 2.731280	 0.961222	 -0.884976
H	 3.711703	 -0.207767	 0.000000
H	 2.731280	 0.961222	 0.884976

	symmetry c1
}
set optking {
	frozen_dihedral = ("
		10 12 13 14
	")
}

ee = optimize('scf')
oeprop('DIPOLE', 'QUADRUPOLE', 'MULLIKEN_CHARGES')
f=open( 'psi4out.xyz', 'w' )
f.write( "16  " )
f.write( str(ee) + "\n" )
f.write( MOL.save_string_xyz() )
f.close()
--------------------------------------------------------------------------

    Molecular point group: c1
  Charge       = 0
  Multiplicity = 1
  Basis Set: 6-31G*
  Basis Set:
  @DF-RHF Final Energy:  -344.57996856781767
    Total Energy =                       -344.5799685678176161
    Molecular point group: c1
  Basis Set: 6-31G*
  Basis Set:
  Basis Set: 6-31G*
  Basis Set:
  @DF-RHF Final Energy:  -344.58186304138138
    Total Energy =                       -344.5818630413815526
  Basis Set: 6-31G*
  Basis Set:
  Basis Set: 6-31G*
  Basis Set:
  @DF-RHF Final Energy:  -344.58260924656355
    Total Energy =                       -344.5826092465637203
  Basis Set: 6-31G*
  Basis Set:
  Basis Set: 6-31G*
  Basis Set:
  @DF-RHF Final Energy:  -344.58261846200656
    Total Energy =                       -344.5826184620063941
  Basis Set: 6-31G*
  Basis Set:
  Basis Set: 6-31G*
  Basis Set:
  @DF-RHF Final Energy:  -344.58261987563293
    Total Energy =                       -344.5826198756328722
  Basis Set: 6-31G*
  Basis Set:
  Charge       = 0
  Multiplicity = 1
  Basis Set: 6-31G*
  Basis Set:

    Orbital Energies (a.u.)
    -----------------------

    Doubly Occupied:

       1A    -20.584956     2A    -11.293902     3A    -11.279898
       4A    -11.232824     5A    -11.231310     6A    -11.223728
       7A    -11.219254     8A    -11.219147     9A     -1.414017
      10A     -1.145716    11A     -1.021652    12A     -1.012637
      13A     -0.941511    14A     -0.830357    15A     -0.804519
      16A     -0.721463    17A     -0.663757    18A     -0.661517
      19A     -0.656403    20A     -0.616629    21A     -0.586652
      22A     -0.575640    23A     -0.524244    24A     -0.520088
      25A     -0.508585    26A     -0.475724    27A     -0.461682
      28A     -0.334559    29A     -0.304965

  @DF-RHF Final Energy:  -344.58261994713024

   => Energetics <=

    Nuclear Repulsion Energy =            348.1101953034101939
    One-Electron Energy =               -1157.2509553538664022
    Two-Electron Energy =                 464.5581401033260818
    DFT Exchange-Correlation Energy =       0.0000000000000000
    Empirical Dispersion Energy =           0.0000000000000000
    PCM Polarization Energy =               0.0000000000000000
    EFP Energy =                            0.0000000000000000
    Total Energy =                       -344.5826199471301834
    Molecular point group: c1
  Basis Set: 6-31G*
  Basis Set:

  -Total Gradient:
     Atom            X                  Y                   Z
    ------   -----------------  -----------------  -----------------
       1       -0.000003575485    -0.000001181919     0.000001044963
       2        0.000021641679     0.000012645641    -0.000015279094
       3       -0.000008050369     0.000009671679     0.000028934135
       4       -0.000013233310    -0.000029451918    -0.000007797991
       5       -0.000000119235    -0.000002082400    -0.000003125001
       6       -0.000013481287    -0.000033113522    -0.000010424940
       7       -0.000000265964     0.000001872763     0.000001978117
       8       -0.000004580277     0.000018819983     0.000025744961
       9        0.000001554371     0.000000908321    -0.000000786667
      10        0.000447068086    -0.000557536812     0.000701040106
      11        0.000000625397    -0.000003390078     0.000000400087
      12       -0.000851610964     0.001053032751    -0.000936349511
      13        0.001110180334    -0.001294485589    -0.000280375248
      14       -0.000699110562     0.000819447502     0.000502992631
      15       -0.000004016539     0.000001411772    -0.000004885227
      16        0.000016974123     0.000003431823    -0.000003111322

  **** Optimization is complete! (in 6 steps) ****
    Final optimized geometry and variables:
    Molecular point group: c1

    Geometry (in Angstrom), charge = 0, multiplicity = 1:

    H           -0.218430661260    -2.690148328313    -1.985185818504
    C           -0.188768434489    -1.836409648651    -1.332978991097
    C           -1.180190142146    -1.644779211673    -0.376439613420
    C            0.831897041747    -0.913510041938    -1.431899310325
    H           -1.983648018594    -2.354097332592    -0.285627632590
    C           -1.144881184050    -0.552244537145     0.462691484686
    H            1.605866568509    -1.043916769767    -2.167465103831
    C            0.880946345604     0.195373456817    -0.593647928855
    H           -1.903086323577    -0.392645445297     1.206651626261
    C           -0.109963636185     0.374785788382     0.358386010424
    H            1.683406494432     0.899501361752    -0.699140635529
    O           -0.164841305903     1.414864394266     1.217244851050
    C            0.903854064532     2.314317919410     1.287863921175
    H            0.969237112248     2.923739632173     0.392204954261
    H            1.846315533173     1.802671837564     1.449260889614
    H            0.701099711761     2.957402965606     2.131536894049

  Mulliken Charges: (a.u.)
   Center  Symbol    Alpha    Beta     Spin     Total
       1     H     0.40125  0.40125  0.00000  0.19749
       2     C     3.11203  3.11203  0.00000 -0.22407
       3     C     3.09188  3.09188  0.00000 -0.18375
       4     C     3.09101  3.09101  0.00000 -0.18202
       5     H     0.39879  0.39879  0.00000  0.20241
       6     C     3.12540  3.12540  0.00000 -0.25081
       7     H     0.39968  0.39968  0.00000  0.20064
       8     C     3.14465  3.14465  0.00000 -0.28931
       9     H     0.39296  0.39296  0.00000  0.21408
      10     C     2.78257  2.78257  0.00000  0.43486
      11     H     0.39736  0.39736  0.00000  0.20528
      12     O     4.32612  4.32612  0.00000 -0.65224
      13     C     3.09224  3.09224  0.00000 -0.18447
      14     H     0.41970  0.41970  0.00000  0.16060
      15     H     0.41942  0.41942  0.00000  0.16117
      16     H     0.40493  0.40493  0.00000  0.19014

   Total alpha = 29.00000, Total beta = 29.00000, Total charge = -0.00000
