  ==> Input File <==

--------------------------------------------------------------------------
set {
	reference rhf
	basis 6-31G*
}

set_num_threads( 4 )
memory 2 gb

molecule MOL {
0 1

H	 2.003271	 1.435266	 -0.808790
O	 1.121734	 1.077523	 -0.850002
C	 1.050492	 0.053836	 0.000068
C	 -0.318135	 -0.576402	 0.000164
O	 1.978408	 -0.286846	 0.658783
C	 -1.454360	 0.441875	 -0.000474
H	 -0.374042	 -1.230163	 -0.866135
H	 -0.374274	 -1.229227	 0.867154
C	 -2.826123	 -0.230780	 0.000056
H	 -1.357605	 1.085198	 -0.868380
H	 -1.357504	 1.086451	 0.866496
H	 -2.959731	 -0.858053	 -0.876869
H	 -3.619374	 0.509403	 -0.000080
H	 -2.959371	 -0.857318	 0.877556

	symmetry c1
}
set optking {
	frozen_dihedral = ("
		2 3 4 7
	")
}

ee = optimize('scf')
oeprop('DIPOLE', 'QUADRUPOLE', 'MULLIKEN_CHARGES')
f=open( 'psi4out.xyz', 'w' )
f.write( "14  " )
f.write( str(ee) + "\n" )
f.write( MOL.save_string_xyz() )
f.close()
--------------------------------------------------------------------------

    Molecular point group: c1
  Charge       = 0
  Multiplicity = 1
  Basis Set: 6-31G*
  Basis Set:
  @DF-RHF Final Energy:  -305.87865106933043
    Total Energy =                       -305.8786510693304308
    Molecular point group: c1
  Basis Set: 6-31G*
  Basis Set:
  Basis Set: 6-31G*
  Basis Set:
  @DF-RHF Final Energy:  -305.87879865851977
    Total Energy =                       -305.8787986585197132
  Basis Set: 6-31G*
  Basis Set:
  Basis Set: 6-31G*
  Basis Set:
  @DF-RHF Final Energy:  -305.87838153774874
    Total Energy =                       -305.8783815377486235
  Basis Set: 6-31G*
  Basis Set:
  Basis Set: 6-31G*
  Basis Set:
  @DF-RHF Final Energy:  -305.87903899754167
    Total Energy =                       -305.8790389975416133
  Basis Set: 6-31G*
  Basis Set:
  Basis Set: 6-31G*
  Basis Set:
  @DF-RHF Final Energy:  -305.87904545165821
    Total Energy =                       -305.8790454516580439
  Basis Set: 6-31G*
  Basis Set:
  Basis Set: 6-31G*
  Basis Set:
  @DF-RHF Final Energy:  -305.87904706244581
    Total Energy =                       -305.8790470624456930
  Basis Set: 6-31G*
  Basis Set:
  Charge       = 0
  Multiplicity = 1
  Basis Set: 6-31G*
  Basis Set:

    Orbital Energies (a.u.)
    -----------------------

    Doubly Occupied:

       1A    -20.614209     2A    -20.549642     3A    -11.381074
       4A    -11.240805     5A    -11.232250     6A    -11.220146
       7A     -1.475157     8A     -1.364791     9A     -1.085695
      10A     -0.978908    11A     -0.847372    12A     -0.816082
      13A     -0.700231    14A     -0.683644    15A     -0.655750
      16A     -0.622943    17A     -0.591737    18A     -0.564667
      19A     -0.551148    20A     -0.521852    21A     -0.498687
      22A     -0.487891    23A     -0.472743    24A     -0.437447

  @DF-RHF Final Energy:  -305.87904710930854

   => Energetics <=

    Nuclear Repulsion Energy =            240.3878113930273912
    One-Electron Energy =                -893.3439726147096280
    Two-Electron Energy =                 347.0771141123738062
    DFT Exchange-Correlation Energy =       0.0000000000000000
    Empirical Dispersion Energy =           0.0000000000000000
    PCM Polarization Energy =               0.0000000000000000
    EFP Energy =                            0.0000000000000000
    Total Energy =                       -305.8790471093084307
    Molecular point group: c1
  Basis Set: 6-31G*
  Basis Set:

  -Total Gradient:
     Atom            X                  Y                   Z
    ------   -----------------  -----------------  -----------------
       1        0.000003153095     0.000003755080    -0.000002419421
       2       -0.000196599307     0.000450302552     0.000532789179
       3        0.000329298357    -0.000759038716    -0.000613204337
       4       -0.000416588073     0.000947104271    -0.000379966867
       5       -0.000001687485     0.000011522248    -0.000008424400
       6       -0.000001472365     0.000000263846     0.000026413510
       7        0.000291239417    -0.000663585115     0.000455572824
       8       -0.000002870175     0.000004189878    -0.000002953406
       9       -0.000000207223     0.000002594301    -0.000012007849
      10       -0.000002934996    -0.000000418166     0.000003948677
      11       -0.000003248609     0.000002328737    -0.000001280630
      12        0.000003150089    -0.000005030922     0.000002681991
      13       -0.000000510186    -0.000000476854    -0.000004922232
      14       -0.000000722551     0.000006488858     0.000003772962

  **** Optimization is complete! (in 7 steps) ****
    Final optimized geometry and variables:
    Molecular point group: c1

    Geometry (in Angstrom), charge = 0, multiplicity = 1:

    H            2.110875904816     1.316123757365    -0.729049467617
    O            1.213758910041     1.000432380557    -0.779541011378
    C            1.098910318217    -0.041083718424     0.043222202287
    C           -0.278961024079    -0.653392028526     0.030752309943
    O            2.014232159151    -0.434123039050     0.690951424204
    C           -1.433107813077     0.353712317720     0.022665386996
    H           -0.332596078750    -1.288353644870    -0.851112037059
    H           -0.334233502381    -1.305985415998     0.892837361422
    C           -2.792239681510    -0.343053803064     0.060095824741
    H           -1.362835476394     0.978562121057    -0.859752657246
    H           -1.340674844458     1.014807033161     0.880189335379
    H           -2.924401012382    -0.992591009545    -0.800516754355
    H           -3.598898572861     0.382515087851     0.053513172582
    H           -2.900304208575    -0.950723503430     0.953646669346

  Mulliken Charges: (a.u.)
   Center  Symbol    Alpha    Beta     Spin     Total
       1     H     0.26729  0.26729  0.00000  0.46541
       2     O     4.34736  4.34736  0.00000 -0.69472
       3     C     2.62618  2.62618  0.00000  0.74764
       4     C     3.20615  3.20615  0.00000 -0.41229
       5     O     4.28073  4.28073  0.00000 -0.56145
       6     C     3.15953  3.15953  0.00000 -0.31906
       7     H     0.40051  0.40051  0.00000  0.19897
       8     H     0.39633  0.39633  0.00000  0.20733
       9     C     3.24238  3.24238  0.00000 -0.48475
      10     H     0.40560  0.40560  0.00000  0.18880
      11     H     0.41521  0.41521  0.00000  0.16959
      12     H     0.41957  0.41957  0.00000  0.16087
      13     H     0.41454  0.41454  0.00000  0.17093
      14     H     0.41863  0.41863  0.00000  0.16274

   Total alpha = 24.00000, Total beta = 24.00000, Total charge = -0.00000
