  ==> Input File <==

--------------------------------------------------------------------------
set {
	reference rhf
	basis 6-31G*
}

set_num_threads( 1 )
memory 2 gb

molecule MOL {
0 1

O	 2.317525	 0.261614	 -1.153837
C	 2.701189	 0.057885	 -0.047330
C	 2.530299	 0.988491	 1.128916
O	 3.347903	 -1.046386	 0.304773
C	 1.779209	 2.270322	 0.775520
H	 2.029621	 0.425757	 1.909841
H	 3.523024	 1.209912	 1.512538
C	 1.689054	 3.271623	 1.932138
H	 0.781557	 2.017524	 0.429249
H	 2.276927	 2.742156	 -0.064760
C	 0.846922	 2.807014	 3.123802
H	 1.264322	 4.195201	 1.545708
H	 2.692263	 3.521405	 2.274468
C	 0.697256	 3.882376	 4.201854
H	 -0.140105	 2.511965	 2.770894
H	 1.288940	 1.919950	 3.571809
C	 -0.138042	 3.427424	 5.399948
H	 0.242887	 4.769675	 3.764267
H	 1.684315	 4.185546	 4.547544
C	 -0.285867	 4.508376	 6.470177
H	 -1.124388	 3.123164	 5.056160
H	 0.316952	 2.543157	 5.841346
H	 -0.882537	 4.156057	 7.305919
H	 -0.769913	 5.394122	 6.068494
H	 0.682607	 4.810007	 6.859214
C	 4.728119	 -1.109107	 -0.004993
H	 4.882018	 -1.033965	 -1.071845
H	 5.068212	 -2.067527	 0.355250
H	 5.265056	 -0.311663	 0.488280

	symmetry c1
}
set optking {
	frozen_dihedral = ("
		21 17 14 11,
		17 14 11 15,
		15 11 8 5,
		6 3 5 9,
		11 8 5 9,
		2 4 26 27,
		6 3 2 1
	")
}

ee = energy('scf')
oeprop('DIPOLE', 'QUADRUPOLE', 'MULLIKEN_CHARGES')
f=open( 'psi4out.xyz', 'w' )
f.write( "29  " )
f.write( str(ee) + "\n" )
f.write( MOL.save_string_xyz() )
f.close()
--------------------------------------------------------------------------

    Molecular point group: c1

    Geometry (in Angstrom), charge = 0, multiplicity = 1:

       Center              X                  Y                   Z               Mass
    ------------   -----------------  -----------------  -----------------  -----------------
           O          0.455109501792    -1.465806077258    -3.150666882268    15.994914619560
           C          0.838773501792    -1.669535077258    -2.044159882268    12.000000000000
           C          0.667883501792    -0.738929077258    -0.867913882268    12.000000000000
           O          1.485487501792    -2.773806077258    -1.692056882268    15.994914619560
           C         -0.083206498208     0.542901922742    -1.221309882268    12.000000000000
           H          0.167205501792    -1.301663077258    -0.086988882268     1.007825032070
           H          1.660608501792    -0.517508077258    -0.484291882268     1.007825032070
           C         -0.173361498208     1.544202922742    -0.064691882268    12.000000000000
           H         -1.080858498208     0.290103922742    -1.567580882268     1.007825032070
           H          0.414511501792     1.014735922742    -2.061589882268     1.007825032070
           C         -1.015493498208     1.079593922742     1.126972117732    12.000000000000
           H         -0.598093498208     2.467780922742    -0.451121882268     1.007825032070
           H          0.829847501792     1.793984922742     0.277638117732     1.007825032070
           C         -1.165159498208     2.154955922742     2.205024117732    12.000000000000
           H         -2.002520498208     0.784544922742     0.774064117732     1.007825032070
           H         -0.573475498208     0.192529922742     1.574979117732     1.007825032070
           C         -2.000457498208     1.700003922742     3.403118117732    12.000000000000
           H         -1.619528498208     3.042254922742     1.767437117732     1.007825032070
           H         -0.178100498208     2.458125922742     2.550714117732     1.007825032070
           C         -2.148282498208     2.780955922742     4.473347117732    12.000000000000
           H         -2.986803498208     1.395743922742     3.059330117732     1.007825032070
           H         -1.545463498208     0.815736922742     3.844516117732     1.007825032070
           H         -2.744952498208     2.428636922742     5.309089117732     1.007825032070
           H         -2.632328498208     3.666701922742     4.071664117732     1.007825032070
           H         -1.179808498208     3.082586922742     4.862384117732     1.007825032070
           C          2.865703501792    -2.836527077258    -2.001822882268    12.000000000000
           H          3.019602501792    -2.761385077258    -3.068674882268     1.007825032070
           H          3.205796501792    -3.794947077258    -1.641579882268     1.007825032070
           H          3.402640501792    -2.039083077258    -1.508549882268     1.007825032070

  Charge       = 0
  Multiplicity = 1
  Basis Set: 6-31G*
  Basis Set:

    Orbital Energies (a.u.)
    -----------------------

    Doubly Occupied:

       1A    -20.586923     2A    -20.554099     3A    -11.373225
       4A    -11.293746     5A    -11.235951     6A    -11.219587
       7A    -11.218523     8A    -11.216817     9A    -11.216488
      10A    -11.215250    11A    -11.209627    12A     -1.463903
      13A     -1.366184    14A     -1.098593    15A     -1.066402
      16A     -1.016356    17A     -0.980181    18A     -0.936381
      19A     -0.865160    20A     -0.801761    21A     -0.792030
      22A     -0.764492    23A     -0.699441    24A     -0.679672
      25A     -0.675161    26A     -0.651766    27A     -0.625414
      28A     -0.618261    29A     -0.598022    30A     -0.587417
      31A     -0.564616    32A     -0.557438    33A     -0.539147
      34A     -0.530804    35A     -0.518766    36A     -0.502543
      37A     -0.489034    38A     -0.481988    39A     -0.473162
      40A     -0.465627    41A     -0.463009    42A     -0.450500
      43A     -0.442035    44A     -0.430979

  @DF-RHF Final Energy:  -501.02410398011045

   => Energetics <=

    Nuclear Repulsion Energy =            612.1631563178626720
    One-Electron Energy =               -1895.3016789279572549
    Two-Electron Energy =                 782.1144186299866305
    DFT Exchange-Correlation Energy =       0.0000000000000000
    Empirical Dispersion Energy =           0.0000000000000000
    PCM Polarization Energy =               0.0000000000000000
    EFP Energy =                            0.0000000000000000
    Total Energy =                       -501.0241039801080660

  Mulliken Charges: (a.u.)
   Center  Symbol    Alpha    Beta     Spin     Total
       1     O     4.26098  4.26098  0.00000 -0.52196
       2     C     2.61316  2.61316  0.00000  0.77369
       3     C     3.21277  3.21277  0.00000 -0.42554
       4     O     4.31128  4.31128  0.00000 -0.62256
       5     C     3.15473  3.15473  0.00000 -0.30946
       6     H     0.39679  0.39679  0.00000  0.20643
       7     H     0.40845  0.40845  0.00000  0.18310
       8     C     3.15624  3.15624  0.00000 -0.31247
       9     H     0.41185  0.41185  0.00000  0.17631
      10     H     0.41011  0.41011  0.00000  0.17978
      11     C     3.15496  3.15496  0.00000 -0.30992
      12     H     0.41824  0.41824  0.00000  0.16351
      13     H     0.42513  0.42513  0.00000  0.14975
      14     C     3.15025  3.15025  0.00000 -0.30050
      15     H     0.42200  0.42200  0.00000  0.15599
      16     H     0.42400  0.42400  0.00000  0.15199
      17     C     3.15149  3.15149  0.00000 -0.30299
      18     H     0.42316  0.42316  0.00000  0.15367
      19     H     0.42439  0.42439  0.00000  0.15123
      20     C     3.23936  3.23936  0.00000 -0.47873
      21     H     0.42247  0.42247  0.00000  0.15505
      22     H     0.42350  0.42350  0.00000  0.15299
      23     H     0.41907  0.41907  0.00000  0.16185
      24     H     0.42146  0.42146  0.00000  0.15707
      25     H     0.42201  0.42201  0.00000  0.15599
      26     C     3.09326  3.09326  0.00000 -0.18651
      27     H     0.40591  0.40591  0.00000  0.18818
      28     H     0.40204  0.40204  0.00000  0.19593
      29     H     0.42094  0.42094  0.00000  0.15812

   Total alpha = 44.00000, Total beta = 44.00000, Total charge = -0.00000
