  ==> Input File <==

--------------------------------------------------------------------------
set {
	reference rhf
	basis 6-31G*
}

set_num_threads( 4 )
memory 2 gb

molecule MOL {
0 1

H	 3.276176	 0.174363	 -0.109463
N	 2.434251	 -0.367735	 -0.081097
C	 1.267428	 0.496480	 0.024474
H	 2.501951	 -0.965776	 0.720575
C	 -0.016086	 -0.325158	 -0.029487
H	 1.288818	 1.183521	 -0.816092
H	 1.267576	 1.109062	 0.929528
C	 -1.282277	 0.529072	 0.046735
H	 -0.012495	 -0.908639	 -0.945788
H	 -0.015903	 -1.041248	 0.791956
C	 -1.449791	 1.224429	 1.397335
H	 -2.151352	 -0.096914	 -0.145193
H	 -1.264929	 1.277228	 -0.743151
H	 -1.505918	 0.500997	 2.205552
H	 -2.356386	 1.821034	 1.423226
H	 -0.612742	 1.885320	 1.604197

	symmetry c1
}
set optking {
	frozen_dihedral = ("
		12 8 5 9
	")
}

ee = optimize('scf')
oeprop('DIPOLE', 'QUADRUPOLE', 'MULLIKEN_CHARGES')
f=open( 'psi4out.xyz', 'w' )
f.write( "16  " )
f.write( str(ee) + "\n" )
f.write( MOL.save_string_xyz() )
f.close()
--------------------------------------------------------------------------

    Molecular point group: c1
  Charge       = 0
  Multiplicity = 1
  Basis Set: 6-31G*
  Basis Set:
  @DF-RHF Final Energy:  -212.31457168866859
    Total Energy =                       -212.3145716886683658
    Molecular point group: c1
  Basis Set: 6-31G*
  Basis Set:
  Basis Set: 6-31G*
  Basis Set:
  @DF-RHF Final Energy:  -212.31496808820680
    Total Energy =                       -212.3149680882067969
  Basis Set: 6-31G*
  Basis Set:
  Basis Set: 6-31G*
  Basis Set:
  @DF-RHF Final Energy:  -212.31522999461529
    Total Energy =                       -212.3152299946153789
  Basis Set: 6-31G*
  Basis Set:
  Basis Set: 6-31G*
  Basis Set:
  @DF-RHF Final Energy:  -212.31524048083031
    Total Energy =                       -212.3152404808301981
  Basis Set: 6-31G*
  Basis Set:
  Charge       = 0
  Multiplicity = 1
  Basis Set: 6-31G*
  Basis Set:

    Orbital Energies (a.u.)
    -----------------------

    Doubly Occupied:

       1A    -15.532463     2A    -11.239384     3A    -11.215472
       4A    -11.209901     5A    -11.208877     6A     -1.176479
       7A     -1.058537     8A     -0.955578     9A     -0.857453
      10A     -0.781359    11A     -0.655679    12A     -0.637086
      13A     -0.620414    14A     -0.566156    15A     -0.563850
      16A     -0.534586    17A     -0.500550    18A     -0.466455
      19A     -0.465394    20A     -0.460877    21A     -0.380473

  @DF-RHF Final Energy:  -212.31524105337138

   => Energetics <=

    Nuclear Repulsion Energy =            188.4960191039820643
    One-Electron Energy =                -659.4484807969232634
    Two-Electron Energy =                 258.6372206395696480
    DFT Exchange-Correlation Energy =       0.0000000000000000
    Empirical Dispersion Energy =           0.0000000000000000
    PCM Polarization Energy =               0.0000000000000000
    EFP Energy =                            0.0000000000000000
    Total Energy =                       -212.3152410533715511
    Molecular point group: c1
  Basis Set: 6-31G*
  Basis Set:

  -Total Gradient:
     Atom            X                  Y                   Z
    ------   -----------------  -----------------  -----------------
       1       -0.000002515268     0.000002706991    -0.000008020112
       2       -0.000011967556     0.000003638447    -0.000018158496
       3       -0.000017625642    -0.000017866657     0.000021218160
       4       -0.000013237219     0.000009405370    -0.000000469584
       5       -0.000000556249     0.000017080594     0.000025655174
       6        0.000012101958    -0.000005508461     0.000003882051
       7       -0.000022045858     0.000013908078     0.000010133053
       8        0.000053147631     0.000042324212    -0.000000468395
       9       -0.000021820010    -0.000025024770     0.000015167980
      10        0.000033020995    -0.000016530666     0.000014491459
      11       -0.000009671645    -0.000059593216    -0.000015408241
      12       -0.000008829012     0.000014291487    -0.000007096091
      13       -0.000013592715     0.000037988350    -0.000011717540
      14        0.000013678760     0.000005612353     0.000004543255
      15       -0.000005279293    -0.000010956246    -0.000006642447
      16        0.000015191122    -0.000011475868    -0.000027110225

  **** Optimization is complete! (in 5 steps) ****
    Final optimized geometry and variables:
    Molecular point group: c1

    Geometry (in Angstrom), charge = 0, multiplicity = 1:

    H            3.065732592491    -0.185326184015    -0.448562623707
    N            2.212515725207    -0.709746826627    -0.421631555008
    C            1.069364412713     0.176099380658    -0.245047121744
    H            2.287457195848    -1.342778202929     0.352150612303
    C           -0.229433165155    -0.624319670867    -0.291486145402
    H            1.076584398903     0.890343202405    -1.063244477675
    H            1.122303788707     0.754887727391     0.678084659033
    C           -1.505213659827     0.222500699763    -0.226679444975
    H           -0.226051562955    -1.203313503115    -1.209760224917
    H           -0.235039410716    -1.344864974963     0.526305843598
    C           -1.735458683932     0.932701034771     1.109181815568
    H           -2.355197511009    -0.424743075867    -0.426614025896
    H           -1.491032584199     0.957251261557    -1.029327838081
    H           -1.742570110605     0.222718919252     1.931945690969
    H           -2.690743188243     1.448595268807     1.111414523281
    H           -0.967699122066     1.670793632335     1.316509525968

  Mulliken Charges: (a.u.)
   Center  Symbol    Alpha    Beta     Spin     Total
       1     H     0.33257  0.33257  0.00000  0.33487
       2     N     3.92163  3.92163  0.00000 -0.84326
       3     C     3.06247  3.06247  0.00000 -0.12495
       4     H     0.33543  0.33543  0.00000  0.32915
       5     C     3.15269  3.15269  0.00000 -0.30537
       6     H     0.42127  0.42127  0.00000  0.15746
       7     H     0.43241  0.43241  0.00000  0.13518
       8     C     3.15664  3.15664  0.00000 -0.31328
       9     H     0.41096  0.41096  0.00000  0.17808
      10     H     0.42831  0.42831  0.00000  0.14338
      11     C     3.24113  3.24113  0.00000 -0.48226
      12     H     0.41952  0.41952  0.00000  0.16096
      13     H     0.42263  0.42263  0.00000  0.15475
      14     H     0.42238  0.42238  0.00000  0.15524
      15     H     0.41898  0.41898  0.00000  0.16204
      16     H     0.42100  0.42100  0.00000  0.15799

   Total alpha = 21.00000, Total beta = 21.00000, Total charge =  0.00000
