  ==> Input File <==

--------------------------------------------------------------------------
set {
	reference rhf
	basis 6-31G*
}

set_num_threads( 4 )
memory 2 gb

molecule MOL {
0 1

O	 -2.821601	 1.309235	 -0.001213
C	 -2.668563	 0.129746	 -0.000350
C	 -3.801572	 -0.864014	 -0.000442
O	 -1.481751	 -0.454642	 0.000584
H	 -4.417280	 -0.689587	 -0.874708
H	 -3.443784	 -1.883046	 -0.000565
H	 -4.417179	 -0.689832	 0.873954
C	 -0.334255	 0.388708	 0.000906
C	 0.891947	 -0.504646	 0.000751
H	 -0.365390	 1.025305	 -0.873475
H	 -0.365484	 1.024911	 0.875569
C	 2.191998	 0.301789	 0.000897
H	 0.855148	 -1.151283	 -0.871571
H	 0.855132	 -1.151660	 0.872805
C	 1.987374	 1.762089	 0.408302
H	 2.907490	 -0.161631	 0.677950
H	 2.642148	 0.266406	 -0.989656
C	 3.286103	 2.567177	 0.409729
H	 1.537935	 1.799297	 1.398098
H	 1.274400	 2.227369	 -0.268642
H	 4.008130	 2.145693	 1.103301
H	 3.108871	 3.597277	 0.702505
H	 3.742429	 2.577272	 -0.576007

	symmetry c1
}
set optking {
	frozen_dihedral = ("
		16 12 9 13
	")
}

ee = optimize('scf')
oeprop('DIPOLE', 'QUADRUPOLE', 'MULLIKEN_CHARGES')
f=open( 'psi4out.xyz', 'w' )
f.write( "23  " )
f.write( str(ee) + "\n" )
f.write( MOL.save_string_xyz() )
f.close()
--------------------------------------------------------------------------

    Molecular point group: c1
  Charge       = 0
  Multiplicity = 1
  Basis Set: 6-31G*
  Basis Set:
  @DF-RHF Final Energy:  -422.96750678532675
    Total Energy =                       -422.9675067853270320
    Molecular point group: c1
  Basis Set: 6-31G*
  Basis Set:
  Basis Set: 6-31G*
  Basis Set:
  @DF-RHF Final Energy:  -422.96794630024067
    Total Energy =                       -422.9679463002408966
  Basis Set: 6-31G*
  Basis Set:
  Basis Set: 6-31G*
  Basis Set:
  @DF-RHF Final Energy:  -422.97091788982169
    Total Energy =                       -422.9709178898219761
  Basis Set: 6-31G*
  Basis Set:
  Basis Set: 6-31G*
  Basis Set:
  @DF-RHF Final Energy:  -422.97128854065522
    Total Energy =                       -422.9712885406551095
  Basis Set: 6-31G*
  Basis Set:
  @DF-RHF Final Energy:  -422.97121139311935
    Total Energy =                       -422.9712113931196882
  @DF-RHF Final Energy:  -422.97095502667457
    Total Energy =                       -422.9709550266745737
  Basis Set: 6-31G*
  Basis Set:
  @DF-RHF Final Energy:  -422.97133444303603
    Total Energy =                       -422.9713344430356301
  Basis Set: 6-31G*
  Basis Set:
  Basis Set: 6-31G*
  Basis Set:
  @DF-RHF Final Energy:  -422.97133079006659
    Total Energy =                       -422.9713307900663040
  Basis Set: 6-31G*
  Basis Set:
  Basis Set: 6-31G*
  Basis Set:
  @DF-RHF Final Energy:  -422.97133602042868
    Total Energy =                       -422.9713360204286801
  Basis Set: 6-31G*
  Basis Set:
  Charge       = 0
  Multiplicity = 1
  Basis Set: 6-31G*
  Basis Set:

    Orbital Energies (a.u.)
    -----------------------

    Doubly Occupied:

       1A    -20.602432     2A    -20.540192     3A    -11.373769
       4A    -11.280610     5A    -11.232154     6A    -11.224636
       7A    -11.224020     8A    -11.222084     9A    -11.213051
      10A     -1.467439    11A     -1.360342    12A     -1.091323
      13A     -1.039915    14A     -1.001351    15A     -0.930882
      16A     -0.853594    17A     -0.788502    18A     -0.776903
      19A     -0.691498    20A     -0.684530    21A     -0.665561
      22A     -0.644279    23A     -0.606162    24A     -0.587962
      25A     -0.575873    26A     -0.570020    27A     -0.567171
      28A     -0.527091    29A     -0.525302    30A     -0.512809
      31A     -0.499385    32A     -0.474128    33A     -0.465268
      34A     -0.458754    35A     -0.448071    36A     -0.435531

  @DF-RHF Final Energy:  -422.97133622558488

   => Energetics <=

    Nuclear Repulsion Energy =            457.4292283815508426
    One-Electron Energy =               -1482.4759461004721288
    Two-Electron Energy =                 602.0753814933361809
    DFT Exchange-Correlation Energy =       0.0000000000000000
    Empirical Dispersion Energy =           0.0000000000000000
    PCM Polarization Energy =               0.0000000000000000
    EFP Energy =                            0.0000000000000000
    Total Energy =                       -422.9713362255849916
    Molecular point group: c1
  Basis Set: 6-31G*
  Basis Set:

  -Total Gradient:
     Atom            X                  Y                   Z
    ------   -----------------  -----------------  -----------------
       1        0.000000427423    -0.000001493932     0.000014094978
       2       -0.000000606290     0.000000677783    -0.000064176905
       3       -0.000000493062     0.000000340078     0.000032155117
       4        0.000000460357     0.000002093826    -0.000015327064
       5        0.000006442768     0.000003358406    -0.000001306993
       6       -0.000000132589    -0.000000093047     0.000000519614
       7       -0.000006662977    -0.000003541264    -0.000001658153
       8       -0.000006030725    -0.000004770862     0.000091104517
       9        0.002606132497    -0.004149584714     0.004245659878
      10       -0.000013761281    -0.000001985395    -0.000017658846
      11        0.000008218880    -0.000004703397    -0.000018714314
      12        0.001481924447    -0.002813104088    -0.005534713563
      13       -0.002414337134     0.003906924172    -0.002750913084
      14       -0.000007445401     0.000005395921    -0.000002274587
      15        0.000007912497    -0.000000398754     0.000005894575
      16       -0.001673493077     0.003056764688     0.004017551378
      17        0.000005103035     0.000001811737     0.000004257161
      18        0.000001109778    -0.000000801198    -0.000000634054
      19        0.000007528498     0.000004185045    -0.000001714998
      20       -0.000002587805    -0.000003351475    -0.000000528989
      21       -0.000000904769    -0.000001374500    -0.000003903755
      22        0.000000592714     0.000001583285     0.000002492859
      23        0.000000602224     0.000002067685    -0.000000204773

  **** Optimization is complete! (in 10 steps) ****
    Final optimized geometry and variables:
    Molecular point group: c1

    Geometry (in Angstrom), charge = 0, multiplicity = 1:

    O           -2.622054600773     0.708706598532    -0.136117314729
    C           -2.404610613602    -0.460510262543    -0.114169442889
    C           -3.481879771440    -1.514527382892    -0.119319540895
    O           -1.188288253245    -0.979317750124    -0.082279319825
    H           -4.089910095972    -1.386295131868    -1.006852740288
    H           -3.069397210085    -2.512446782629    -0.097676863541
    H           -4.122128200815    -1.361857197716     0.741307383064
    C           -0.087431996361    -0.073784227151    -0.071525015018
    C            1.173120912678    -0.926474607971    -0.041671055049
    H           -0.138458167941     0.544703269973    -0.957292800174
    H           -0.178214008256     0.570330620055     0.790611145566
    C            2.504592139606    -0.136546724556    -0.088667698123
    H            1.111297637116    -1.575102712582    -0.909303778090
    H            1.133301212345    -1.556530559317     0.839979008922
    C            2.447030698640     1.334469169395     0.349123138957
    H            3.210478951150    -0.625010021105     0.577003065775
    H            2.923088328159    -0.183879943870    -1.089443970024
    C            3.824841581642     1.994887167345     0.306231666780
    H            2.052176750632     1.402762515259     1.360005069983
    H            1.767965230100     1.896265648033    -0.286040418945
    H            4.524976004920     1.486271831274     0.962879429793
    H            3.771391006289     3.032735536423     0.619311831881
    H            4.238801089693     1.972956686782    -0.697900051239

  Mulliken Charges: (a.u.)
   Center  Symbol    Alpha    Beta     Spin     Total
       1     O     4.28409  4.28409  0.00000 -0.56819
       2     C     2.61545  2.61545  0.00000  0.76910
       3     C     3.28778  3.28778  0.00000 -0.57555
       4     O     4.31369  4.31369  0.00000 -0.62738
       5     H     0.39759  0.39759  0.00000  0.20482
       6     H     0.39992  0.39992  0.00000  0.20016
       7     H     0.39759  0.39759  0.00000  0.20483
       8     C     3.00027  3.00027  0.00000 -0.00054
       9     C     3.16683  3.16683  0.00000 -0.33366
      10     H     0.41055  0.41055  0.00000  0.17889
      11     H     0.40861  0.40861  0.00000  0.18279
      12     C     3.15923  3.15923  0.00000 -0.31846
      13     H     0.41175  0.41175  0.00000  0.17650
      14     H     0.41219  0.41219  0.00000  0.17562
      15     C     3.16128  3.16128  0.00000 -0.32255
      16     H     0.41778  0.41778  0.00000  0.16444
      17     H     0.41802  0.41802  0.00000  0.16395
      18     C     3.23913  3.23913  0.00000 -0.47827
      19     H     0.42044  0.42044  0.00000  0.15913
      20     H     0.41877  0.41877  0.00000  0.16246
      21     H     0.42118  0.42118  0.00000  0.15765
      22     H     0.41698  0.41698  0.00000  0.16604
      23     H     0.42089  0.42089  0.00000  0.15823

   Total alpha = 36.00000, Total beta = 36.00000, Total charge =  0.00000
