  ==> Input File <==

--------------------------------------------------------------------------
set {
	reference rhf
	basis cc-pvtz
}

set_num_threads( 4 )
memory 2 gb

molecule MOL {
0 1

O	 -2.440701	 -0.934798	 -0.415053
C	 -1.922978	 0.063265	 -0.045005
C	 -2.632749	 1.372204	 0.158357
O	 -0.637375	 0.157174	 0.243149
H	 -2.187724	 2.129143	 -0.474664
H	 -3.677681	 1.257276	 -0.079438
H	 -2.516788	 1.693160	 1.185542
C	 0.162530	 -1.009518	 0.097799
C	 1.587210	 -0.664190	 0.477086
H	 0.096803	 -1.356267	 -0.924704
H	 -0.233803	 -1.785900	 0.736810
C	 2.256770	 0.342732	 -0.454344
H	 2.154716	 -1.590834	 0.479041
H	 1.598751	 -0.289614	 1.496104
C	 2.872745	 1.518781	 0.296055
H	 3.028100	 -0.162358	 -1.029697
H	 1.529631	 0.709892	 -1.169401
H	 3.344119	 2.215055	 -0.387608
H	 3.627718	 1.184468	 1.000073
H	 2.119329	 2.063678	 0.855044

	symmetry c1
}
set optking {
	frozen_dihedral = ("
		16 12 9 8
	")
}

ee = optimize('scf')
oeprop('DIPOLE', 'QUADRUPOLE', 'MULLIKEN_CHARGES')
f=open( 'psi4out.xyz', 'w' )
f.write( "20  " )
f.write( str(ee) + "\n" )
f.write( MOL.save_string_xyz() )
f.close()
--------------------------------------------------------------------------

    Molecular point group: c1
  Charge       = 0
  Multiplicity = 1
  Basis Set: CC-PVTZ
  Basis Set:
  @DF-RHF Final Energy:  -384.08238307786894
    Total Energy =                       -384.0823830778684851
    Molecular point group: c1
  Basis Set: CC-PVTZ
  Basis Set:
  Basis Set: CC-PVTZ
  Basis Set:
  @DF-RHF Final Energy:  -384.08261586155743
    Total Energy =                       -384.0826158615577697
  Basis Set: CC-PVTZ
  Basis Set:
  Basis Set: CC-PVTZ
  Basis Set:
  @DF-RHF Final Energy:  -384.08258295181446
    Total Energy =                       -384.0825829518144019
  Basis Set: CC-PVTZ
  Basis Set:
  Basis Set: CC-PVTZ
  Basis Set:
  @DF-RHF Final Energy:  -384.08269304635439
    Total Energy =                       -384.0826930463546205
  Basis Set: CC-PVTZ
  Basis Set:
  Basis Set: CC-PVTZ
  Basis Set:
  @DF-RHF Final Energy:  -384.08269321196173
    Total Energy =                       -384.0826932119620096
  Basis Set: CC-PVTZ
  Basis Set:
  Basis Set: CC-PVTZ
  Basis Set:
  @DF-RHF Final Energy:  -384.08269835337381
    Total Energy =                       -384.0826983533737575
  Basis Set: CC-PVTZ
  Basis Set:
  Charge       = 0
  Multiplicity = 1
  Basis Set: CC-PVTZ
  Basis Set:

    Orbital Energies (a.u.)
    -----------------------

    Doubly Occupied:

       1A    -20.594793     2A    -20.533002     3A    -11.367021
       4A    -11.280393     5A    -11.231979     6A    -11.223244
       7A    -11.219205     8A    -11.210366     9A     -1.471390
      10A     -1.365596    11A     -1.084889    12A     -1.028555
      13A     -0.982235    14A     -0.881416    15A     -0.810615
      16A     -0.778539    17A     -0.693407    18A     -0.687069
      19A     -0.670112    20A     -0.624468    21A     -0.605493
      22A     -0.595472    23A     -0.575911    24A     -0.553740
      25A     -0.538873    26A     -0.535231    27A     -0.514441
      28A     -0.481193    29A     -0.475377    30A     -0.470606
      31A     -0.452384    32A     -0.442005

  @DF-RHF Final Energy:  -384.08269837375457

   => Energetics <=

    Nuclear Repulsion Energy =            389.0311702807586585
    One-Electron Energy =               -1294.2696945427728679
    Two-Electron Energy =                 521.1558258882594146
    DFT Exchange-Correlation Energy =       0.0000000000000000
    Empirical Dispersion Energy =           0.0000000000000000
    PCM Polarization Energy =               0.0000000000000000
    EFP Energy =                            0.0000000000000000
    Total Energy =                       -384.0826983737547380
    Molecular point group: c1
  Basis Set: CC-PVTZ
  Basis Set:

  -Total Gradient:
     Atom            X                  Y                   Z
    ------   -----------------  -----------------  -----------------
       1        0.000008417344     0.000000576974     0.000002262118
       2       -0.000002863294     0.000008279451    -0.000006802777
       3       -0.000003442028     0.000000050494     0.000003463788
       4       -0.000009169592    -0.000013553180     0.000001100090
       5        0.000000155381    -0.000001050785    -0.000000278235
       6       -0.000000588597     0.000000859938     0.000000315567
       7       -0.000000234298     0.000000884098    -0.000000245078
       8       -0.000403284975     0.000898763834     0.000700234088
       9        0.000817675992    -0.001182078532    -0.000691076044
      10       -0.000002161190    -0.000005844734    -0.000007903195
      11        0.000004607891     0.000006574995    -0.000003201794
      12       -0.001488027324    -0.000055923251    -0.001145906202
      13        0.000001539912     0.000002129326     0.000004423334
      14       -0.000001782706    -0.000002345193    -0.000000765862
      15       -0.000003236236     0.000001405496     0.000001516007
      16        0.001080087838     0.000340427830     0.001141483873
      17        0.000001765484     0.000001654823    -0.000000724237
      18       -0.000001539870    -0.000003333262    -0.000000292313
      19        0.000002141398     0.000000885310     0.000000150176
      20       -0.000000061128     0.000001636367     0.000002246697

  **** Optimization is complete! (in 7 steps) ****
    Final optimized geometry and variables:
    Molecular point group: c1

    Geometry (in Angstrom), charge = 0, multiplicity = 1:

    O           -2.332119540683    -1.041188365540    -0.479446274640
    C           -1.812875466157    -0.049841010263    -0.094199542018
    C           -2.516691875021     1.261460511557     0.112519543771
    O           -0.529741270274     0.033071117650     0.208970677244
    H           -2.059383347412     2.021086824672    -0.508348826551
    H           -3.559475741890     1.155350582086    -0.138457219138
    H           -2.410680263380     1.572169669540     1.143864106913
    C            0.264889224036    -1.137199990321     0.062412801671
    C            1.689650695220    -0.786889339629     0.436469921043
    H            0.193422339191    -1.485612124838    -0.959114364163
    H           -0.130229171320    -1.911092465314     0.705321038439
    C            2.354736453397     0.241423218695    -0.500127258554
    H            2.258834600299    -1.709932069590     0.449964371394
    H            1.686550238914    -0.414719929108     1.455272986512
    C            2.982009592397     1.416024022210     0.245268423583
    H            3.125353380059    -0.248069998842    -1.085577359385
    H            1.624903391939     0.622162397940    -1.204586957491
    H            3.454572790459     2.108485070806    -0.442000682992
    H            3.738741335936     1.076319309698     0.944872119779
    H            2.232522054575     1.961720871998     0.807751048233

  Mulliken Charges: (a.u.)
   Center  Symbol    Alpha    Beta     Spin     Total
       1     O     4.19715  4.19715  0.00000 -0.39431
       2     C     2.80841  2.80841  0.00000  0.38318
       3     C     3.13830  3.13830  0.00000 -0.27660
       4     O     4.15380  4.15380  0.00000 -0.30760
       5     H     0.44609  0.44609  0.00000  0.10783
       6     H     0.43783  0.43783  0.00000  0.12435
       7     H     0.44567  0.44567  0.00000  0.10866
       8     C     2.99491  2.99491  0.00000  0.01018
       9     C     3.08969  3.08969  0.00000 -0.17938
      10     H     0.45021  0.45021  0.00000  0.09958
      11     H     0.44425  0.44425  0.00000  0.11151
      12     C     3.08590  3.08590  0.00000 -0.17180
      13     H     0.44681  0.44681  0.00000  0.10638
      14     H     0.45287  0.45287  0.00000  0.09425
      15     C     3.14833  3.14833  0.00000 -0.29666
      16     H     0.44971  0.44971  0.00000  0.10059
      17     H     0.45274  0.45274  0.00000  0.09452
      18     H     0.44957  0.44957  0.00000  0.10086
      19     H     0.45492  0.45492  0.00000  0.09016
      20     H     0.45285  0.45285  0.00000  0.09430

   Total alpha = 32.00000, Total beta = 32.00000, Total charge = -0.00000
