                              Psi4 1.0.54 Driver

  ==> Input File <==

--------------------------------------------------------------------------
set {
	reference rhf
	basis cc-pvtz
}

set_num_threads( 4 )
memory 2 gb

molecule MOL {
0 1

H	 -2.466737	 1.483232	 2.066900
C	 -2.059152	 0.476258	 2.119451
O	 -0.784026	 0.414855	 1.573718
H	 -1.989318	 0.183273	 3.156837
H	 -2.744851	 -0.199157	 1.611006
C	 -0.718530	 0.758693	 0.228682
C	 0.718529	 0.758687	 -0.228709
H	 -1.279932	 0.042803	 -0.371568
H	 -1.146757	 1.744754	 0.062141
O	 1.401606	 -0.295166	 0.366636
H	 0.748705	 0.673477	 -1.312803
H	 1.176496	 1.708671	 0.046552
C	 2.714315	 -0.441627	 -0.061017
H	 2.765292	 -0.641548	 -1.128869
H	 3.305661	 0.447341	 0.150952
H	 3.143725	 -1.278506	 0.470147

	symmetry c1
}
set optking {
	frozen_dihedral = ("
		3 6 7 11
	")
}

ee,wfn = optimize('scf', return_wfn=True)
oeprop( wfn, 'DIPOLE', 'QUADRUPOLE', 'MULLIKEN_CHARGES')
f=open( 'psi4out.xyz', 'w' )
f.write( "16  " )
f.write( str(ee) + "\n" )
f.write( MOL.save_string_xyz() )
f.close()
--------------------------------------------------------------------------

    Molecular point group: c1
  Charge       = 0
  Multiplicity = 1
  Basis Set: CC-PVTZ
  Basis Set:
  @DF-RHF Final Energy:  -307.09183780494305
    Total Energy =                       -307.0918378049431112
    Molecular point group: c1
  Basis Set: CC-PVTZ
  Basis Set:
  Basis Set: CC-PVTZ
  Basis Set:
  @DF-RHF Final Energy:  -307.09229536009121
    Total Energy =                       -307.0922953600911001
  Basis Set: CC-PVTZ
  Basis Set:
  Basis Set: CC-PVTZ
  Basis Set:
  @DF-RHF Final Energy:  -307.09277924182908
    Total Energy =                       -307.0927792418292483
  Basis Set: CC-PVTZ
  Basis Set:
  Basis Set: CC-PVTZ
  Basis Set:
  @DF-RHF Final Energy:  -307.09278789740358
    Total Energy =                       -307.0927878974034684
  Basis Set: CC-PVTZ
  Basis Set:
  Charge       = 0
  Multiplicity = 1
  Basis Set: CC-PVTZ
  Basis Set:

    Orbital Energies (a.u.)
    -----------------------

    Doubly Occupied:

       1A    -20.546346     2A    -20.545191     3A    -11.269148
       4A    -11.268490     5A    -11.260908     6A    -11.260433
       7A     -1.392344     8A     -1.371968     9A     -1.029511
      10A     -0.934917    11A     -0.895522    12A     -0.820225
      13A     -0.690156    14A     -0.677851    15A     -0.659933
      16A     -0.643815    17A     -0.622274    18A     -0.594729
      19A     -0.567233    20A     -0.524686    21A     -0.508534
      22A     -0.474236    23A     -0.467905    24A     -0.419524
      25A     -0.411697

  @DF-RHF Final Energy:  -307.09278860100528

   => Energetics <=

    Nuclear Repulsion Energy =            260.1326641233525834
    One-Electron Energy =                -934.7357514875856168
    Two-Electron Energy =                 367.5102987632277518
    DFT Exchange-Correlation Energy =       0.0000000000000000
    Empirical Dispersion Energy =           0.0000000000000000
    PCM Polarization Energy =               0.0000000000000000
    EFP Energy =                            0.0000000000000000
    Total Energy =                       -307.0927886010052816
    Molecular point group: c1
  Basis Set: CC-PVTZ
  Basis Set:

  -Total Gradient:
     Atom            X                  Y                   Z
    ------   -----------------  -----------------  -----------------
       1        0.000003970149     0.000011176400    -0.000006586360
       2       -0.000007217638     0.000000813563     0.000037911902
       3       -0.000172703166    -0.006581917097    -0.001010784088
       4       -0.000017397929    -0.000007900213     0.000035936692
       5       -0.000003829449    -0.000016871939    -0.000015185002
       6        0.000405051889     0.006933619202     0.001638669640
       7       -0.000959413260     0.007859699282    -0.002085521677
       8        0.000001489382    -0.000013492777    -0.000012555798
       9        0.000009351774     0.000012076562     0.000017503963
      10       -0.000024793283    -0.000019477108     0.000034028398
      11        0.000760760898    -0.008194168874     0.001383922155
      12       -0.000003873773    -0.000007814487     0.000006357330
      13        0.000029810138     0.000025641713    -0.000047550257
      14        0.000004726529    -0.000005387871     0.000000862310
      15        0.000003515832     0.000010480027     0.000007569656
      16       -0.000029448095    -0.000006476381     0.000015421138

  **** Optimization is complete! (in 5 steps) ****
    Final optimized geometry and variables:
    Molecular point group: c1

    Geometry (in Angstrom), charge = 0, multiplicity = 1:

    H           -2.822079178768     1.048860964403     1.331796001113
    C           -2.271749619736     0.121182270508     1.477885711955
    O           -0.992903505240     0.193969812366     0.943475715519
    H           -2.176249611641    -0.062776941527     2.537993934158
    H           -2.843323753514    -0.690424023014     1.032154186543
    C           -0.962695325793     0.411705014017    -0.424967532107
    C            0.467630297155     0.458129174371    -0.932725479671
    H           -1.492231226081    -0.394802960011    -0.930917075122
    H           -1.459783322606     1.344781730920    -0.689243628738
    O            1.214247675437    -0.550639414129    -0.334581069757
    H            0.446042253199     0.270496310873    -2.005920834427
    H            0.918125861447     1.429153677468    -0.741112268961
    C            2.534256761353    -0.604554094202    -0.758544149433
    H            2.605428215559    -0.791284656315    -1.828833061098
    H            3.063260563273     0.320084323482    -0.536570973950
    H            3.016944512403    -1.415024186655    -0.232204825431

  Mulliken Charges: (a.u.)
   Center  Symbol    Alpha    Beta     Spin     Total
       1     H     0.47340  0.47340  0.00000  0.05320
       2     C     3.03101  3.03101  0.00000 -0.06202
       3     O     4.16216  4.16216  0.00000 -0.32431
       4     H     0.44573  0.44573  0.00000  0.10854
       5     H     0.47221  0.47221  0.00000  0.05559
       6     C     2.96331  2.96331  0.00000  0.07338
       7     C     2.96486  2.96486  0.00000  0.07028
       8     H     0.47534  0.47534  0.00000  0.04931
       9     H     0.47642  0.47642  0.00000  0.04717
      10     O     4.16327  4.16327  0.00000 -0.32654
      11     H     0.47660  0.47660  0.00000  0.04680
      12     H     0.47225  0.47225  0.00000  0.05549
      13     C     3.03090  3.03090  0.00000 -0.06179
      14     H     0.47438  0.47438  0.00000  0.05123
      15     H     0.47225  0.47225  0.00000  0.05550
      16     H     0.44592  0.44592  0.00000  0.10817

   Total alpha = 25.00000, Total beta = 25.00000, Total charge =  0.00000

*** Psi4 exiting successfully. Buy a developer a beer!
