  ==> Input File <==

--------------------------------------------------------------------------
set {
	reference rhf
	basis 6-31G*
}

set_num_threads( 4 )
memory 2 gb

molecule MOL {
0 1

O	 3.828900	 -0.860527	 2.457488
C	 3.023177	 -0.921300	 1.585607
C	 1.525332	 -0.869442	 1.766054
O	 3.347903	 -1.046386	 0.304773
C	 1.101931	 -0.713075	 3.224957
H	 1.158057	 -0.057880	 1.146645
H	 1.116374	 -1.779972	 1.335491
C	 -0.415065	 -0.764112	 3.436177
H	 1.496378	 0.220513	 3.614756
H	 1.568227	 -1.500912	 3.806595
C	 -1.191807	 0.404148	 2.822214
H	 -0.605580	 -0.783480	 4.506716
H	 -0.804382	 -1.702461	 3.043821
C	 -2.684985	 0.365489	 3.153762
H	 -0.768525	 1.341906	 3.178950
H	 -1.072211	 0.406669	 1.741167
C	 -3.472133	 1.525302	 2.541094
H	 -2.813870	 0.376192	 4.234738
H	 -3.106610	 -0.576625	 2.806841
C	 -4.961713	 1.481428	 2.880104
H	 -3.051492	 2.467528	 2.885932
H	 -3.348071	 1.513685	 1.460235
H	 -5.492307	 2.315793	 2.431871
H	 -5.120891	 1.526791	 3.953789
H	 -5.419517	 0.565301	 2.517613
C	 4.728119	 -1.109107	 -0.004993
H	 4.882018	 -1.033965	 -1.071845
H	 5.068212	 -2.067527	 0.355250
H	 5.265056	 -0.311663	 0.488280

	symmetry c1
}
set optking {
	frozen_dihedral = ("
		2 4 26 27
	")
}

ee = optimize('scf')
oeprop('DIPOLE', 'QUADRUPOLE', 'MULLIKEN_CHARGES')
f=open( 'psi4out.xyz', 'w' )
f.write( "29  " )
f.write( str(ee) + "\n" )
f.write( MOL.save_string_xyz() )
f.close()
--------------------------------------------------------------------------

    Molecular point group: c1
  Charge       = 0
  Multiplicity = 1
  Basis Set: 6-31G*
  Basis Set:
  @DF-RHF Final Energy:  -501.04236927934187
    Total Energy =                       -501.0423692793416421
    Molecular point group: c1
  Basis Set: 6-31G*
  Basis Set:
  Basis Set: 6-31G*
  Basis Set:
  @DF-RHF Final Energy:  -501.04361127301843
    Total Energy =                       -501.0436112730184277
  Basis Set: 6-31G*
  Basis Set:
  Basis Set: 6-31G*
  Basis Set:
  @DF-RHF Final Energy:  -501.04339505819280
    Total Energy =                       -501.0433950581937097
  Basis Set: 6-31G*
  Basis Set:
  Basis Set: 6-31G*
  Basis Set:
  @DF-RHF Final Energy:  -501.04394121852704
    Total Energy =                       -501.0439412185262427
  Basis Set: 6-31G*
  Basis Set:
  Basis Set: 6-31G*
  Basis Set:
  @DF-RHF Final Energy:  -501.04394272163006
    Total Energy =                       -501.0439427216299464
  Basis Set: 6-31G*
  Basis Set:
  Charge       = 0
  Multiplicity = 1
  Basis Set: 6-31G*
  Basis Set:

    Orbital Energies (a.u.)
    -----------------------

    Doubly Occupied:

       1A    -20.603288     2A    -20.545129     3A    -11.372099
       4A    -11.280571     5A    -11.234684     6A    -11.219043
       7A    -11.217604     8A    -11.215981     9A    -11.215845
      10A    -11.214443    11A    -11.209062    12A     -1.468830
      13A     -1.362551    14A     -1.098032    15A     -1.066790
      16A     -1.019514    17A     -0.977291    18A     -0.928558
      19A     -0.861555    20A     -0.799249    21A     -0.790471
      22A     -0.763757    23A     -0.700756    24A     -0.682230
      25A     -0.672109    26A     -0.650864    27A     -0.628771
      28A     -0.604638    29A     -0.595236    30A     -0.580822
      31A     -0.566994    32A     -0.549287    33A     -0.532503
      34A     -0.529498    35A     -0.516139    36A     -0.511707
      37A     -0.496390    38A     -0.477801    39A     -0.470154
      40A     -0.462410    41A     -0.458923    42A     -0.455371
      43A     -0.441264    44A     -0.435275

  @DF-RHF Final Energy:  -501.04394317502943

   => Energetics <=

    Nuclear Repulsion Energy =            610.1223481381971396
    One-Electron Energy =               -1891.3656004138558728
    Two-Electron Energy =                 780.1993091006295344
    DFT Exchange-Correlation Energy =       0.0000000000000000
    Empirical Dispersion Energy =           0.0000000000000000
    PCM Polarization Energy =               0.0000000000000000
    EFP Energy =                            0.0000000000000000
    Total Energy =                       -501.0439431750291988
    Molecular point group: c1
  Basis Set: 6-31G*
  Basis Set:

  -Total Gradient:
     Atom            X                  Y                   Z
    ------   -----------------  -----------------  -----------------
       1       -0.000004313220     0.000002270017     0.000005253856
       2        0.000018950056     0.000822629203    -0.000075539763
       3        0.000011168802     0.000002519178    -0.000007953144
       4       -0.000005194720    -0.000986055235     0.000117018104
       5       -0.000002547698     0.000014899124    -0.000000764128
       6        0.000017575530    -0.000015683517     0.000006964157
       7       -0.000000735767    -0.000006890456    -0.000002645091
       8       -0.000001119622    -0.000004473195    -0.000016817299
       9       -0.000002469279     0.000007842281    -0.000006993557
      10       -0.000003183452     0.000006892495     0.000007781012
      11       -0.000009464216    -0.000003386177     0.000003114223
      12       -0.000000451919    -0.000010565640     0.000000091126
      13        0.000004623623     0.000002434476    -0.000014182581
      14        0.000003178578     0.000005461794     0.000010981448
      15        0.000004629706     0.000003665488    -0.000001296906
      16       -0.000017816934    -0.000000423648     0.000014011457
      17        0.000000774952     0.000001886490     0.000002737827
      18       -0.000000927961     0.000002116713     0.000001375681
      19        0.000001412536     0.000000933351     0.000002492901
      20       -0.000000939545    -0.000002835176    -0.000004415662
      21       -0.000001531004    -0.000000315442     0.000002218737
      22        0.000001848501     0.000001841283    -0.000000263973
      23       -0.000000328240    -0.000001006785    -0.000001457109
      24        0.000001316994     0.000000981566    -0.000000736459
      25       -0.000001111066    -0.000000699907     0.000001033958
      26       -0.000039000182    -0.000794006112    -0.000122828810
      27        0.000039079385     0.000956395367     0.000083573684
      28       -0.000007029622    -0.000009899693     0.000002565156
      29       -0.000006394227     0.000003472161    -0.000005318841

  **** Optimization is complete! (in 6 steps) ****
    Final optimized geometry and variables:
    Molecular point group: c1

    Geometry (in Angstrom), charge = 0, multiplicity = 1:

    O            3.349908069851    -0.633439124167     0.291390467803
    C            2.546645341149    -0.695626094827    -0.582621086325
    C            1.048403068513    -0.641313415116    -0.405911887951
    O            2.873206653525    -0.826153040251    -1.862537203807
    C            0.621610506876    -0.481914403999     1.051676386097
    H            0.683622919367     0.169505836798    -1.027719992977
    H            0.639437679741    -1.552170038939    -0.835796658229
    C           -0.895940986148    -0.530990587564     1.259346067375
    H            1.016116771356     0.451905277372     1.440857123140
    H            1.085641369773    -1.269254858303     1.635781681843
    C           -1.669604860965     0.639305184111     0.645348172108
    H           -1.088909228538    -0.551570674845     2.329424262552
    H           -1.285764361643    -1.468206985969     0.864794143134
    C           -3.163235664033     0.603453588116     0.975184989907
    H           -1.244822105792     1.575936576394     1.003258150700
    H           -1.548790544770     0.642375055010    -0.435553540255
    C           -3.947499696309     1.764754699942     0.361650043502
    H           -3.293354401251     0.614341349840     2.056007471842
    H           -3.586213782402    -0.337849848168     0.627729232817
    C           -5.437812037881     1.722833017520     0.697691050133
    H           -3.526181050878     2.706178821468     0.707846069304
    H           -3.821332877683     1.753567740124    -0.718968800488
    H           -5.966369384872     2.558035151982     0.248605309365
    H           -5.599054236784     1.768148515744     1.771067319505
    H           -5.896147717027     0.807420507961     0.334069523350
    C            4.253208611178    -0.873093360792    -2.176579049559
    H            4.314953021426    -0.799190141712    -3.251202391130
    H            4.686213516142    -1.804028774983    -1.837844351161
    H            4.777265106250    -0.048812943196    -1.716421160855

  Mulliken Charges: (a.u.)
   Center  Symbol    Alpha    Beta     Spin     Total
       1     O     4.28591  4.28591  0.00000 -0.57183
       2     C     2.60482  2.60482  0.00000  0.79037
       3     C     3.20972  3.20972  0.00000 -0.41944
       4     O     4.30764  4.30764  0.00000 -0.61528
       5     C     3.15379  3.15379  0.00000 -0.30758
       6     H     0.39889  0.39889  0.00000  0.20222
       7     H     0.40118  0.40118  0.00000  0.19763
       8     C     3.15664  3.15664  0.00000 -0.31328
       9     H     0.41311  0.41311  0.00000  0.17378
      10     H     0.40873  0.40873  0.00000  0.18254
      11     C     3.15504  3.15504  0.00000 -0.31007
      12     H     0.41824  0.41824  0.00000  0.16353
      13     H     0.42386  0.42386  0.00000  0.15228
      14     C     3.15030  3.15030  0.00000 -0.30060
      15     H     0.42262  0.42262  0.00000  0.15476
      16     H     0.42363  0.42363  0.00000  0.15275
      17     C     3.15145  3.15145  0.00000 -0.30291
      18     H     0.42331  0.42331  0.00000  0.15337
      19     H     0.42397  0.42397  0.00000  0.15205
      20     C     3.23935  3.23935  0.00000 -0.47870
      21     H     0.42280  0.42280  0.00000  0.15439
      22     H     0.42344  0.42344  0.00000  0.15312
      23     H     0.41923  0.41923  0.00000  0.16153
      24     H     0.42154  0.42154  0.00000  0.15691
      25     H     0.42183  0.42183  0.00000  0.15635
      26     C     3.09272  3.09272  0.00000 -0.18545
      27     H     0.40868  0.40868  0.00000  0.18264
      28     H     0.41104  0.41104  0.00000  0.17793
      29     H     0.40651  0.40651  0.00000  0.18699

   Total alpha = 44.00000, Total beta = 44.00000, Total charge = -0.00000
