  ==> Input File <==

--------------------------------------------------------------------------
set {
	reference rhf
	basis 6-31G*
}

set_num_threads( 4 )
memory 2 gb

molecule MOL {
0 1

H	 -3.407059	 -1.043082	 0.000000
O	 -3.119761	 -0.140267	 0.000000
C	 -1.777559	 -0.059267	 0.000000
C	 -0.976002	 -1.032764	 -0.588906
C	 -1.204656	 1.045826	 0.616942
H	 -1.428071	 -1.886159	 -1.064996
C	 0.396037	 -0.897120	 -0.558452
H	 -1.844035	 1.783084	 1.064062
C	 0.169086	 1.167373	 0.639212
H	 1.026560	 -1.640560	 -1.008827
C	 0.985076	 0.203561	 0.055387
H	 0.613556	 2.023561	 1.117177
C	 2.453873	 0.347233	 0.087101
O	 3.222738	 -0.430101	 -0.387618
H	 2.819045	 1.247153	 0.593027

	symmetry c1
}
set optking {
	frozen_dihedral = ("
		5 3 2 1
	")
}

ee = optimize('scf')
oeprop('DIPOLE', 'QUADRUPOLE', 'MULLIKEN_CHARGES')
f=open( 'psi4out.xyz', 'w' )
f.write( "15  " )
f.write( str(ee) + "\n" )
f.write( MOL.save_string_xyz() )
f.close()
--------------------------------------------------------------------------

    Molecular point group: c1
  Charge       = 0
  Multiplicity = 1
  Basis Set: 6-31G*
  Basis Set:
  @DF-RHF Final Energy:  -418.28834664479695
    Total Energy =                       -418.2883466447963201
    Molecular point group: c1
  Basis Set: 6-31G*
  Basis Set:
  Basis Set: 6-31G*
  Basis Set:
  @DF-RHF Final Energy:  -418.28840323750654
    Total Energy =                       -418.2884032375060315
  Basis Set: 6-31G*
  Basis Set:
  Basis Set: 6-31G*
  Basis Set:
  @DF-RHF Final Energy:  -418.28840861774415
    Total Energy =                       -418.2884086177439258
  Basis Set: 6-31G*
  Basis Set:
  Basis Set: 6-31G*
  Basis Set:
  @DF-RHF Final Energy:  -418.28832093068115
    Total Energy =                       -418.2883209306817207
  Basis Set: 6-31G*
  Basis Set:
  Charge       = 0
  Multiplicity = 1
  Basis Set: 6-31G*
  Basis Set:

    Orbital Energies (a.u.)
    -----------------------

    Doubly Occupied:

       1A    -20.606284     2A    -20.557098     3A    -11.328882
       4A    -11.321138     5A    -11.260599     6A    -11.256152
       7A    -11.244100     8A    -11.240297     9A    -11.239552
      10A     -1.426487    11A     -1.398255    12A     -1.170671
      13A     -1.041498    14A     -1.038280    15A     -0.888086
      16A     -0.865206    17A     -0.794666    18A     -0.755814
      19A     -0.712788    20A     -0.665563    21A     -0.644292
      22A     -0.628481    23A     -0.614557    24A     -0.607580
      25A     -0.569917    26A     -0.555520    27A     -0.549021
      28A     -0.504720    29A     -0.483751    30A     -0.419474
      31A     -0.357310    32A     -0.329772

  @DF-RHF Final Energy:  -418.28841368106248

   => Energetics <=

    Nuclear Repulsion Energy =            401.2177571200892316
    One-Electron Energy =               -1364.8607124966492847
    Two-Electron Energy =                 545.3545416954975735
    DFT Exchange-Correlation Energy =       0.0000000000000000
    Empirical Dispersion Energy =           0.0000000000000000
    PCM Polarization Energy =               0.0000000000000000
    EFP Energy =                            0.0000000000000000
    Total Energy =                       -418.2884136810624796
    Molecular point group: c1
  Basis Set: 6-31G*
  Basis Set:

  -Total Gradient:
     Atom            X                  Y                   Z
    ------   -----------------  -----------------  -----------------
       1        0.000017406842    -0.000003669233     0.003226552961
       2       -0.000069459684    -0.000523293899    -0.003065674284
       3        0.000040370799     0.001629804282    -0.002190988762
       4       -0.000112944339     0.000053365062     0.000017529739
       5        0.000151038849    -0.001133716216     0.001993767036
       6        0.000007704217     0.000002443828    -0.000002280861
       7        0.000135428650     0.000079023654     0.000023559907
       8       -0.000020274085     0.000003962717     0.000015406190
       9       -0.000119666384     0.000055359329     0.000066961477
      10       -0.000009652051    -0.000015971581     0.000009260722
      11       -0.000034010754    -0.000151229856    -0.000088927423
      12       -0.000006899791    -0.000003011344    -0.000013738031
      13        0.000002255459     0.000001253101     0.000041579910
      14        0.000013238128     0.000003322526    -0.000012546057
      15        0.000005464146     0.000002357630    -0.000020462522

  **** Optimization is complete! (in 5 steps) ****
    Final optimized geometry and variables:
    Molecular point group: c1

    Geometry (in Angstrom), charge = 0, multiplicity = 1:

    H           -3.404487289584    -1.052131931995     0.008668263878
    O           -3.123217974591    -0.147451539323     0.012334304821
    C           -1.775638746057    -0.061957416819     0.021774816465
    C           -0.975823420991    -1.038052708757    -0.565095729075
    C           -1.203126935194     1.039092565301     0.641847195510
    H           -1.432295959768    -1.884711391390    -1.047838980095
    C            0.396075000533    -0.905201941261    -0.533983632963
    H           -1.841583823379     1.772885107694     1.096103637201
    C            0.171975856263     1.165496520211     0.655968660028
    H            1.026535387638    -1.649576909075    -0.982872785615
    C            0.984992124962     0.199467313023     0.074526910854
    H            0.617643312588     2.020942074197     1.134039595763
    C            2.454757292319     0.343574685513     0.104913391886
    O            3.222774222699    -0.438200412178    -0.363492693686
    H            2.820582161737     1.247458468580     0.602883395283

  Mulliken Charges: (a.u.)
   Center  Symbol    Alpha    Beta     Spin     Total
       1     H     0.26888  0.26888  0.00000  0.46224
       2     O     4.37648  4.37648  0.00000 -0.75297
       3     C     2.79008  2.79008  0.00000  0.41984
       4     C     3.14217  3.14217  0.00000 -0.28435
       5     C     3.12678  3.12678  0.00000 -0.25357
       6     H     0.39579  0.39579  0.00000  0.20842
       7     C     3.07929  3.07929  0.00000 -0.15859
       8     H     0.38657  0.38657  0.00000  0.22686
       9     C     3.09366  3.09366  0.00000 -0.18732
      10     H     0.37467  0.37467  0.00000  0.25067
      11     C     3.06703  3.06703  0.00000 -0.13407
      12     H     0.38979  0.38979  0.00000  0.22041
      13     C     2.83043  2.83043  0.00000  0.33914
      14     O     4.25397  4.25397  0.00000 -0.50795
      15     H     0.42439  0.42439  0.00000  0.15122

   Total alpha = 32.00000, Total beta = 32.00000, Total charge =  0.00000
