  ==> Input File <==

--------------------------------------------------------------------------
set {
	reference rhf
	basis 6-31G*
}

set_num_threads( 4 )
memory 2 gb

molecule MOL {
0 1

H	 2.780336	 0.772574	 0.291872
N	 2.332695	 -0.069570	 0.000000
C	 0.936681	 -0.007078	 0.000000
H	 2.727843	 -0.400066	 -0.854053
C	 0.227108	 -0.002120	 -1.198267
C	 0.227108	 -0.002120	 1.198267
H	 0.761569	 -0.014657	 -2.132680
C	 -1.156334	 0.010459	 -1.192360
H	 0.761569	 -0.014657	 2.132680
C	 -1.156334	 0.010459	 1.192360
H	 -1.684791	 0.014915	 -2.129421
C	 -1.862085	 0.017996	 0.000000
H	 -1.684791	 0.014915	 2.129421
H	 -2.936703	 0.028387	 0.000000

	symmetry c1
}
set optking {
	frozen_dihedral = ("
		1 2 3 5
	")
}

ee = optimize('scf')
oeprop('DIPOLE', 'QUADRUPOLE', 'MULLIKEN_CHARGES')
f=open( 'psi4out.xyz', 'w' )
f.write( "14  " )
f.write( str(ee) + "\n" )
f.write( MOL.save_string_xyz() )
f.close()
--------------------------------------------------------------------------

    Molecular point group: c1
  Charge       = 0
  Multiplicity = 1
  Basis Set: 6-31G*
  Basis Set:
  @DF-RHF Final Energy:  -285.72642971269426
    Total Energy =                       -285.7264297126943120
    Molecular point group: c1
  Basis Set: 6-31G*
  Basis Set:
  Basis Set: 6-31G*
  Basis Set:
  @DF-RHF Final Energy:  -285.72753358732621
    Total Energy =                       -285.7275335873258655
  Basis Set: 6-31G*
  Basis Set:
  Basis Set: 6-31G*
  Basis Set:
  @DF-RHF Final Energy:  -285.72768860833276
    Total Energy =                       -285.7276886083329828
  Basis Set: 6-31G*
  Basis Set:
  Basis Set: 6-31G*
  Basis Set:
  @DF-RHF Final Energy:  -285.72770100986548
    Total Energy =                       -285.7277010098655410
  Basis Set: 6-31G*
  Basis Set:
  Charge       = 0
  Multiplicity = 1
  Basis Set: 6-31G*
  Basis Set:

    Orbital Energies (a.u.)
    -----------------------

    Doubly Occupied:

       1A    -15.554880     2A    -11.265404     3A    -11.229571
       4A    -11.228524     5A    -11.222526     6A    -11.219907
       7A    -11.218832     8A     -1.214529     9A     -1.126484
      10A     -1.010784    11A     -0.985103    12A     -0.827959
      13A     -0.807684    14A     -0.701787    15A     -0.672375
      16A     -0.648456    17A     -0.608572    18A     -0.590438
      19A     -0.581075    20A     -0.513075    21A     -0.501414
      22A     -0.487816    23A     -0.432013    24A     -0.331317
      25A     -0.304059

  @DF-RHF Final Energy:  -285.72770221606868

   => Energetics <=

    Nuclear Repulsion Energy =            272.7208024882105519
    One-Electron Energy =                -926.3278391022157621
    Two-Electron Energy =                 367.8793343979366455
    DFT Exchange-Correlation Energy =       0.0000000000000000
    Empirical Dispersion Energy =           0.0000000000000000
    PCM Polarization Energy =               0.0000000000000000
    EFP Energy =                            0.0000000000000000
    Total Energy =                       -285.7277022160685647
    Molecular point group: c1
  Basis Set: 6-31G*
  Basis Set:

  -Total Gradient:
     Atom            X                  Y                   Z
    ------   -----------------  -----------------  -----------------
       1        0.000128813638     0.001114660469    -0.002867767361
       2       -0.000142827274    -0.000131842967     0.003663482138
       3       -0.000157001480    -0.003372740398    -0.000535627572
       4        0.000024253353    -0.000008150719    -0.000058651422
       5       -0.000070319303     0.002447929028    -0.000115277859
       6        0.000194369822    -0.000028778332    -0.000092917482
       7        0.000004407127    -0.000009023212     0.000001367556
       8        0.000182184559    -0.000059295657    -0.000077736505
       9       -0.000000481843     0.000011004326     0.000025486874
      10       -0.000161039553    -0.000015333846    -0.000115096146
      11       -0.000010330435     0.000014017579     0.000011397750
      12       -0.000008457965     0.000041031445     0.000188517317
      13        0.000021185610    -0.000005653609    -0.000004165010
      14       -0.000004756255     0.000002175892    -0.000023012278

  **** Optimization is complete! (in 5 steps) ****
    Final optimized geometry and variables:
    Molecular point group: c1

    Geometry (in Angstrom), charge = 0, multiplicity = 1:

    H            2.739006608239     0.780831343345     0.355071746433
    N            2.346538416267    -0.081254872121     0.030633529617
    C            0.931111788757    -0.035952237473    -0.004817395621
    H            2.732468990807    -0.268267418304    -0.872876896193
    C            0.220723309989    -0.016749893030    -1.198186377148
    C            0.229732726570    -0.006165125393     1.196264130446
    H            0.751302949803    -0.027845586118    -2.135175190220
    C           -1.165461296492     0.009722469499    -1.190523138086
    H            0.777734581113    -0.035897028847     2.121031394883
    C           -1.152076760177     0.044988915969     1.198724245295
    H           -1.699544730066     0.014311715784    -2.124290483556
    C           -1.859974970549     0.047782391498     0.005601606353
    H           -1.679144558719     0.069382186910     2.136150655618
    H           -2.934609986850     0.077014929038     0.010357003369

  Mulliken Charges: (a.u.)
   Center  Symbol    Alpha    Beta     Spin     Total
       1     H     0.32161  0.32161  0.00000  0.35679
       2     N     3.93953  3.93953  0.00000 -0.87905
       3     C     2.87846  2.87846  0.00000  0.24309
       4     H     0.32484  0.32484  0.00000  0.35031
       5     C     3.12264  3.12264  0.00000 -0.24528
       6     C     3.11126  3.11126  0.00000 -0.22252
       7     H     0.40462  0.40462  0.00000  0.19077
       8     C     3.09414  3.09414  0.00000 -0.18827
       9     H     0.39695  0.39695  0.00000  0.20609
      10     C     3.09475  3.09475  0.00000 -0.18949
      11     H     0.40035  0.40035  0.00000  0.19930
      12     C     3.10927  3.10927  0.00000 -0.21854
      13     H     0.40010  0.40010  0.00000  0.19980
      14     H     0.40149  0.40149  0.00000  0.19702

   Total alpha = 25.00000, Total beta = 25.00000, Total charge =  0.00000
