  ==> Input File <==

--------------------------------------------------------------------------
set {
	reference rhf
	basis cc-pvtz
}

set_num_threads( 4 )
memory 2 gb

molecule MOL {
0 1

H	 -0.000105	 1.988529	 0.748933
O	 -0.000098	 1.879786	 -0.188206
C	 -0.000014	 0.545691	 -0.532416
C	 0.794729	 0.333006	 -1.821961
C	 -1.432682	 0.011581	 -0.576733
H	 0.513951	 0.001959	 0.246594
F	 2.027505	 0.739335	 -1.643019
F	 0.834314	 -0.925443	 -2.180362
F	 0.286330	 1.026951	 -2.817625
F	 -1.986930	 0.160017	 0.601246
F	 -1.480618	 -1.259494	 -0.886221
F	 -2.163627	 0.673423	 -1.447974

	symmetry c1
}
set optking {
	frozen_dihedral = ("
		6 3 2 1
	")
}

ee = optimize('scf')
oeprop('DIPOLE', 'QUADRUPOLE', 'MULLIKEN_CHARGES')
f=open( 'psi4out.xyz', 'w' )
f.write( "12  " )
f.write( str(ee) + "\n" )
f.write( MOL.save_string_xyz() )
f.close()
--------------------------------------------------------------------------

    Molecular point group: c1
  Charge       = 0
  Multiplicity = 1
  Basis Set: CC-PVTZ
  Basis Set:
  @DF-RHF Final Energy:  -786.58590965900055
    Total Energy =                       -786.5859096590003219
    Molecular point group: c1
  Basis Set: CC-PVTZ
  Basis Set:
  Basis Set: CC-PVTZ
  Basis Set:
  @DF-RHF Final Energy:  -786.58748436608471
    Total Energy =                       -786.5874843660845954
  Basis Set: CC-PVTZ
  Basis Set:
  Basis Set: CC-PVTZ
  Basis Set:
  @DF-RHF Final Energy:  -786.58782233012334
    Total Energy =                       -786.5878223301235721
  Basis Set: CC-PVTZ
  Basis Set:
  Basis Set: CC-PVTZ
  Basis Set:
  @DF-RHF Final Energy:  -786.58786094494610
    Total Energy =                       -786.5878609449462147
  Basis Set: CC-PVTZ
  Basis Set:
  Basis Set: CC-PVTZ
  Basis Set:
  @DF-RHF Final Energy:  -786.58786638551203
    Total Energy =                       -786.5878663855119157
  Basis Set: CC-PVTZ
  Basis Set:
  Basis Set: CC-PVTZ
  Basis Set:
  @DF-RHF Final Energy:  -786.58786762409432
    Total Energy =                       -786.5878676240947698
  Basis Set: CC-PVTZ
  Basis Set:
  Charge       = 0
  Multiplicity = 1
  Basis Set: CC-PVTZ
  Basis Set:

    Orbital Energies (a.u.)
    -----------------------

    Doubly Occupied:

       1A    -26.353880     2A    -26.353224     3A    -26.351608
       4A    -26.351116     5A    -26.348850     6A    -26.348080
       7A    -20.609659     8A    -11.515684     9A    -11.515625
      10A    -11.351744    11A     -1.767068    12A     -1.761257
      13A     -1.661620    14A     -1.660043    15A     -1.656779
      16A     -1.655901    17A     -1.439588    18A     -1.103507
      19A     -0.997703    20A     -0.939526    21A     -0.868804
      22A     -0.861972    23A     -0.857683    24A     -0.846699
      25A     -0.836052    26A     -0.786574    27A     -0.768699
      28A     -0.733065    29A     -0.727162    30A     -0.723476
      31A     -0.720485    32A     -0.686388    33A     -0.682159
      34A     -0.673921    35A     -0.673091    36A     -0.663712
      37A     -0.658183    38A     -0.629401    39A     -0.622705
      40A     -0.557740    41A     -0.509232

  @DF-RHF Final Energy:  -786.58786802136103

   => Energetics <=

    Nuclear Repulsion Energy =            670.3715247899289125
    One-Electron Energy =               -2428.2594530038422818
    Two-Electron Energy =                 971.3000601925521096
    DFT Exchange-Correlation Energy =       0.0000000000000000
    Empirical Dispersion Energy =           0.0000000000000000
    PCM Polarization Energy =               0.0000000000000000
    EFP Energy =                            0.0000000000000000
    Total Energy =                       -786.5878680213611460
    Molecular point group: c1
  Basis Set: CC-PVTZ
  Basis Set:

  -Total Gradient:
     Atom            X                  Y                   Z
    ------   -----------------  -----------------  -----------------
       1        0.000883867240     0.000016070256     0.000002910794
       2       -0.001319265825     0.000003676813     0.000153106382
       3        0.001092313160     0.000115297132    -0.000530563782
       4       -0.000025315827     0.000010471406    -0.000008193719
       5        0.000012971509     0.000039886123    -0.000050891940
       6       -0.000678087474    -0.000095607109     0.000366633332
       7        0.000017628322    -0.000011143221     0.000007094303
       8        0.000003972875    -0.000026755863    -0.000000458956
       9       -0.000003891846    -0.000004501161     0.000021026170
      10        0.000012723983    -0.000021431638     0.000032821887
      11       -0.000011203859    -0.000007444815     0.000011203991
      12        0.000014287742    -0.000018517920    -0.000004688462

  **** Optimization is complete! (in 7 steps) ****
    Final optimized geometry and variables:
    Molecular point group: c1

    Geometry (in Angstrom), charge = 0, multiplicity = 1:

    H            0.339038443055     1.685553539059     1.894567244822
    O            0.328779608752     1.557522675945     0.963442755031
    C            0.329863727654     0.215286354885     0.644776080814
    C            1.110959858142     0.060733673922    -0.658158404664
    C           -1.107525904311    -0.304639378696     0.585707252682
    H            0.839584777474    -0.392518292585     1.382649360826
    F            2.358234743181     0.413802575015    -0.455469626809
    F            1.110113613042    -1.187724216585    -1.064091368171
    F            0.629992357982     0.803219264354    -1.619179724758
    F           -1.685565398893    -0.054550886028     1.743149212817
    F           -1.144191564929    -1.602291198629     0.398931562371
    F           -1.818431009140     0.265737208663    -0.349818724348

  Mulliken Charges: (a.u.)
   Center  Symbol    Alpha    Beta     Spin     Total
       1     H     0.38188  0.38188  0.00000  0.23625
       2     O     4.18591  4.18591  0.00000 -0.37183
       3     C     3.00111  3.00111  0.00000 -0.00222
       4     C     2.67697  2.67697  0.00000  0.64606
       5     C     2.68074  2.68074  0.00000  0.63852
       6     H     0.44451  0.44451  0.00000  0.11098
       7     F     4.60512  4.60512  0.00000 -0.21023
       8     F     4.60544  4.60544  0.00000 -0.21087
       9     F     4.60104  4.60104  0.00000 -0.20208
      10     F     4.61155  4.61155  0.00000 -0.22310
      11     F     4.60519  4.60519  0.00000 -0.21038
      12     F     4.60055  4.60055  0.00000 -0.20110

   Total alpha = 41.00000, Total beta = 41.00000, Total charge = -0.00000
