                              Psi4 1.0.54 Driver

  ==> Input File <==

--------------------------------------------------------------------------
set {
	reference rhf
	basis cc-pvtz
}

set_num_threads( 4 )
memory 2 gb

molecule MOL {
0 1

H	 1.505922	 -1.320267	 0.687151
O	 1.583947	 -0.677544	 -0.001533
C	 0.489979	 0.078084	 0.002623
C	 -0.763662	 -0.754014	 0.000816
O	 0.539051	 1.259395	 -0.000088
C	 -2.038001	 0.074705	 -0.000833
H	 -0.712945	 -1.405886	 -0.864342
H	 -0.715137	 -1.405770	 0.866182
H	 -2.087267	 0.710831	 -0.874232
H	 -2.903419	 -0.576199	 -0.001922
H	 -2.089467	 0.710909	 0.872389

	symmetry c1
}
set optking {
	frozen_dihedral = ("
		1 2 3 5
	")
}

ee,wfn = optimize('scf', return_wfn=True)
oeprop( wfn, 'DIPOLE', 'QUADRUPOLE', 'MULLIKEN_CHARGES')
f=open( 'psi4out.xyz', 'w' )
f.write( "11  " )
f.write( str(ee) + "\n" )
f.write( MOL.save_string_xyz() )
f.close()
--------------------------------------------------------------------------

    Molecular point group: c1
  Charge       = 0
  Multiplicity = 1
  Basis Set: CC-PVTZ
  Basis Set:
  @DF-RHF Final Energy:  -266.93573936051251
    Total Energy =                       -266.9357393605125708
    Molecular point group: c1
  Basis Set: CC-PVTZ
  Basis Set:
  Basis Set: CC-PVTZ
  Basis Set:
  @DF-RHF Final Energy:  -266.21902097824727
    Total Energy =                       -266.2190209782473858
  Basis Set: CC-PVTZ
  Basis Set:
  Basis Set: CC-PVTZ
  Basis Set:
  @DF-RHF Final Energy:  -266.40548173528498
    Total Energy =                       -266.4054817352849795
  Basis Set: CC-PVTZ
  Basis Set:
  Basis Set: CC-PVTZ
  Basis Set:
  @DF-RHF Final Energy:  -266.71279306367626
    Total Energy =                       -266.7127930636760880
  Basis Set: CC-PVTZ
  Basis Set:
  @DF-RHF Final Energy:  -266.86801956415991
    Total Energy =                       -266.8680195641599653
  @DF-RHF Final Energy:  -266.92760471079373
    Total Energy =                       -266.9276047107938439
  @DF-RHF Final Energy:  -266.93689583009387
    Total Energy =                       -266.9368958300935333
  @DF-RHF Final Energy:  -266.89098624332178
    Total Energy =                       -266.8909862433217768
  @DF-RHF Final Energy:  -266.93513838383177
    Total Energy =                       -266.9351383838317133
  @DF-RHF Final Energy:  -266.93703361367750
    Total Energy =                       -266.9370336136774995
  @DF-RHF Final Energy:  -266.93613700450112
    Total Energy =                       -266.9361370045011199
  Basis Set: CC-PVTZ
  Basis Set:
  @DF-RHF Final Energy:  -266.93719672865990
    Total Energy =                       -266.9371967286598419
  Basis Set: CC-PVTZ
  Basis Set:
  Basis Set: CC-PVTZ
  Basis Set:
  @DF-RHF Final Energy:  -266.93721156363665
    Total Energy =                       -266.9372115636367084
  Basis Set: CC-PVTZ
  Basis Set:
  Basis Set: CC-PVTZ
  Basis Set:
  @DF-RHF Final Energy:  -266.93721312205003
    Total Energy =                       -266.9372131220497977
  Basis Set: CC-PVTZ
  Basis Set:
  Charge       = 0
  Multiplicity = 1
  Basis Set: CC-PVTZ
  Basis Set:

    Orbital Energies (a.u.)
    -----------------------

    Doubly Occupied:

       1A    -20.594955     2A    -20.545861     3A    -11.374437
       4A    -11.250392     5A    -11.222931     6A     -1.467304
       7A     -1.374135     8A     -1.067952     9A     -0.909617
      10A     -0.822419    11A     -0.718395    12A     -0.672413
      13A     -0.662333    14A     -0.617872    15A     -0.581228
      16A     -0.533619    17A     -0.524296    18A     -0.509989
      19A     -0.489913    20A     -0.448046

  @DF-RHF Final Energy:  -266.93721332047591

   => Energetics <=

    Nuclear Repulsion Energy =            179.6893616250187620
    One-Electron Energy =                -720.4769339319918799
    Two-Electron Energy =                 273.8503589864972696
    DFT Exchange-Correlation Energy =       0.0000000000000000
    Empirical Dispersion Energy =           0.0000000000000000
    PCM Polarization Energy =               0.0000000000000000
    EFP Energy =                            0.0000000000000000
    Total Energy =                       -266.9372133204757915
    Molecular point group: c1
  Basis Set: CC-PVTZ
  Basis Set:

  -Total Gradient:
     Atom            X                  Y                   Z
    ------   -----------------  -----------------  -----------------
       1        0.003239164550     0.005747622217    -0.001383529810
       2       -0.002995336620    -0.005536049971     0.003355906303
       3       -0.002785256247    -0.004052211027    -0.005617258659
       4        0.000011994799    -0.000005805995    -0.000054788565
       5        0.002514140158     0.003840026798     0.003659813581
       6       -0.000005848495     0.000001772720     0.000027689150
       7        0.000005172870    -0.000004594206     0.000019000998
       8        0.000007763523     0.000014533169     0.000005762216
       9        0.000001743479    -0.000005264901    -0.000009705600
      10       -0.000002065743    -0.000001858899    -0.000000701069
      11        0.000008527731     0.000001830095    -0.000002188548

  **** Optimization is complete! (in 15 steps) ****
    Final optimized geometry and variables:
    Molecular point group: c1

    Geometry (in Angstrom), charge = 0, multiplicity = 1:

    H            2.005558168345    -0.738598465469     0.465148427623
    O            1.572965906773    -0.685687535673    -0.369888881852
    C            0.410554661324    -0.005411932375    -0.292884929060
    C           -0.512209610812    -0.468899308498     0.808991941685
    O            0.173625146237     0.862989906638    -1.046597510187
    C           -1.802365510955     0.329724567608     0.900305287804
    H           -0.710358739102    -1.521218801090     0.634804645468
    H            0.037660884157    -0.422201500285     1.745815407740
    H           -2.361199413105     0.265278671412    -0.023145006456
    H           -2.420814333066    -0.050928991667     1.703744743296
    H           -1.599668615659     1.375320543228     1.089320136150

  Mulliken Charges: (a.u.)
   Center  Symbol    Alpha    Beta     Spin     Total
       1     H     0.38857  0.38857  0.00000  0.22287
       2     O     4.15984  4.15984  0.00000 -0.31967
       3     C     2.80607  2.80607  0.00000  0.38786
       4     C     3.10860  3.10860  0.00000 -0.21719
       5     O     4.16466  4.16466  0.00000 -0.32933
       6     C     3.13972  3.13972  0.00000 -0.27944
       7     H     0.43688  0.43688  0.00000  0.12624
       8     H     0.45324  0.45324  0.00000  0.09352
       9     H     0.44460  0.44460  0.00000  0.11081
      10     H     0.45025  0.45025  0.00000  0.09950
      11     H     0.44758  0.44758  0.00000  0.10485

   Total alpha = 20.00000, Total beta = 20.00000, Total charge = -0.00000

*** Psi4 exiting successfully. Buy a developer a beer!
