  ==> Input File <==

--------------------------------------------------------------------------
set {
	reference rhf
	basis cc-pvtz
}

set_num_threads( 4 )
memory 2 gb

molecule MOL {
0 1

O	 0.395927	 1.296676	 -0.000076
C	 0.503051	 0.114301	 -0.000074
C	 -0.701422	 -0.805636	 -0.000109
C	 1.858118	 -0.556123	 0.000212
C	 -1.870935	 -0.295716	 -0.827333
H	 -0.370708	 -1.778482	 -0.354560
H	 -0.996270	 -0.959536	 1.034695
H	 -1.585854	 -0.164675	 -1.862604
H	 -2.695588	 -0.997162	 -0.785180
H	 -2.216978	 0.661529	 -0.461044
H	 1.961106	 -1.191101	 -0.872843
H	 2.636688	 0.191085	 -0.000109
H	 1.961070	 -1.190284	 0.873873

	symmetry c1
}
set optking {
	frozen_dihedral = ("
		6 3 2 1
	")
}

ee = optimize('scf')
oeprop('DIPOLE', 'QUADRUPOLE', 'MULLIKEN_CHARGES')
f=open( 'psi4out.xyz', 'w' )
f.write( "13  " )
f.write( str(ee) + "\n" )
f.write( MOL.save_string_xyz() )
f.close()
--------------------------------------------------------------------------

    Molecular point group: c1
  Charge       = 0
  Multiplicity = 1
  Basis Set: CC-PVTZ
  Basis Set:
  @DF-RHF Final Energy:  -231.08188798731103
    Total Energy =                       -231.0818879873110347
    Molecular point group: c1
  Basis Set: CC-PVTZ
  Basis Set:
  Basis Set: CC-PVTZ
  Basis Set:
  @DF-RHF Final Energy:  -231.08120340129003
    Total Energy =                       -231.0812034012900540
  Basis Set: CC-PVTZ
  Basis Set:
  Basis Set: CC-PVTZ
  Basis Set:
  @DF-RHF Final Energy:  -231.08213263019104
    Total Energy =                       -231.0821326301908130
  Basis Set: CC-PVTZ
  Basis Set:
  Basis Set: CC-PVTZ
  Basis Set:
  @DF-RHF Final Energy:  -231.08241943711917
    Total Energy =                       -231.0824194371190856
  Basis Set: CC-PVTZ
  Basis Set:
  Basis Set: CC-PVTZ
  Basis Set:
  @DF-RHF Final Energy:  -231.08242784649187
    Total Energy =                       -231.0824278464919530
  Basis Set: CC-PVTZ
  Basis Set:
  Basis Set: CC-PVTZ
  Basis Set:
  @DF-RHF Final Energy:  -231.08243148550713
    Total Energy =                       -231.0824314855072146
  Basis Set: CC-PVTZ
  Basis Set:
  Charge       = 0
  Multiplicity = 1
  Basis Set: CC-PVTZ
  Basis Set:

    Orbital Energies (a.u.)
    -----------------------

    Doubly Occupied:

       1A    -20.538553     2A    -11.321493     3A    -11.233115
       4A    -11.228125     5A    -11.215500     6A     -1.399280
       7A     -1.062734     8A     -1.001682     9A     -0.880000
      10A     -0.731853    11A     -0.660154    12A     -0.643193
      13A     -0.619088    14A     -0.586841    15A     -0.572511
      16A     -0.527720    17A     -0.520294    18A     -0.506300
      19A     -0.484396    20A     -0.403508

  @DF-RHF Final Energy:  -231.08243156701269

   => Energetics <=

    Nuclear Repulsion Energy =            177.1828786287136381
    One-Electron Energy =                -664.2579397946813060
    Two-Electron Energy =                 255.9926295989550340
    DFT Exchange-Correlation Energy =       0.0000000000000000
    Empirical Dispersion Energy =           0.0000000000000000
    PCM Polarization Energy =               0.0000000000000000
    EFP Energy =                            0.0000000000000000
    Total Energy =                       -231.0824315670126339
    Molecular point group: c1
  Basis Set: CC-PVTZ
  Basis Set:

  -Total Gradient:
     Atom            X                  Y                   Z
    ------   -----------------  -----------------  -----------------
       1       -0.000017217572     0.000040992336     0.001814581589
       2        0.000110716980    -0.000155065127    -0.002145342640
       3       -0.000470417756     0.000564946019    -0.001372633535
       4       -0.000012271578     0.000009205154    -0.000000212190
       5       -0.000001022505     0.000009013049    -0.000000951115
       6        0.000382909071    -0.000451438844     0.001703995448
       7        0.000001573177     0.000001145573     0.000001350863
       8       -0.000000735601    -0.000001547203    -0.000000897952
       9        0.000005608737     0.000000006493     0.000001189582
      10       -0.000000997481     0.000002695046    -0.000000482048
      11        0.000001878632    -0.000006752089    -0.000002557148
      12       -0.000001925387    -0.000007678735    -0.000000137857
      13        0.000001901283    -0.000005521670     0.000002097005

  **** Optimization is complete! (in 7 steps) ****
    Final optimized geometry and variables:
    Molecular point group: c1

    Geometry (in Angstrom), charge = 0, multiplicity = 1:

    O            0.350280435371     1.334771193452     0.124928496082
    C            0.475366286732     0.154157657760     0.147480955410
    C           -0.726981605634    -0.772172488036     0.165671341025
    C            1.835629203020    -0.497360528403     0.209160470755
    C           -1.917537147633    -0.244738479141    -0.624182923626
    H           -0.433866073728    -1.762395531450    -0.164308766709
    H           -0.995498718630    -0.879511474163     1.214831763523
    H           -1.678398064869    -0.159151978250    -1.677709347431
    H           -2.763557332830    -0.913791486938    -0.525223597579
    H           -2.207134079912     0.733902577459    -0.269810645113
    H            2.011411639241    -1.053329923920    -0.706099095094
    H            2.602085354190     0.252502204615     0.330418136490
    H            1.876956935648    -1.207369389778     1.028146161376

  Mulliken Charges: (a.u.)
   Center  Symbol    Alpha    Beta     Spin     Total
       1     O     4.17319  4.17319  0.00000 -0.34638
       2     C     2.85882  2.85882  0.00000  0.28237
       3     C     3.10033  3.10033  0.00000 -0.20066
       4     C     3.15161  3.15161  0.00000 -0.30322
       5     C     3.14338  3.14338  0.00000 -0.28676
       6     H     0.44653  0.44653  0.00000  0.10694
       7     H     0.44559  0.44559  0.00000  0.10882
       8     H     0.45380  0.45380  0.00000  0.09240
       9     H     0.44981  0.44981  0.00000  0.10037
      10     H     0.44076  0.44076  0.00000  0.11849
      11     H     0.44939  0.44939  0.00000  0.10122
      12     H     0.43631  0.43631  0.00000  0.12737
      13     H     0.45048  0.45048  0.00000  0.09905

   Total alpha = 20.00000, Total beta = 20.00000, Total charge =  0.00000
