  ==> Input File <==

--------------------------------------------------------------------------
set {
	reference rhf
	basis cc-pvtz
}

set_num_threads( 4 )
memory 2 gb

molecule MOL {
0 1

H	 -3.956400	 -1.059275	 0.876762
C	 -2.891804	 -0.926730	 0.912021
C	 -2.295967	 -0.428924	 2.056927
C	 -2.120238	 -1.254018	 -0.186865
H	 -2.895483	 -0.175103	 2.909486
C	 -0.927904	 -0.258882	 2.101480
H	 -2.583276	 -1.639997	 -1.074270
C	 -0.750258	 -1.084320	 -0.143798
H	 -0.450235	 0.125287	 2.979719
C	 -0.150033	 -0.585863	 1.001533
H	 -0.149839	 -1.336805	 -0.993079
C	 1.323866	 -0.383705	 1.099886
O	 1.968286	 -0.725612	 -0.000027
O	 1.868457	 0.040206	 2.063680
C	 3.373556	 -0.568203	 0.000011
H	 3.695416	 -0.031588	 -0.879663
H	 3.782700	 -1.565294	 -0.000152
H	 3.695405	 -0.031851	 0.879862

	symmetry c1
}
set optking {
	frozen_dihedral = ("
		12 13 15 16
	")
}

ee = optimize('scf')
oeprop('DIPOLE', 'QUADRUPOLE', 'MULLIKEN_CHARGES')
f=open( 'psi4out.xyz', 'w' )
f.write( "18  " )
f.write( str(ee) + "\n" )
f.write( MOL.save_string_xyz() )
f.close()
--------------------------------------------------------------------------

    Molecular point group: c1
  Charge       = 0
  Multiplicity = 1
  Basis Set: CC-PVTZ
  Basis Set:
  @DF-RHF Final Energy:  -457.50705854294461
    Total Energy =                       -457.5070585429452876
    Molecular point group: c1
  Basis Set: CC-PVTZ
  Basis Set:
  Basis Set: CC-PVTZ
  Basis Set:
  @DF-RHF Final Energy:  -457.50762528188773
    Total Energy =                       -457.5076252818876128
  Basis Set: CC-PVTZ
  Basis Set:
  Basis Set: CC-PVTZ
  Basis Set:
  @DF-RHF Final Energy:  -457.50782528960178
    Total Energy =                       -457.5078252896025788
  Basis Set: CC-PVTZ
  Basis Set:
  Basis Set: CC-PVTZ
  Basis Set:
  @DF-RHF Final Energy:  -457.50803965192847
    Total Energy =                       -457.5080396519282431
  Basis Set: CC-PVTZ
  Basis Set:
  Basis Set: CC-PVTZ
  Basis Set:
  @DF-RHF Final Energy:  -457.50820086901911
    Total Energy =                       -457.5082008690189923
  Basis Set: CC-PVTZ
  Basis Set:
  Basis Set: CC-PVTZ
  Basis Set:
  @DF-RHF Final Energy:  -457.50820109580519
    Total Energy =                       -457.5082010958055889
  Basis Set: CC-PVTZ
  Basis Set:
  Charge       = 0
  Multiplicity = 1
  Basis Set: CC-PVTZ
  Basis Set:

    Orbital Energies (a.u.)
    -----------------------

    Doubly Occupied:

       1A    -20.599938     2A    -20.533679     3A    -11.373201
       4A    -11.279894     5A    -11.244532     6A    -11.243175
       7A    -11.242234     8A    -11.239615     9A    -11.235679
      10A    -11.234915    11A     -1.474504    12A     -1.369117
      13A     -1.170337    14A     -1.051556    15A     -1.028657
      16A     -0.981584    17A     -0.862741    18A     -0.838032
      19A     -0.780426    20A     -0.745040    21A     -0.688377
      22A     -0.679497    23A     -0.676031    24A     -0.634251
      25A     -0.629717    26A     -0.600873    27A     -0.587337
      28A     -0.571450    29A     -0.526238    30A     -0.519969
      31A     -0.510101    32A     -0.501489    33A     -0.460403
      34A     -0.449926    35A     -0.349991    36A     -0.345855

  @DF-RHF Final Energy:  -457.50820204553088

   => Energetics <=

    Nuclear Repulsion Energy =            493.6221410795099018
    One-Electron Energy =               -1601.7399680034823177
    Two-Electron Energy =                 650.6096248784410818
    DFT Exchange-Correlation Energy =       0.0000000000000000
    Empirical Dispersion Energy =           0.0000000000000000
    PCM Polarization Energy =               0.0000000000000000
    EFP Energy =                            0.0000000000000000
    Total Energy =                       -457.5082020455313341
    Molecular point group: c1
  Basis Set: CC-PVTZ
  Basis Set:

  -Total Gradient:
     Atom            X                  Y                   Z
    ------   -----------------  -----------------  -----------------
       1        0.000004256018    -0.000000736663    -0.000000043862
       2        0.000003067445     0.000001464256     0.000005109523
       3        0.000003905879     0.000004563384    -0.000002497212
       4        0.000015162282     0.000003544466    -0.000001464678
       5        0.000005450842     0.000001329748    -0.000000828179
       6        0.000011162819    -0.000005646795     0.000005642908
       7        0.000005158621     0.000000981356    -0.000000531751
       8        0.000011724867    -0.000003936028     0.000011513541
       9        0.000000796084     0.000002354453     0.000003964815
      10        0.000025630043     0.000011175702    -0.000008326551
      11        0.000009446176    -0.000000091983    -0.000009374090
      12       -0.000008748351     0.000552444240    -0.000252802278
      13        0.000032849069    -0.000728200208     0.000360123334
      14       -0.000043615532     0.000018574487     0.000043592131
      15       -0.000003635343    -0.000471819065    -0.000514229102
      16       -0.000047989602     0.000596319575     0.000355567672
      17       -0.000021796345     0.000008137827    -0.000000259540
      18       -0.000002824966     0.000009541249     0.000004843323

  **** Optimization is complete! (in 7 steps) ****
    Final optimized geometry and variables:
    Molecular point group: c1

    Geometry (in Angstrom), charge = 0, multiplicity = 1:

    H           -4.022433706664    -0.449084979020    -0.040272262241
    C           -2.958192367572    -0.317013801235     0.006687226157
    C           -2.374578459797     0.179777009997     1.158378263192
    C           -2.174594833389    -0.643878965584    -1.083697688886
    H           -2.983172727242     0.433333579454     2.004631940708
    C           -1.007020536708     0.349082230643     1.217992152714
    H           -2.627752466951    -1.029163364124    -1.976536437222
    C           -0.804953509733    -0.474791242075    -1.025535872521
    H           -0.539134562979     0.732376606479     2.101851308710
    C           -0.216942390361     0.022714882557     0.126420039315
    H           -0.195747470215    -0.727202836809    -1.868475297452
    C            1.256848978387     0.225315763308     0.243012470219
    O            1.905523441268    -0.120715284805    -0.854039704723
    O            1.782439600347     0.650030426986     1.216373823928
    C            3.312217974939     0.026039689041    -0.908807762840
    H            3.546509526254     0.552792754427    -1.821435554035
    H            3.760238404829    -0.956883330047    -0.929488979478
    H            3.674623001148     0.577314785417    -0.058907810668

  Mulliken Charges: (a.u.)
   Center  Symbol    Alpha    Beta     Spin     Total
       1     H     0.42035  0.42035  0.00000  0.15931
       2     C     3.06972  3.06972  0.00000 -0.13945
       3     C     3.07553  3.07553  0.00000 -0.15107
       4     C     3.07480  3.07480  0.00000 -0.14960
       5     H     0.42049  0.42049  0.00000  0.15901
       6     C     3.07598  3.07598  0.00000 -0.15195
       7     H     0.42199  0.42199  0.00000  0.15601
       8     C     3.08187  3.08187  0.00000 -0.16374
       9     H     0.40635  0.40635  0.00000  0.18730
      10     C     3.01866  3.01866  0.00000 -0.03732
      11     H     0.41123  0.41123  0.00000  0.17753
      12     C     2.77438  2.77438  0.00000  0.45124
      13     O     4.15022  4.15022  0.00000 -0.30045
      14     O     4.21145  4.21145  0.00000 -0.42290
      15     C     3.04248  3.04248  0.00000 -0.08495
      16     H     0.45098  0.45098  0.00000  0.09804
      17     H     0.45361  0.45361  0.00000  0.09278
      18     H     0.43990  0.43990  0.00000  0.12020

   Total alpha = 36.00000, Total beta = 36.00000, Total charge = -0.00000
