  ==> Input File <==

--------------------------------------------------------------------------
set {
	reference rhf
	basis 6-31G*
}

set_num_threads( 1 )
memory 2 gb

molecule MOL {
0 1

H	 0.591160	 -4.632793	 -3.113807
O	 1.523634	 -4.514343	 -3.221206
C	 1.810940	 -3.149842	 -3.393389
C	 1.665927	 -2.338475	 -2.110665
H	 2.835598	 -3.106236	 -3.739580
H	 1.186322	 -2.725003	 -4.178337
C	 0.238577	 -2.295256	 -1.559601
H	 2.333910	 -2.755487	 -1.361488
H	 2.007235	 -1.324143	 -2.310680
C	 0.115918	 -1.429151	 -0.302766
H	 -0.088828	 -3.306882	 -1.336478
H	 -0.433940	 -1.909727	 -2.326040
C	 -1.309753	 -1.282496	 0.241564
H	 0.758466	 -1.835605	 0.476191
H	 0.502505	 -0.437192	 -0.526972
C	 -2.037799	 -0.007733	 -0.193645
H	 -1.890610	 -2.142323	 -0.085726
H	 -1.285946	 -1.330893	 1.329189
C	 -3.489788	 0.042957	 0.286558
H	 -2.017067	 0.064384	 -1.280144
H	 -1.513726	 0.868678	 0.179924
C	 -4.216917	 1.317354	 -0.141063
H	 -4.025645	 -0.823308	 -0.095450
H	 -3.513059	 -0.038752	 1.371301
H	 -4.239342	 1.411634	 -1.223113
H	 -5.243387	 1.322503	 0.212445
H	 -3.726170	 2.201406	 0.256408

	symmetry c1
}
set optking {
	frozen_dihedral = ("
		14 10 7 4,
		10 7 4 8,
		8 4 3 2,
		10 13 16 20,
		20 16 19 22,
		4 3 2 1
	")
}

ee = energy('scf')
oeprop('DIPOLE', 'QUADRUPOLE', 'MULLIKEN_CHARGES')
f=open( 'psi4out.xyz', 'w' )
f.write( "27  " )
f.write( str(ee) + "\n" )
f.write( MOL.save_string_xyz() )
f.close()
--------------------------------------------------------------------------

    Molecular point group: c1

    Geometry (in Angstrom), charge = 0, multiplicity = 1:

       Center              X                  Y                   Z               Mass
    ------------   -----------------  -----------------  -----------------  -----------------
           H          1.207484501241    -3.076123435279    -1.918975829109     1.007825032070
           O          2.139958501241    -2.957673435279    -2.026374829109    15.994914619560
           C          2.427264501241    -1.593172435279    -2.198557829109    12.000000000000
           C          2.282251501241    -0.781805435279    -0.915833829109    12.000000000000
           H          3.451922501241    -1.549566435279    -2.544748829109     1.007825032070
           H          1.802646501241    -1.168333435279    -2.983505829109     1.007825032070
           C          0.854901501241    -0.738586435279    -0.364769829109    12.000000000000
           H          2.950234501241    -1.198817435279    -0.166656829109     1.007825032070
           H          2.623559501241     0.232526564721    -1.115848829109     1.007825032070
           C          0.732242501241     0.127518564721     0.892065170891    12.000000000000
           H          0.527496501241    -1.750212435279    -0.141646829109     1.007825032070
           H          0.182384501241    -0.353057435279    -1.131208829109     1.007825032070
           C         -0.693428498759     0.274173564721     1.436395170891    12.000000000000
           H          1.374790501241    -0.278935435279     1.671022170891     1.007825032070
           H          1.118829501241     1.119477564721     0.667859170891     1.007825032070
           C         -1.421474498759     1.548936564721     1.001186170891    12.000000000000
           H         -1.274285498759    -0.585653435279     1.109105170891     1.007825032070
           H         -0.669621498759     0.225776564721     2.524020170891     1.007825032070
           C         -2.873463498759     1.599626564721     1.481389170891    12.000000000000
           H         -1.400742498759     1.621053564721    -0.085312829109     1.007825032070
           H         -0.897401498759     2.425347564721     1.374755170891     1.007825032070
           C         -3.600592498759     2.874023564721     1.053768170891    12.000000000000
           H         -3.409320498759     0.733361564721     1.099381170891     1.007825032070
           H         -2.896734498759     1.517917564721     2.566132170891     1.007825032070
           H         -3.623017498759     2.968303564721    -0.028281829109     1.007825032070
           H         -4.627062498759     2.879172564721     1.407276170891     1.007825032070
           H         -3.109845498759     3.758075564721     1.451239170891     1.007825032070

  Charge       = 0
  Multiplicity = 1
  Basis Set: 6-31G*
  Basis Set:

    Orbital Energies (a.u.)
    -----------------------

    Doubly Occupied:

       1A    -20.552368     2A    -11.267187     3A    -11.220810
       4A    -11.216263     5A    -11.216199     6A    -11.215287
       7A    -11.215229     8A    -11.214496     9A    -11.209707
      10A     -1.359139    11A     -1.094808    12A     -1.062401
      13A     -1.011635    14A     -0.949712    15A     -0.885749
      16A     -0.819980    17A     -0.796413    18A     -0.786137
      19A     -0.694287    20A     -0.649741    21A     -0.638543
      22A     -0.615289    23A     -0.602887    24A     -0.581802
      25A     -0.580230    26A     -0.554504    27A     -0.540697
      28A     -0.521800    29A     -0.506667    30A     -0.502748
      31A     -0.479550    32A     -0.475399    33A     -0.470209
      34A     -0.461697    35A     -0.451934    36A     -0.441602
      37A     -0.422652

  @DF-RHF Final Energy:  -388.27904571950552

   => Energetics <=

    Nuclear Repulsion Energy =            455.5634506258575698
    One-Electron Energy =               -1429.1135537524444317
    Two-Electron Energy =                 585.2710574070812299
    DFT Exchange-Correlation Energy =       0.0000000000000000
    Empirical Dispersion Energy =           0.0000000000000000
    PCM Polarization Energy =               0.0000000000000000
    EFP Energy =                            0.0000000000000000
    Total Energy =                       -388.2790457195056888

  Mulliken Charges: (a.u.)
   Center  Symbol    Alpha    Beta     Spin     Total
       1     H     0.27996  0.27996  0.00000  0.44008
       2     O     4.37093  4.37093  0.00000 -0.74185
       3     C     2.99737  2.99737  0.00000  0.00525
       4     C     3.16172  3.16172  0.00000 -0.32344
       5     H     0.41440  0.41440  0.00000  0.17121
       6     H     0.43207  0.43207  0.00000  0.13585
       7     C     3.16302  3.16302  0.00000 -0.32604
       8     H     0.41485  0.41485  0.00000  0.17030
       9     H     0.42395  0.42395  0.00000  0.15209
      10     C     3.15352  3.15352  0.00000 -0.30703
      11     H     0.42421  0.42421  0.00000  0.15158
      12     H     0.42483  0.42483  0.00000  0.15035
      13     C     3.15495  3.15495  0.00000 -0.30990
      14     H     0.41893  0.41893  0.00000  0.16214
      15     H     0.42178  0.42178  0.00000  0.15644
      16     C     3.15214  3.15214  0.00000 -0.30427
      17     H     0.42343  0.42343  0.00000  0.15314
      18     H     0.42021  0.42021  0.00000  0.15957
      19     C     3.15192  3.15192  0.00000 -0.30385
      20     H     0.42486  0.42486  0.00000  0.15028
      21     H     0.42284  0.42284  0.00000  0.15431
      22     C     3.23926  3.23926  0.00000 -0.47851
      23     H     0.42322  0.42322  0.00000  0.15356
      24     H     0.42265  0.42265  0.00000  0.15470
      25     H     0.42209  0.42209  0.00000  0.15583
      26     H     0.41916  0.41916  0.00000  0.16169
      27     H     0.42173  0.42173  0.00000  0.15653

   Total alpha = 37.00000, Total beta = 37.00000, Total charge = -0.00000
