  ==> Input File <==

--------------------------------------------------------------------------
set {
	reference rhf
	basis 6-31G*
}

set_num_threads( 1 )
memory 2 gb

molecule MOL {
0 1

H	 2.786273	 -2.634945	 -2.112767
C	 2.672674	 -2.068037	 -1.194366
C	 1.414226	 -1.202202	 -1.234397
H	 2.635325	 -2.777000	 -0.372050
H	 3.565715	 -1.462440	 -1.067965
C	 1.217350	 -0.386724	 0.039429
H	 0.536801	 -1.822979	 -1.386546
H	 1.468395	 -0.527737	 -2.087365
N	 0.000003	 0.397874	 -0.023260
H	 1.137100	 -1.061012	 0.887875
H	 2.103062	 0.231903	 0.218854
C	 -1.217365	 -0.386708	 0.039277
H	 -0.000031	 1.072115	 0.718656
C	 -2.452633	 0.504241	 -0.042481
H	 -1.215291	 -1.074557	 -0.802042
H	 -1.269739	 -1.003477	 0.942735
C	 -3.758029	 -0.289423	 -0.010781
H	 -2.394220	 1.093569	 -0.952170
H	 -2.440793	 1.210787	 0.785871
H	 -3.816659	 -0.981993	 -0.845726
H	 -4.617837	 0.370165	 -0.069296
H	 -3.847478	 -0.867502	 0.904682

	symmetry c1
}
set optking {
	frozen_dihedral = ("
		15 12 14 18
	")
}

ee = energy('scf')
oeprop('DIPOLE', 'QUADRUPOLE', 'MULLIKEN_CHARGES')
f=open( 'psi4out.xyz', 'w' )
f.write( "22  " )
f.write( str(ee) + "\n" )
f.write( MOL.save_string_xyz() )
f.close()
--------------------------------------------------------------------------

    Molecular point group: c1

    Geometry (in Angstrom), charge = 0, multiplicity = 1:

       Center              X                  Y                   Z               Mass
    ------------   -----------------  -----------------  -----------------  -----------------
           H          3.091816287190    -2.133661924219    -1.772145737367     1.007825032070
           C          2.978217287190    -1.566753924219    -0.853744737367    12.000000000000
           C          1.719769287190    -0.700918924219    -0.893775737367    12.000000000000
           H          2.940868287190    -2.275716924219    -0.031428737367     1.007825032070
           H          3.871258287190    -0.961156924219    -0.727343737367     1.007825032070
           C          1.522893287190     0.114559075781     0.380050262633    12.000000000000
           H          0.842344287190    -1.321695924219    -1.045924737367     1.007825032070
           H          1.773938287190    -0.026453924219    -1.746743737367     1.007825032070
           N          0.305546287190     0.899157075781     0.317361262633    14.003074004780
           H          1.442643287190    -0.559728924219     1.228496262633     1.007825032070
           H          2.408605287190     0.733186075781     0.559475262633     1.007825032070
           C         -0.911821712810     0.114575075781     0.379898262633    12.000000000000
           H          0.305512287190     1.573398075781     1.059277262633     1.007825032070
           C         -2.147089712810     1.005524075781     0.298140262633    12.000000000000
           H         -0.909747712810    -0.573273924219    -0.461420737367     1.007825032070
           H         -0.964195712810    -0.502193924219     1.283356262633     1.007825032070
           C         -3.452485712810     0.211860075781     0.329840262633    12.000000000000
           H         -2.088676712810     1.594852075781    -0.611548737367     1.007825032070
           H         -2.135249712810     1.712070075781     1.126492262633     1.007825032070
           H         -3.511115712810    -0.480709924219    -0.505104737367     1.007825032070
           H         -4.312293712810     0.871448075781     0.271325262633     1.007825032070
           H         -3.541934712810    -0.366218924219     1.245303262633     1.007825032070

  Charge       = 0
  Multiplicity = 1
  Basis Set: 6-31G*
  Basis Set:

    Orbital Energies (a.u.)
    -----------------------

    Doubly Occupied:

       1A    -15.532827     2A    -11.238461     3A    -11.237775
       4A    -11.213837     5A    -11.209948     6A    -11.209857
       7A    -11.207997     8A     -1.206096     9A     -1.056146
      10A     -1.026356    11A     -0.927985    12A     -0.874608
      13A     -0.810267    14A     -0.785502    15A     -0.662285
      16A     -0.640703    17A     -0.615273    18A     -0.607112
      19A     -0.577377    20A     -0.553877    21A     -0.552171
      22A     -0.525360    23A     -0.501861    24A     -0.487049
      25A     -0.480157    26A     -0.473252    27A     -0.460918
      28A     -0.454225    29A     -0.356605

  @DF-RHF Final Energy:  -290.37820101069082

   => Energetics <=

    Nuclear Repulsion Energy =            318.7132623209755025
    One-Electron Energy =               -1023.2115097491952156
    Two-Electron Energy =                 414.1200464175271918
    DFT Exchange-Correlation Energy =       0.0000000000000000
    Empirical Dispersion Energy =           0.0000000000000000
    PCM Polarization Energy =               0.0000000000000000
    EFP Energy =                            0.0000000000000000
    Total Energy =                       -290.3782010106924645

  Mulliken Charges: (a.u.)
   Center  Symbol    Alpha    Beta     Spin     Total
       1     H     0.41814  0.41814  0.00000  0.16372
       2     C     3.24321  3.24321  0.00000 -0.48642
       3     C     3.15361  3.15361  0.00000 -0.30722
       4     H     0.42207  0.42207  0.00000  0.15587
       5     H     0.42194  0.42194  0.00000  0.15612
       6     C     3.05487  3.05487  0.00000 -0.10975
       7     H     0.42111  0.42111  0.00000  0.15778
       8     H     0.41552  0.41552  0.00000  0.16895
       9     N     3.85466  3.85466  0.00000 -0.70932
      10     H     0.43566  0.43566  0.00000  0.12868
      11     H     0.41957  0.41957  0.00000  0.16085
      12     C     3.05366  3.05366  0.00000 -0.10732
      13     H     0.33302  0.33302  0.00000  0.33395
      14     C     3.15408  3.15408  0.00000 -0.30816
      15     H     0.41921  0.41921  0.00000  0.16158
      16     H     0.43669  0.43669  0.00000  0.12663
      17     C     3.24334  3.24334  0.00000 -0.48669
      18     H     0.41281  0.41281  0.00000  0.17438
      19     H     0.42675  0.42675  0.00000  0.14651
      20     H     0.42077  0.42077  0.00000  0.15845
      21     H     0.41763  0.41763  0.00000  0.16474
      22     H     0.42167  0.42167  0.00000  0.15666

   Total alpha = 29.00000, Total beta = 29.00000, Total charge = -0.00000
