  ==> Input File <==

--------------------------------------------------------------------------
set {
	reference rhf
	basis 6-31G*
}

set_num_threads( 4 )
memory 2 gb

molecule MOL {
0 1

H	 -1.415825	 1.032756	 2.124055
C	 -1.077849	 0.562854	 1.221630
C	 -1.930396	 0.433290	 0.075375
C	 0.165412	 0.073895	 1.128694
H	 -2.934707	 0.816073	 0.118745
C	 -1.485256	 -0.158363	 -1.042328
H	 0.865045	 0.130877	 1.940896
N	 0.640212	 -0.532897	 -0.000111
H	 -2.093715	 -0.272981	 -1.918111
C	 -0.132320	 -0.690310	 -1.143217
C	 2.010177	 -1.032049	 0.000042
O	 0.305597	 -1.228684	 -2.129415
H	 2.187698	 -1.635381	 -0.882279
H	 2.677579	 -0.189247	 -0.001871
H	 2.188882	 -1.632203	 0.884288

	symmetry c1
}
set optking {
	frozen_dihedral = ("
		10 8 11 13
	")
}

ee = optimize('scf')
oeprop('DIPOLE', 'QUADRUPOLE', 'MULLIKEN_CHARGES')
f=open( 'psi4out.xyz', 'w' )
f.write( "15  " )
f.write( str(ee) + "\n" )
f.write( MOL.save_string_xyz() )
f.close()
--------------------------------------------------------------------------

    Molecular point group: c1
  Charge       = 0
  Multiplicity = 1
  Basis Set: 6-31G*
  Basis Set:
  @DF-RHF Final Energy:  -360.59546916823592
    Total Energy =                       -360.5954691682359226
    Molecular point group: c1
  Basis Set: 6-31G*
  Basis Set:
  Basis Set: 6-31G*
  Basis Set:
  @DF-RHF Final Energy:  -360.59579629654155
    Total Energy =                       -360.5957962965413230
  Basis Set: 6-31G*
  Basis Set:
  Basis Set: 6-31G*
  Basis Set:
  @DF-RHF Final Energy:  -360.59583479985122
    Total Energy =                       -360.5958347998512181
  Basis Set: 6-31G*
  Basis Set:
  Basis Set: 6-31G*
  Basis Set:
  @DF-RHF Final Energy:  -360.59583436112507
    Total Energy =                       -360.5958343611251280
  Basis Set: 6-31G*
  Basis Set:
  Charge       = 0
  Multiplicity = 1
  Basis Set: 6-31G*
  Basis Set:

    Orbital Energies (a.u.)
    -----------------------

    Doubly Occupied:

       1A    -20.508660     2A    -15.621219     3A    -11.343453
       4A    -11.296605     5A    -11.264216     6A    -11.260456
       7A    -11.233796     8A    -11.229240     9A     -1.384306
      10A     -1.281021    11A     -1.114816    12A     -1.025772
      13A     -0.969939    14A     -0.872119    15A     -0.835315
      16A     -0.715409    17A     -0.698546    18A     -0.660676
      19A     -0.647863    20A     -0.621671    21A     -0.606712
      22A     -0.572098    23A     -0.553276    24A     -0.546957
      25A     -0.526079    26A     -0.476131    27A     -0.413628
      28A     -0.405967    29A     -0.305267

  @DF-RHF Final Energy:  -360.59585304643213

   => Energetics <=

    Nuclear Repulsion Energy =            357.5875513640147574
    One-Electron Energy =               -1198.3843827882251389
    Two-Electron Energy =                 480.2009783777780285
    DFT Exchange-Correlation Energy =       0.0000000000000000
    Empirical Dispersion Energy =           0.0000000000000000
    PCM Polarization Energy =               0.0000000000000000
    EFP Energy =                            0.0000000000000000
    Total Energy =                       -360.5958530464323530
    Molecular point group: c1
  Basis Set: 6-31G*
  Basis Set:

  -Total Gradient:
     Atom            X                  Y                   Z
    ------   -----------------  -----------------  -----------------
       1        0.000004362427     0.000007162003    -0.000004896634
       2        0.000007903666     0.000021507576    -0.000006014146
       3       -0.000008048518    -0.000005689919    -0.000003984228
       4       -0.000027114986    -0.000061238398     0.000032895459
       5       -0.000003377625     0.000000429008    -0.000003967272
       6       -0.000006241959     0.000011839185     0.000007070568
       7        0.000009246832     0.000012952982    -0.000008023656
       8        0.000099544175     0.000321315471    -0.000135721290
       9        0.000000113114     0.000004289712     0.000000395596
      10       -0.000071348887    -0.000190084419     0.000076671899
      11       -0.000110540424    -0.000271433372     0.000175462233
      12        0.000025559696     0.000008530325     0.000024178911
      13        0.000093709712     0.000144346301    -0.000150717989
      14       -0.000009516326    -0.000003840998     0.000002009151
      15       -0.000004250897    -0.000000085457    -0.000005358604

  **** Optimization is complete! (in 5 steps) ****
    Final optimized geometry and variables:
    Molecular point group: c1

    Geometry (in Angstrom), charge = 0, multiplicity = 1:

    H           -1.289070283361     1.393625292014     2.384205766135
    C           -0.950526505088     0.920156762618     1.483918166146
    C           -1.803091924760     0.785081505796     0.338247670452
    C            0.292380713891     0.429593523012     1.394276280972
    H           -2.807782356959     1.166938546069     0.380429731573
    C           -1.357462042961     0.189441151068    -0.777111512358
    H            0.991233009922     0.489378665336     2.206796100876
    N            0.766644367509    -0.184039973227     0.268949067435
    H           -1.965404856394     0.071327765368    -1.652893920146
    C           -0.002410735250    -0.337448851779    -0.876767124175
    C            2.139704073141    -0.674839288157     0.264300768800
    O            0.441005905038    -0.868887104087    -1.864275665709
    H            2.288781977661    -1.259264945765    -0.625857607121
    H            2.838363360824     0.153883972289     0.267573645816
    H            2.312988234672    -1.290482845902     1.138121770707

  Mulliken Charges: (a.u.)
   Center  Symbol    Alpha    Beta     Spin     Total
       1     H     0.39284  0.39284  0.00000  0.21432
       2     C     3.16152  3.16152  0.00000 -0.32303
       3     C     3.05827  3.05827  0.00000 -0.11654
       4     C     2.92084  2.92084  0.00000  0.15832
       5     H     0.39084  0.39084  0.00000  0.21833
       6     C     3.16971  3.16971  0.00000 -0.33942
       7     H     0.38790  0.38790  0.00000  0.22420
       8     N     3.86558  3.86558  0.00000 -0.73117
       9     H     0.38634  0.38634  0.00000  0.22733
      10     C     2.59397  2.59397  0.00000  0.81206
      11     C     3.15521  3.15521  0.00000 -0.31042
      12     O     4.32202  4.32202  0.00000 -0.64405
      13     H     0.37414  0.37414  0.00000  0.25171
      14     H     0.40909  0.40909  0.00000  0.18183
      15     H     0.41174  0.41174  0.00000  0.17652

   Total alpha = 29.00000, Total beta = 29.00000, Total charge = -0.00000
