  ==> Input File <==

--------------------------------------------------------------------------
set {
	reference rhf
	basis 6-31G*
}

set_num_threads( 4 )
memory 2 gb

molecule MOL {
0 1

H	 2.176868	 -0.646004	 -0.217325
O	 1.337496	 -0.537251	 0.205931
C	 0.702312	 0.627605	 -0.264544
C	 -0.714990	 0.596302	 0.266387
H	 0.682322	 0.642550	 -1.350929
H	 1.215941	 1.520383	 0.085680
O	 -1.405996	 -0.526611	 -0.195820
H	 -1.257453	 1.468809	 -0.075599
H	 -0.688972	 0.618407	 1.353696
H	 -1.053371	 -0.752469	 -1.047088

	symmetry c1
}
set optking {
	frozen_dihedral = ("
		10 7 4 3
	")
}

ee = optimize('scf')
oeprop('DIPOLE', 'QUADRUPOLE', 'MULLIKEN_CHARGES')
f=open( 'psi4out.xyz', 'w' )
f.write( "10  " )
f.write( str(ee) + "\n" )
f.write( MOL.save_string_xyz() )
f.close()
--------------------------------------------------------------------------

    Molecular point group: c1
  Charge       = 0
  Multiplicity = 1
  Basis Set: 6-31G*
  Basis Set:
  @DF-RHF Final Energy:  -228.91643415707799
    Total Energy =                       -228.9164341570779868
    Molecular point group: c1
  Basis Set: 6-31G*
  Basis Set:
  Basis Set: 6-31G*
  Basis Set:
  @DF-RHF Final Energy:  -228.91823873017864
    Total Energy =                       -228.9182387301787003
  Basis Set: 6-31G*
  Basis Set:
  Basis Set: 6-31G*
  Basis Set:
  @DF-RHF Final Energy:  -228.91853285710107
    Total Energy =                       -228.9185328571011269
  Basis Set: 6-31G*
  Basis Set:
  Basis Set: 6-31G*
  Basis Set:
  @DF-RHF Final Energy:  -228.91854303174327
    Total Energy =                       -228.9185430317431837
  Basis Set: 6-31G*
  Basis Set:
  Charge       = 0
  Multiplicity = 1
  Basis Set: 6-31G*
  Basis Set:

    Orbital Energies (a.u.)
    -----------------------

    Doubly Occupied:

       1A    -20.564438     2A    -20.550030     3A    -11.281644
       4A    -11.269795     5A     -1.379290     6A     -1.352264
       7A     -1.004698     8A     -0.848810     9A     -0.720855
      10A     -0.673541    11A     -0.660857    12A     -0.598153
      13A     -0.572452    14A     -0.548851    15A     -0.471682
      16A     -0.451099    17A     -0.437027

  @DF-RHF Final Energy:  -228.91854368530494

   => Energetics <=

    Nuclear Repulsion Energy =            133.7905770786514950
    One-Electron Energy =                -578.6472689490428820
    Two-Electron Energy =                 215.9381481850863906
    DFT Exchange-Correlation Energy =       0.0000000000000000
    Empirical Dispersion Energy =           0.0000000000000000
    PCM Polarization Energy =               0.0000000000000000
    EFP Energy =                            0.0000000000000000
    Total Energy =                       -228.9185436853049964
    Molecular point group: c1
  Basis Set: 6-31G*
  Basis Set:

  -Total Gradient:
     Atom            X                  Y                   Z
    ------   -----------------  -----------------  -----------------
       1        0.000001508346     0.000010471816    -0.000002336456
       2       -0.000027034919     0.000044598723     0.000005239755
       3       -0.000082309813     0.000025038437    -0.000092491993
       4        0.000059279474    -0.000083380492     0.000096428486
       5        0.000016962929    -0.000006065162     0.000001940357
       6        0.000032043753    -0.000011159384     0.000022654522
       7       -0.000108949629     0.000073044903    -0.000076210842
       8        0.000028633118     0.000004325102    -0.000002055789
       9        0.000006342171     0.000010452031     0.000016009120
      10        0.000073524576    -0.000067325972     0.000030822840

  **** Optimization is complete! (in 5 steps) ****
    Final optimized geometry and variables:
    Molecular point group: c1

    Geometry (in Angstrom), charge = 0, multiplicity = 1:

    H            2.263483597047    -0.560620269985    -0.119786430928
    O            1.369164472199    -0.560117733988     0.190544735950
    C            0.717697119885     0.599895160594    -0.243561721263
    C           -0.705703797840     0.590883347562     0.274516374980
    H            0.709291626521     0.653132152526    -1.333815292987
    H            1.215725988370     1.496464192028     0.121344991989
    O           -1.451316277495    -0.513745613015    -0.150294245232
    H           -1.185523181779     1.518841018975    -0.033843685464
    H           -0.693264016914     0.564099962462     1.356380588382
    H           -1.148707678049    -0.807322152468    -0.997656426520

  Mulliken Charges: (a.u.)
   Center  Symbol    Alpha    Beta     Spin     Total
       1     H     0.27885  0.27885  0.00000  0.44230
       2     O     4.36255  4.36255  0.00000 -0.72510
       3     C     3.02441  3.02441  0.00000 -0.04882
       4     C     2.98386  2.98386  0.00000  0.03228
       5     H     0.43389  0.43389  0.00000  0.13222
       6     H     0.42607  0.42607  0.00000  0.14786
       7     O     4.36824  4.36824  0.00000 -0.73648
       8     H     0.43059  0.43059  0.00000  0.13882
       9     H     0.41154  0.41154  0.00000  0.17692
      10     H     0.28001  0.28001  0.00000  0.43998

   Total alpha = 17.00000, Total beta = 17.00000, Total charge =  0.00000
