  ==> Input File <==

--------------------------------------------------------------------------
set {
	reference rhf
	basis cc-pvtz
}

set_num_threads( 4 )
memory 2 gb

molecule MOL {
0 1

H	 -3.972795	 -0.912892	 0.806495
C	 -2.908858	 -0.774467	 0.838924
C	 -2.334425	 -0.085555	 1.892048
C	 -2.116747	 -1.285184	 -0.171873
H	 -2.949879	 0.310577	 2.676264
C	 -0.967194	 0.091916	 1.933026
H	 -2.563196	 -1.819287	 -0.988139
C	 -0.747572	 -1.108304	 -0.132262
H	 -0.505943	 0.622678	 2.740861
C	 -0.168759	 -0.418672	 0.921253
H	 -0.131275	 -1.502555	 -0.913464
C	 1.303303	 -0.200104	 1.011716
O	 1.968286	 -0.725612	 -0.000027
O	 1.829876	 0.384681	 1.898242
C	 3.373556	 -0.568203	 0.000011
H	 3.695416	 -0.031588	 -0.879663
H	 3.782700	 -1.565294	 -0.000152
H	 3.695405	 -0.031851	 0.879862

	symmetry c1
}
set optking {
	frozen_dihedral = ("
		12 13 15 16
	")
}

ee = optimize('scf')
oeprop('DIPOLE', 'QUADRUPOLE', 'MULLIKEN_CHARGES')
f=open( 'psi4out.xyz', 'w' )
f.write( "18  " )
f.write( str(ee) + "\n" )
f.write( MOL.save_string_xyz() )
f.close()
--------------------------------------------------------------------------

    Molecular point group: c1
  Charge       = 0
  Multiplicity = 1
  Basis Set: CC-PVTZ
  Basis Set:
  @DF-RHF Final Energy:  -457.50710963149436
    Total Energy =                       -457.5071096314944725
    Molecular point group: c1
  Basis Set: CC-PVTZ
  Basis Set:
  Basis Set: CC-PVTZ
  Basis Set:
  @DF-RHF Final Energy:  -457.50750370195811
    Total Energy =                       -457.5075037019573756
  Basis Set: CC-PVTZ
  Basis Set:
  Basis Set: CC-PVTZ
  Basis Set:
  @DF-RHF Final Energy:  -457.50795713461594
    Total Energy =                       -457.5079571346165039
  Basis Set: CC-PVTZ
  Basis Set:
  Basis Set: CC-PVTZ
  Basis Set:
  @DF-RHF Final Energy:  -457.50778175018382
    Total Energy =                       -457.5077817501836535
  Basis Set: CC-PVTZ
  Basis Set:
  Basis Set: CC-PVTZ
  Basis Set:
  @DF-RHF Final Energy:  -457.50809198385474
    Total Energy =                       -457.5080919838553655
  Basis Set: CC-PVTZ
  Basis Set:
  Charge       = 0
  Multiplicity = 1
  Basis Set: CC-PVTZ
  Basis Set:

    Orbital Energies (a.u.)
    -----------------------

    Doubly Occupied:

       1A    -20.599868     2A    -20.533629     3A    -11.373296
       4A    -11.279791     5A    -11.244533     6A    -11.243170
       7A    -11.242228     8A    -11.239608     9A    -11.235670
      10A    -11.234906    11A     -1.474369    12A     -1.369126
      13A     -1.170323    14A     -1.051542    15A     -1.028645
      16A     -0.981619    17A     -0.862715    18A     -0.838019
      19A     -0.780332    20A     -0.745069    21A     -0.688415
      22A     -0.679202    23A     -0.676044    24A     -0.634304
      25A     -0.629711    26A     -0.600857    27A     -0.587408
      28A     -0.571638    29A     -0.526134    30A     -0.519990
      31A     -0.510132    32A     -0.501473    33A     -0.459925
      34A     -0.450065    35A     -0.349996    36A     -0.345844

  @DF-RHF Final Energy:  -457.50809442434718

   => Energetics <=

    Nuclear Repulsion Energy =            493.5943864292095213
    One-Electron Energy =               -1601.6857692623570983
    Two-Electron Energy =                 650.5832884088003993
    DFT Exchange-Correlation Energy =       0.0000000000000000
    Empirical Dispersion Energy =           0.0000000000000000
    PCM Polarization Energy =               0.0000000000000000
    EFP Energy =                            0.0000000000000000
    Total Energy =                       -457.5080944243472914
    Molecular point group: c1
  Basis Set: CC-PVTZ
  Basis Set:

  -Total Gradient:
     Atom            X                  Y                   Z
    ------   -----------------  -----------------  -----------------
       1        0.000003449142    -0.000000312163    -0.000001771535
       2        0.000002801374     0.000004312535     0.000008911337
       3       -0.000006278471    -0.000001226457    -0.000007831694
       4        0.000016768220    -0.000000377616     0.000002190321
       5        0.000004302485     0.000000305279     0.000000710143
       6        0.000022335275     0.000001128022    -0.000001079940
       7        0.000002589161     0.000000098013    -0.000000890756
       8       -0.000005072203     0.000000584602    -0.000005080640
       9        0.000000536683     0.000001479755     0.000004089294
      10        0.000008359698    -0.000009108540     0.000000030645
      11        0.000000728327     0.000000013297    -0.000000459189
      12        0.000008648337    -0.000039230314     0.000027481783
      13       -0.000020224531     0.000087300447    -0.000133392773
      14        0.000010493951     0.000000166407    -0.000002657028
      15       -0.000042142999    -0.000021899078     0.000124048686
      16       -0.000052890357    -0.000054928002    -0.000020278166
      17        0.000038833601     0.000006635121    -0.000008888300
      18        0.000006762309     0.000025058693     0.000014867809

  **** Optimization is complete! (in 6 steps) ****
    Final optimized geometry and variables:
    Molecular point group: c1

    Geometry (in Angstrom), charge = 0, multiplicity = 1:

    H           -4.020684267622    -0.464756263244    -0.035393694706
    C           -2.957638805600    -0.322018262524     0.007273191226
    C           -2.396054830469     0.369222482807     1.065842623398
    C           -2.153562662591    -0.829371971491    -0.995657209548
    H           -3.020529167151     0.762930335876     1.844208586727
    C           -1.030012006949     0.552201022389     1.119941766627
    H           -2.589656158030    -1.365332033612    -1.816346695190
    C           -0.785426029865    -0.646908945368    -0.942883538099
    H           -0.579070008313     1.084859114454     1.932319152797
    C           -0.219400017170     0.044960889549     0.116011718053
    H           -0.160441445029    -1.038745317337    -1.718261243765
    C            1.251837722100     0.270818875296     0.222758253833
    O            1.920842749963    -0.255333896948    -0.787125285365
    O            1.758533132864     0.858750163332     1.118076855090
    C            3.330003784708    -0.130304970280    -0.834811129653
    H            3.587116457791     0.399729757768    -1.740086745447
    H            3.750716746816    -1.124476644978    -0.867402161480
    H            3.699063386967     0.401528840580     0.024309974628

  Mulliken Charges: (a.u.)
   Center  Symbol    Alpha    Beta     Spin     Total
       1     H     0.42035  0.42035  0.00000  0.15930
       2     C     3.06971  3.06971  0.00000 -0.13943
       3     C     3.07552  3.07552  0.00000 -0.15105
       4     C     3.07477  3.07477  0.00000 -0.14954
       5     H     0.42050  0.42050  0.00000  0.15900
       6     C     3.07600  3.07600  0.00000 -0.15200
       7     H     0.42200  0.42200  0.00000  0.15600
       8     C     3.08183  3.08183  0.00000 -0.16367
       9     H     0.40633  0.40633  0.00000  0.18734
      10     C     3.01881  3.01881  0.00000 -0.03761
      11     H     0.41125  0.41125  0.00000  0.17749
      12     C     2.77409  2.77409  0.00000  0.45182
      13     O     4.15029  4.15029  0.00000 -0.30058
      14     O     4.21148  4.21148  0.00000 -0.42297
      15     C     3.04317  3.04317  0.00000 -0.08634
      16     H     0.45252  0.45252  0.00000  0.09496
      17     H     0.45228  0.45228  0.00000  0.09544
      18     H     0.43909  0.43909  0.00000  0.12183

   Total alpha = 36.00000, Total beta = 36.00000, Total charge =  0.00000
