                              Psi4 1.0.54 Driver

  ==> Input File <==

--------------------------------------------------------------------------
set {
	reference rhf
	basis cc-pvtz
}

set_num_threads( 4 )
memory 2 gb

molecule MOL {
0 1

O	 -1.528377	 -0.142312	 -1.755361
C	 -1.440217	 0.482576	 -0.753940
C	 -2.218271	 1.732499	 -0.452644
O	 -0.637375	 0.157174	 0.243149
H	 -1.534245	 2.552152	 -0.273769
H	 -2.865547	 1.964003	 -1.282751
H	 -2.802195	 1.589436	 0.447430
C	 0.162530	 -1.009518	 0.097799
C	 1.587210	 -0.664190	 0.477086
H	 0.096803	 -1.356267	 -0.924704
H	 -0.233803	 -1.785900	 0.736810
C	 2.256770	 0.342732	 -0.454344
H	 2.154716	 -1.590834	 0.479041
H	 1.598751	 -0.289614	 1.496104
C	 3.698146	 0.643205	 -0.057145
H	 2.235038	 -0.042575	 -1.470299
H	 1.683491	 1.262594	 -0.461300
H	 4.150202	 1.356548	 -0.736242
H	 4.305463	 -0.255904	 -0.069842
H	 3.749130	 1.061068	 0.942759

	symmetry c1
}
set optking {
	frozen_dihedral = ("
		2 4 8 10
	")
}

ee,wfn = optimize('scf', return_wfn=True)
oeprop( wfn, 'DIPOLE', 'QUADRUPOLE', 'MULLIKEN_CHARGES')
f=open( 'psi4out.xyz', 'w' )
f.write( "20  " )
f.write( str(ee) + "\n" )
f.write( MOL.save_string_xyz() )
f.close()
--------------------------------------------------------------------------

    Molecular point group: c1
  Charge       = 0
  Multiplicity = 1
  Basis Set: CC-PVTZ
  Basis Set:
  @DF-RHF Final Energy:  -384.08491589218318
    Total Energy =                       -384.0849158921827211
    Molecular point group: c1
  Basis Set: CC-PVTZ
  Basis Set:
  Basis Set: CC-PVTZ
  Basis Set:
  @DF-RHF Final Energy:  -384.08511849317415
    Total Energy =                       -384.0851184931747184
  Basis Set: CC-PVTZ
  Basis Set:
  Basis Set: CC-PVTZ
  Basis Set:
  @DF-RHF Final Energy:  -384.08557685047890
    Total Energy =                       -384.0855768504786738
  Basis Set: CC-PVTZ
  Basis Set:
  Basis Set: CC-PVTZ
  Basis Set:
  @DF-RHF Final Energy:  -384.08540793916751
    Total Energy =                       -384.0854079391682490
  Basis Set: CC-PVTZ
  Basis Set:
  Basis Set: CC-PVTZ
  Basis Set:
  @DF-RHF Final Energy:  -384.08565138347745
    Total Energy =                       -384.0856513834772841
  Basis Set: CC-PVTZ
  Basis Set:
  Basis Set: CC-PVTZ
  Basis Set:
  @DF-RHF Final Energy:  -384.08565256051662
    Total Energy =                       -384.0856525605163370
  Basis Set: CC-PVTZ
  Basis Set:
  Charge       = 0
  Multiplicity = 1
  Basis Set: CC-PVTZ
  Basis Set:

    Orbital Energies (a.u.)
    -----------------------

    Doubly Occupied:

       1A    -20.593131     2A    -20.531957     3A    -11.367825
       4A    -11.278723     5A    -11.231079     6A    -11.223204
       7A    -11.218981     8A    -11.211494     9A     -1.468369
      10A     -1.365521    11A     -1.086446    12A     -1.029491
      13A     -0.981859    14A     -0.884890    15A     -0.810097
      16A     -0.775030    17A     -0.695518    18A     -0.683021
      19A     -0.667207    20A     -0.633148    21A     -0.603576
      22A     -0.595070    23A     -0.573789    24A     -0.549398
      25A     -0.541075    26A     -0.538358    27A     -0.507753
      28A     -0.489785    29A     -0.479086    30A     -0.474122
      31A     -0.445491    32A     -0.440557

  @DF-RHF Final Energy:  -384.08565266241948

   => Energetics <=

    Nuclear Repulsion Energy =            389.2085112207544739
    One-Electron Energy =               -1294.6382339194578890
    Two-Electron Energy =                 521.3440700362835969
    DFT Exchange-Correlation Energy =       0.0000000000000000
    Empirical Dispersion Energy =           0.0000000000000000
    PCM Polarization Energy =               0.0000000000000000
    EFP Energy =                            0.0000000000000000
    Total Energy =                       -384.0856526624198750
    Molecular point group: c1
  Basis Set: CC-PVTZ
  Basis Set:

  -Total Gradient:
     Atom            X                  Y                   Z
    ------   -----------------  -----------------  -----------------
       1        0.000006151718    -0.000009446148     0.000001003281
       2        0.000576892728     0.000476933195    -0.000327767092
       3       -0.000014966407    -0.000002270756     0.000004803287
       4       -0.000999659469    -0.000825609023     0.000557712886
       5        0.000001501769     0.000002123669    -0.000000071845
       6        0.000002048069    -0.000001184217     0.000002665354
       7        0.000002069054     0.000005827204    -0.000003393803
       8        0.001087286013     0.000904723149    -0.000501489944
       9        0.000000329072    -0.000006369085     0.000015116799
      10       -0.000657514828    -0.000549155914     0.000264320306
      11       -0.000002300844     0.000005854673     0.000001131075
      12       -0.000001660132    -0.000002864923    -0.000011050812
      13        0.000000726281     0.000003563014    -0.000002909068
      14       -0.000000980677    -0.000002425654    -0.000000507915
      15       -0.000003759009     0.000001864350    -0.000002140099
      16        0.000002972335     0.000001381198     0.000000027113
      17        0.000003756945    -0.000003106265     0.000004249014
      18       -0.000000286808     0.000001369715    -0.000000490818
      19       -0.000001347180    -0.000000072417    -0.000000766643
      20       -0.000001258627    -0.000001135767    -0.000000441075

  **** Optimization is complete! (in 7 steps) ****
    Final optimized geometry and variables:
    Molecular point group: c1

    Geometry (in Angstrom), charge = 0, multiplicity = 1:

    O           -1.845952817646    -0.451264696459    -1.372111851427
    C           -1.722836529375     0.187430065737    -0.383565029472
    C           -2.537734282883     1.405993814706    -0.051579155923
    O           -0.851617225840    -0.078561032899     0.574518746031
    H           -1.882194292553     2.257282700818     0.079250632310
    H           -3.241656487175     1.597446699991    -0.844964071182
    H           -3.061282376553     1.248339919327     0.882454057401
    C            0.030596747844    -1.189253323794     0.450232924230
    C            1.441194323876    -0.761325418628     0.803488794266
    H           -0.031727038155    -1.585104757142    -0.550050085428
    H           -0.318329507597    -1.947406217035     1.138978035086
    C            2.059749877966     0.224448808890    -0.183581896130
    H            2.049708759828    -1.660690801008     0.848859085500
    H            1.441266369544    -0.334521039576     1.801797523071
    C            3.484401693707     0.617755467800     0.192166137390
    H            2.054687109572    -0.213549073260    -1.177553482869
    H            1.443857474204     1.115573252235    -0.236657689580
    H            3.898729776181     1.316864815015    -0.524674365238
    H            4.135946877431    -0.249253063509     0.222867317696
    H            3.515647150551     1.088336090032     1.169200883916

  Mulliken Charges: (a.u.)
   Center  Symbol    Alpha    Beta     Spin     Total
       1     O     4.19767  4.19767  0.00000 -0.39533
       2     C     2.80036  2.80036  0.00000  0.39927
       3     C     3.13987  3.13987  0.00000 -0.27974
       4     O     4.16205  4.16205  0.00000 -0.32409
       5     H     0.44676  0.44676  0.00000  0.10649
       6     H     0.43817  0.43817  0.00000  0.12366
       7     H     0.44573  0.44573  0.00000  0.10855
       8     C     3.00020  3.00020  0.00000 -0.00040
       9     C     3.08277  3.08277  0.00000 -0.16553
      10     H     0.43925  0.43925  0.00000  0.12150
      11     H     0.44525  0.44525  0.00000  0.10951
      12     C     3.08990  3.08990  0.00000 -0.17981
      13     H     0.45209  0.45209  0.00000  0.09583
      14     H     0.45243  0.45243  0.00000  0.09514
      15     C     3.14965  3.14965  0.00000 -0.29930
      16     H     0.45037  0.45037  0.00000  0.09927
      17     H     0.45092  0.45092  0.00000  0.09817
      18     H     0.44703  0.44703  0.00000  0.10594
      19     H     0.45501  0.45501  0.00000  0.08998
      20     H     0.45455  0.45455  0.00000  0.09090

   Total alpha = 32.00000, Total beta = 32.00000, Total charge = -0.00000

*** Psi4 exiting successfully. Buy a developer a beer!
