  ==> Input File <==

--------------------------------------------------------------------------
set {
	reference rhf
	basis cc-pvtz
}

set_num_threads( 4 )
memory 2 gb

molecule MOL {
0 1

O	 -1.510770	 1.240811	 -0.054933
C	 -1.081510	 0.147522	 0.122720
C	 0.327029	 -0.064006	 0.641890
C	 -1.903028	 -1.084121	 -0.174656
C	 1.349460	 -0.017068	 -0.500215
H	 0.399029	 -1.014606	 1.159950
H	 0.538021	 0.726928	 1.350471
C	 1.451788	 -1.343361	 -1.244676
H	 1.081212	 0.768849	 -1.200369
H	 2.315885	 0.249562	 -0.088807
H	 2.187876	 -1.286504	 -2.037753
H	 0.502433	 -1.617553	 -1.692220
H	 1.746193	 -2.143960	 -0.575170
H	 -1.341891	 -1.779207	 -0.789259
H	 -2.820449	 -0.808163	 -0.671328
H	 -2.133314	 -1.593056	 0.755831

	symmetry c1
}
set optking {
	frozen_dihedral = ("
		9 5 3 2
	")
}

ee = optimize('scf')
oeprop('DIPOLE', 'QUADRUPOLE', 'MULLIKEN_CHARGES')
f=open( 'psi4out.xyz', 'w' )
f.write( "16  " )
f.write( str(ee) + "\n" )
f.write( MOL.save_string_xyz() )
f.close()
--------------------------------------------------------------------------

    Molecular point group: c1
  Charge       = 0
  Multiplicity = 1
  Basis Set: CC-PVTZ
  Basis Set:
  @DF-RHF Final Energy:  -270.12481166503574
    Total Energy =                       -270.1248116650357360
    Molecular point group: c1
  Basis Set: CC-PVTZ
  Basis Set:
  Basis Set: CC-PVTZ
  Basis Set:
  @DF-RHF Final Energy:  -270.12624806482734
    Total Energy =                       -270.1262480648272799
  Basis Set: CC-PVTZ
  Basis Set:
  Basis Set: CC-PVTZ
  Basis Set:
  @DF-RHF Final Energy:  -270.12404895685165
    Total Energy =                       -270.1240489568517091
  Basis Set: CC-PVTZ
  Basis Set:
  Basis Set: CC-PVTZ
  Basis Set:
  @DF-RHF Final Energy:  -270.12696350159649
    Total Energy =                       -270.1269635015959807
  Basis Set: CC-PVTZ
  Basis Set:
  @DF-RHF Final Energy:  -270.12741376832764
    Total Energy =                       -270.1274137683276422
  @DF-RHF Final Energy:  -270.12817486306483
    Total Energy =                       -270.1281748630651691
  @DF-RHF Final Energy:  -270.12915005594516
    Total Energy =                       -270.1291500559453880
  @DF-RHF Final Energy:  -270.12980417181177
    Total Energy =                       -270.1298041718117133
  @DF-RHF Final Energy:  -270.13001349028855
    Total Energy =                       -270.1300134902883201
  @DF-RHF Final Energy:  -270.13001575807436
    Total Energy =                       -270.1300157580744212
  @DF-RHF Final Energy:  -270.13006940185642
    Total Energy =                       -270.1300694018565878
  Basis Set: CC-PVTZ
  Basis Set:
  @DF-RHF Final Energy:  -270.13007806980511
    Total Energy =                       -270.1300780698050517
  Basis Set: CC-PVTZ
  Basis Set:
  Basis Set: CC-PVTZ
  Basis Set:
  @DF-RHF Final Energy:  -270.13008061002472
    Total Energy =                       -270.1300806100248906
  Basis Set: CC-PVTZ
  Basis Set:
  Basis Set: CC-PVTZ
  Basis Set:
  @DF-RHF Final Energy:  -270.13008209244367
    Total Energy =                       -270.1300820924433310
  Basis Set: CC-PVTZ
  Basis Set:
  Charge       = 0
  Multiplicity = 1
  Basis Set: CC-PVTZ
  Basis Set:

    Orbital Energies (a.u.)
    -----------------------

    Doubly Occupied:

       1A    -20.539855     2A    -11.322132     3A    -11.231095
       4A    -11.227531     5A    -11.217738     6A    -11.206938
       7A     -1.400351     8A     -1.077055     9A     -1.016276
      10A     -0.945723    11A     -0.826852    12A     -0.729482
      13A     -0.667124    14A     -0.638729    15A     -0.625417
      16A     -0.594537    17A     -0.583288    18A     -0.554385
      19A     -0.548057    20A     -0.504556    21A     -0.487901
      22A     -0.480676    23A     -0.476208    24A     -0.403975

  @DF-RHF Final Energy:  -270.13008269526415

   => Energetics <=

    Nuclear Repulsion Energy =            240.9500771614314374
    One-Electron Energy =                -843.5485566397812818
    Two-Electron Energy =                 332.4683967830852680
    DFT Exchange-Correlation Energy =       0.0000000000000000
    Empirical Dispersion Energy =           0.0000000000000000
    PCM Polarization Energy =               0.0000000000000000
    EFP Energy =                            0.0000000000000000
    Total Energy =                       -270.1300826952646048
    Molecular point group: c1
  Basis Set: CC-PVTZ
  Basis Set:

  -Total Gradient:
     Atom            X                  Y                   Z
    ------   -----------------  -----------------  -----------------
       1        0.000005891262    -0.000017450187     0.000002642614
       2       -0.000128783431     0.001613061456     0.000704642093
       3       -0.000004289496    -0.002537840460    -0.001434191063
       4        0.000003451986     0.000017536187     0.000008715480
       5        0.000908798503     0.002158960933     0.002624459767
       6       -0.000005462353     0.000000433483    -0.000000539798
       7       -0.000000684153    -0.000000205701    -0.000003134180
       8       -0.000004567913    -0.000001569403     0.000001813943
       9       -0.000782572920    -0.001213630084    -0.001890253196
      10        0.000001728710     0.000000745989     0.000001601130
      11        0.000001757581    -0.000001448526    -0.000002373670
      12       -0.000001452453     0.000000004869    -0.000002942150
      13       -0.000001309503     0.000001442446    -0.000000108816
      14       -0.000004209233    -0.000010788451    -0.000014788655
      15        0.000001909435     0.000005995645     0.000004867366
      16        0.000009793978    -0.000015248193    -0.000000410865

  **** Optimization is complete! (in 15 steps) ****
    Final optimized geometry and variables:
    Molecular point group: c1

    Geometry (in Angstrom), charge = 0, multiplicity = 1:

    O           -1.024067922761     0.768863902037    -0.844324520286
    C           -0.926686378579     0.136200831274     0.155713432897
    C            0.400314440633    -0.078882669503     0.859389991969
    C           -2.135245432320    -0.493763062914     0.809385541897
    C            1.626637586112     0.366456232926     0.067912879734
    H            0.474760939050    -1.122780089530     1.151132018164
    H            0.329085159565     0.477420227807     1.791890937555
    C            2.070318584578    -0.658239583893    -0.973215812176
    H            1.397727327587     1.296557376557    -0.434681492127
    H            2.441233374940     0.555927500641     0.757984516771
    H            2.934557799952    -0.302307871892    -1.521592726589
    H            1.281744535701    -0.850705046393    -1.690817434125
    H            2.340615411082    -1.600644194048    -0.507082354744
    H           -2.082919877300    -1.571288442624     0.691767321230
    H           -3.037694809189    -0.128148362107     0.344035613222
    H           -2.154010505619    -0.285570134034     1.872815809695

  Mulliken Charges: (a.u.)
   Center  Symbol    Alpha    Beta     Spin     Total
       1     O     4.17289  4.17289  0.00000 -0.34578
       2     C     2.86147  2.86147  0.00000  0.27706
       3     C     3.11378  3.11378  0.00000 -0.22757
       4     C     3.15063  3.15063  0.00000 -0.30125
       5     C     3.08686  3.08686  0.00000 -0.17371
       6     H     0.44572  0.44572  0.00000  0.10855
       7     H     0.43775  0.43775  0.00000  0.12450
       8     C     3.15075  3.15075  0.00000 -0.30150
       9     H     0.44309  0.44309  0.00000  0.11383
      10     H     0.44770  0.44770  0.00000  0.10461
      11     H     0.44760  0.44760  0.00000  0.10480
      12     H     0.44748  0.44748  0.00000  0.10504
      13     H     0.45890  0.45890  0.00000  0.08220
      14     H     0.44888  0.44888  0.00000  0.10223
      15     H     0.43560  0.43560  0.00000  0.12880
      16     H     0.45090  0.45090  0.00000  0.09820

   Total alpha = 24.00000, Total beta = 24.00000, Total charge = -0.00000
