                              Psi4 1.0.54 Driver

  ==> Input File <==

--------------------------------------------------------------------------
set {
	reference rhf
	basis cc-pvtz
}

set_num_threads( 4 )
memory 2 gb

molecule MOL {
0 1

H	 -3.162190	 0.493205	 -0.000107
C	 -2.363908	 -0.234727	 0.000005
O	 -1.158738	 0.454634	 -0.000087
H	 -2.464314	 -0.863616	 -0.882153
H	 -2.464327	 -0.863359	 0.882345
C	 -0.028611	 -0.359694	 0.000037
C	 1.212847	 0.509314	 -0.000053
H	 -0.034155	 -1.007047	 -0.877198
H	 -0.034195	 -1.006836	 0.877430
C	 1.786331	 0.705617	 1.398851
H	 1.953910	 0.052915	 -0.646931
H	 0.962812	 1.468764	 -0.439245
H	 2.066204	 -0.241530	 1.847928
H	 2.671340	 1.329249	 1.369493
H	 1.068604	 1.184044	 2.056912

	symmetry c1
}
set optking {
	frozen_dihedral = ("
		11 7 6 8
	")
}

ee,wfn = optimize('scf', return_wfn=True)
oeprop( wfn, 'DIPOLE', 'QUADRUPOLE', 'MULLIKEN_CHARGES')
f=open( 'psi4out.xyz', 'w' )
f.write( "15  " )
f.write( str(ee) + "\n" )
f.write( MOL.save_string_xyz() )
f.close()
--------------------------------------------------------------------------

    Molecular point group: c1
  Charge       = 0
  Multiplicity = 1
  Basis Set: CC-PVTZ
  Basis Set:
  @DF-RHF Final Energy:  -232.22414632039713
    Total Energy =                       -232.2241463203970966
    Molecular point group: c1
  Basis Set: CC-PVTZ
  Basis Set:
  Basis Set: CC-PVTZ
  Basis Set:
  @DF-RHF Final Energy:  -232.22361316702310
    Total Energy =                       -232.2236131670230179
  Basis Set: CC-PVTZ
  Basis Set:
  Basis Set: CC-PVTZ
  Basis Set:
  @DF-RHF Final Energy:  -232.22468850143173
    Total Energy =                       -232.2246885014317286
  Basis Set: CC-PVTZ
  Basis Set:
  Basis Set: CC-PVTZ
  Basis Set:
  @DF-RHF Final Energy:  -232.22471798895327
    Total Energy =                       -232.2247179889532163
  Basis Set: CC-PVTZ
  Basis Set:
  Basis Set: CC-PVTZ
  Basis Set:
  @DF-RHF Final Energy:  -232.22471902889316
    Total Energy =                       -232.2247190288931620
  Basis Set: CC-PVTZ
  Basis Set:
  Charge       = 0
  Multiplicity = 1
  Basis Set: CC-PVTZ
  Basis Set:

    Orbital Energies (a.u.)
    -----------------------

    Doubly Occupied:

       1A    -20.548633     2A    -11.264565     3A    -11.262025
       4A    -11.212695     5A    -11.206232     6A     -1.382385
       7A     -1.054789     8A     -0.953856     9A     -0.882691
      10A     -0.806131    11A     -0.669690    12A     -0.663862
      13A     -0.633776    14A     -0.583649    15A     -0.580935
      16A     -0.546079    17A     -0.494305    18A     -0.487792
      19A     -0.482278    20A     -0.461946    21A     -0.414502

  @DF-RHF Final Energy:  -232.22471910045655

   => Energetics <=

    Nuclear Repulsion Energy =            191.5244489769758331
    One-Electron Energy =                -694.3127089112507520
    Two-Electron Energy =                 270.5635408338182515
    DFT Exchange-Correlation Energy =       0.0000000000000000
    Empirical Dispersion Energy =           0.0000000000000000
    PCM Polarization Energy =               0.0000000000000000
    EFP Energy =                            0.0000000000000000
    Total Energy =                       -232.2247191004566957
    Molecular point group: c1
  Basis Set: CC-PVTZ
  Basis Set:

  -Total Gradient:
     Atom            X                  Y                   Z
    ------   -----------------  -----------------  -----------------
       1       -0.000003821822     0.000005590141    -0.000000786164
       2        0.000011802770    -0.000000474998     0.000004221012
       3       -0.000017894860     0.000003878822     0.000004015346
       4       -0.000002747268    -0.000001416708    -0.000006396222
       5       -0.000001306948    -0.000002189811     0.000003589287
       6       -0.003495643848     0.004999752010    -0.002962826279
       7        0.002908960230    -0.004314084486     0.004288899435
       8        0.002472463206    -0.003475339318     0.001770914183
       9       -0.000007378057     0.000005428855     0.000007521242
      10        0.000012202605    -0.000027954103    -0.000012817701
      11       -0.001871193791     0.002784197082    -0.003087166273
      12       -0.000006748425     0.000022623825     0.000002449786
      13       -0.000002822363     0.000005477830     0.000002012083
      14        0.000001298573    -0.000003710899     0.000000772027
      15        0.000002829998    -0.000001778243    -0.000014401762

  **** Optimization is complete! (in 6 steps) ****
    Final optimized geometry and variables:
    Molecular point group: c1

    Geometry (in Angstrom), charge = 0, multiplicity = 1:

    H           -3.032873444425     0.162456909891    -0.025370324719
    C           -2.208406061259    -0.517935540553    -0.182445143679
    O           -1.037151811021     0.227353391248    -0.195190352921
    H           -2.359958579300    -1.038797125112    -1.125691801818
    H           -2.204781254685    -1.254126733463     0.618627676367
    C            0.119836146516    -0.521769625692    -0.400475703399
    C            1.340620260671     0.388570495377    -0.318988714741
    H            0.084855151375    -1.036844515333    -1.359155646277
    H            0.187754539200    -1.304273088747     0.356363580205
    C            1.953980094559     0.476257743178     1.072861040903
    H            2.076369116809     0.072651109645    -1.050985133766
    H            1.021488715247     1.374571498743    -0.638301880749
    H            2.334624197750    -0.486765305842     1.396596575874
    H            2.776884527840     1.181260416985     1.093971810616
    H            1.215991071426     0.803833146576     1.796267716586

  Mulliken Charges: (a.u.)
   Center  Symbol    Alpha    Beta     Spin     Total
       1     H     0.44711  0.44711  0.00000  0.10578
       2     C     3.03159  3.03159  0.00000 -0.06318
       3     O     4.17383  4.17383  0.00000 -0.34765
       4     H     0.47175  0.47175  0.00000  0.05651
       5     H     0.47187  0.47187  0.00000  0.05626
       6     C     2.96368  2.96368  0.00000  0.07263
       7     C     3.08293  3.08293  0.00000 -0.16587
       8     H     0.46878  0.46878  0.00000  0.06244
       9     H     0.47837  0.47837  0.00000  0.04326
      10     C     3.14982  3.14982  0.00000 -0.29964
      11     H     0.45329  0.45329  0.00000  0.09341
      12     H     0.45012  0.45012  0.00000  0.09975
      13     H     0.45742  0.45742  0.00000  0.08515
      14     H     0.44976  0.44976  0.00000  0.10047
      15     H     0.44966  0.44966  0.00000  0.10068

   Total alpha = 21.00000, Total beta = 21.00000, Total charge = -0.00000

*** Psi4 exiting successfully. Buy a developer a beer!
