  ==> Input File <==

--------------------------------------------------------------------------
set {
	reference rhf
	basis 6-31G*
}

set_num_threads( 4 )
memory 2 gb

molecule MOL {
0 1

H	 4.600978	 0.379382	 0.374254
C	 3.749437	 -0.281929	 0.250577
C	 2.441352	 0.506955	 0.211346
H	 3.897854	 -0.841806	 -0.668519
H	 3.759653	 -0.990384	 1.074127
C	 1.217350	 -0.386724	 0.039429
H	 2.461432	 1.225898	 -0.601738
H	 2.339828	 1.081453	 1.130605
N	 0.000003	 0.397874	 -0.023260
H	 1.306073	 -0.940980	 -0.891104
H	 1.192141	 -1.131669	 0.841800
C	 -1.217365	 -0.386708	 0.039277
H	 -0.000031	 1.072115	 0.718656
C	 -2.452633	 0.504241	 -0.042481
H	 -1.215291	 -1.074557	 -0.802042
H	 -1.269739	 -1.003477	 0.942735
C	 -3.758029	 -0.289423	 -0.010781
H	 -2.394220	 1.093569	 -0.952170
H	 -2.440793	 1.210787	 0.785871
H	 -3.816659	 -0.981993	 -0.845726
H	 -4.617837	 0.370165	 -0.069296
H	 -3.847478	 -0.867502	 0.904682

	symmetry c1
}
set optking {
	frozen_dihedral = ("
		10 6 9 12
	")
}

ee = optimize('scf')
oeprop('DIPOLE', 'QUADRUPOLE', 'MULLIKEN_CHARGES')
f=open( 'psi4out.xyz', 'w' )
f.write( "22  " )
f.write( str(ee) + "\n" )
f.write( MOL.save_string_xyz() )
f.close()
--------------------------------------------------------------------------

    Molecular point group: c1
  Charge       = 0
  Multiplicity = 1
  Basis Set: 6-31G*
  Basis Set:
  @DF-RHF Final Energy:  -290.38287250812795
    Total Energy =                       -290.3828725081274911
    Molecular point group: c1
  Basis Set: 6-31G*
  Basis Set:
  Basis Set: 6-31G*
  Basis Set:
  @DF-RHF Final Energy:  -290.38290420886926
    Total Energy =                       -290.3829042088693200
  Basis Set: 6-31G*
  Basis Set:
  Basis Set: 6-31G*
  Basis Set:
  @DF-RHF Final Energy:  -290.38291303683366
    Total Energy =                       -290.3829130368333722
  Basis Set: 6-31G*
  Basis Set:
  Basis Set: 6-31G*
  Basis Set:
  @DF-RHF Final Energy:  -290.38291442732879
    Total Energy =                       -290.3829144273288421
  Basis Set: 6-31G*
  Basis Set:
  Charge       = 0
  Multiplicity = 1
  Basis Set: 6-31G*
  Basis Set:

    Orbital Energies (a.u.)
    -----------------------

    Doubly Occupied:

       1A    -15.533659     2A    -11.237832     3A    -11.237721
       4A    -11.215050     5A    -11.213278     6A    -11.210524
       7A    -11.209554     8A     -1.205661     9A     -1.059644
      10A     -1.026158    11A     -0.928245    12A     -0.868087
      13A     -0.811861    14A     -0.793964    15A     -0.667374
      16A     -0.627545    17A     -0.614802    18A     -0.613712
      19A     -0.573874    20A     -0.563114    21A     -0.531900
      22A     -0.527480    23A     -0.515079    24A     -0.485378
      25A     -0.482458    26A     -0.474353    27A     -0.466680
      28A     -0.450145    29A     -0.360084

  @DF-RHF Final Energy:  -290.38291455996335

   => Energetics <=

    Nuclear Repulsion Energy =            313.2450719823416989
    One-Electron Energy =               -1012.2455429329537537
    Two-Electron Energy =                 408.6175563906484740
    DFT Exchange-Correlation Energy =       0.0000000000000000
    Empirical Dispersion Energy =           0.0000000000000000
    PCM Polarization Energy =               0.0000000000000000
    EFP Energy =                            0.0000000000000000
    Total Energy =                       -290.3829145599635240
    Molecular point group: c1
  Basis Set: 6-31G*
  Basis Set:

  -Total Gradient:
     Atom            X                  Y                   Z
    ------   -----------------  -----------------  -----------------
       1       -0.000002684681     0.000001616467     0.000001622611
       2       -0.000001450926    -0.000009226111     0.000009358308
       3        0.000013009587     0.000023184911    -0.000011164441
       4        0.000003743635    -0.000001726221    -0.000003068447
       5        0.000003869673    -0.000004515532    -0.000002161120
       6       -0.001213365275    -0.001734398850     0.001549712392
       7       -0.000004818319     0.000004020595     0.000005603127
       8        0.000001110955     0.000000827872    -0.000006067785
       9        0.000235513625     0.000156468350    -0.002267896539
      10        0.000969992575     0.001447323822    -0.000742526929
      11        0.000001018667    -0.000011327475    -0.000015169124
      12       -0.000003752288     0.000115244637     0.001474942580
      13        0.000001963167     0.000013484300     0.000000465742
      14       -0.000000332002     0.000003154448     0.000002680638
      15        0.000002207954    -0.000000086108     0.000000253754
      16       -0.000004280182    -0.000006880413     0.000004118484
      17        0.000000705638    -0.000001191748     0.000000228580
      18       -0.000000552603     0.000001929779     0.000000744771
      19       -0.000002548232     0.000002163735    -0.000000966587
      20        0.000000046672    -0.000000351038    -0.000000155290
      21        0.000001001858    -0.000000038220    -0.000000470402
      22       -0.000000399493     0.000000322801    -0.000000084321

  **** Optimization is complete! (in 5 steps) ****
    Final optimized geometry and variables:
    Molecular point group: c1

    Geometry (in Angstrom), charge = 0, multiplicity = 1:

    H            4.606147582170     0.375629608196     0.276258118331
    C            3.753430568457    -0.284852941669     0.156369981252
    C            2.444724734109     0.503740470776     0.144625634151
    H            3.889202589766    -0.833563057646    -0.771199711954
    H            3.774975116543    -1.002808186146     0.971387039791
    C            1.218285780348    -0.389457603190    -0.017771927263
    H            2.453692916624     1.229831954727    -0.662652039303
    H            2.357569107287     1.069454693592     1.070972419969
    N            0.002853410949     0.399555552827    -0.084873226344
    H            1.312031629896    -0.943682383265    -0.948037099827
    H            1.193262058577    -1.125880328907     0.791565354137
    C           -1.214710636221    -0.385909798939    -0.028940244407
    H           -0.001961039153     1.062407664419     0.667528499734
    C           -2.450371644450     0.502739167681    -0.126184934707
    H           -1.205010060217    -1.079325907588    -0.865878824601
    H           -1.272045970562    -0.997349940950     0.877637010235
    C           -3.755034306704    -0.292167090806    -0.095941170330
    H           -2.386930935482     1.084481769329    -1.040406041380
    H           -2.444344202570     1.216460097295     0.696089348380
    H           -3.807100752705    -0.992755966703    -0.924585079003
    H           -4.615174564676     0.365822885165    -0.166677222335
    H           -3.850196164749    -0.861622835073     0.824364640266

  Mulliken Charges: (a.u.)
   Center  Symbol    Alpha    Beta     Spin     Total
       1     H     0.41764  0.41764  0.00000  0.16472
       2     C     3.24278  3.24278  0.00000 -0.48557
       3     C     3.15949  3.15949  0.00000 -0.31898
       4     H     0.42020  0.42020  0.00000  0.15961
       5     H     0.42140  0.42140  0.00000  0.15721
       6     C     3.04403  3.04403  0.00000 -0.08805
       7     H     0.41278  0.41278  0.00000  0.17443
       8     H     0.42668  0.42668  0.00000  0.14664
       9     N     3.85790  3.85790  0.00000 -0.71580
      10     H     0.42148  0.42148  0.00000  0.15704
      11     H     0.43605  0.43605  0.00000  0.12790
      12     C     3.04784  3.04784  0.00000 -0.09568
      13     H     0.33558  0.33558  0.00000  0.32884
      14     C     3.15511  3.15511  0.00000 -0.31022
      15     H     0.42181  0.42181  0.00000  0.15638
      16     H     0.43602  0.43602  0.00000  0.12796
      17     C     3.24328  3.24328  0.00000 -0.48655
      18     H     0.41295  0.41295  0.00000  0.17409
      19     H     0.42674  0.42674  0.00000  0.14653
      20     H     0.42071  0.42071  0.00000  0.15857
      21     H     0.41776  0.41776  0.00000  0.16448
      22     H     0.42177  0.42177  0.00000  0.15647

   Total alpha = 29.00000, Total beta = 29.00000, Total charge =  0.00000
