                              Psi4 1.0.54 Driver

  ==> Input File <==

--------------------------------------------------------------------------
set {
	reference rhf
	basis cc-pvtz
}

set_num_threads( 4 )
memory 2 gb

molecule MOL {
0 1

O	 -2.081319	 -0.951530	 -0.502732
N	 -1.613558	 0.006676	 0.014756
C	 -0.329345	 -0.171618	 0.743966
O	 -2.068523	 1.100482	 -0.024385
C	 0.110632	 1.161022	 1.336907
H	 0.376975	 -0.540194	 0.018926
H	 -0.519121	 -0.907144	 1.507653
C	 1.426952	 1.023810	 2.097592
H	 0.218572	 1.883794	 0.536590
H	 -0.665171	 1.523793	 2.001185
C	 1.886593	 2.343197	 2.707860
H	 2.194273	 0.649111	 1.426581
H	 1.314410	 0.282144	 2.882877
H	 2.039987	 3.095450	 1.942168
H	 1.152493	 2.726856	 3.407588
H	 2.820511	 2.218094	 3.242004

	symmetry c1
}
set optking {
	frozen_dihedral = ("
		5 3 2 1
	")
}

ee,wfn = optimize('scf', return_wfn=True)
oeprop( wfn, 'DIPOLE', 'QUADRUPOLE', 'MULLIKEN_CHARGES')
f=open( 'psi4out.xyz', 'w' )
f.write( "16  " )
f.write( str(ee) + "\n" )
f.write( MOL.save_string_xyz() )
f.close()
--------------------------------------------------------------------------

    Molecular point group: c1
  Charge       = 0
  Multiplicity = 1
  Basis Set: CC-PVTZ
  Basis Set:
  @DF-RHF Final Energy:  -360.90630504019094
    Total Energy =                       -360.9063050401907731
    Molecular point group: c1
  Basis Set: CC-PVTZ
  Basis Set:
  Basis Set: CC-PVTZ
  Basis Set:
  @DF-RHF Final Energy:  -360.68456392377936
    Total Energy =                       -360.6845639237790238
  Basis Set: CC-PVTZ
  Basis Set:
  Basis Set: CC-PVTZ
  Basis Set:
  @DF-RHF Final Energy:  -360.82966806272935
    Total Energy =                       -360.8296680627294108
  Basis Set: CC-PVTZ
  Basis Set:
  Basis Set: CC-PVTZ
  Basis Set:
  @DF-RHF Final Energy:  -360.90039405570116
    Total Energy =                       -360.9003940557012129
  Basis Set: CC-PVTZ
  Basis Set:
  @DF-RHF Final Energy:  -360.90632534655373
    Total Energy =                       -360.9063253465540129
  @DF-RHF Final Energy:  -360.90201890919872
    Total Energy =                       -360.9020189091985458
  @DF-RHF Final Energy:  -360.90630065322489
    Total Energy =                       -360.9063006532246618
  Basis Set: CC-PVTZ
  Basis Set:
  @DF-RHF Final Energy:  -360.90693438166522
    Total Energy =                       -360.9069343816652804
  Basis Set: CC-PVTZ
  Basis Set:
  Basis Set: CC-PVTZ
  Basis Set:
  @DF-RHF Final Energy:  -360.90839541301477
    Total Energy =                       -360.9083954130148868
  Basis Set: CC-PVTZ
  Basis Set:
  Basis Set: CC-PVTZ
  Basis Set:
  @DF-RHF Final Energy:  -360.90842777921222
    Total Energy =                       -360.9084277792122180
  Basis Set: CC-PVTZ
  Basis Set:
  Charge       = 0
  Multiplicity = 1
  Basis Set: CC-PVTZ
  Basis Set:

    Orbital Energies (a.u.)
    -----------------------

    Doubly Occupied:

       1A    -20.593414     2A    -20.586510     3A    -15.837918
       4A    -11.298224     5A    -11.243372     6A    -11.239696
       7A    -11.224195     8A     -1.636621     9A     -1.420797
      10A     -1.133796    11A     -1.058414    12A     -0.948771
      13A     -0.843452    14A     -0.820894    15A     -0.758578
      16A     -0.753411    17A     -0.730629    18A     -0.666378
      19A     -0.615274    20A     -0.602320    21A     -0.565481
      22A     -0.533860    23A     -0.524673    24A     -0.501896
      25A     -0.494041    26A     -0.487165    27A     -0.468937
      28A     -0.452704

  @DF-RHF Final Energy:  -360.90842876456657

   => Energetics <=

    Nuclear Repulsion Energy =            312.4734139042121797
    One-Electron Energy =               -1110.6808478703655965
    Two-Electron Energy =                 437.2990052015866809
    DFT Exchange-Correlation Energy =       0.0000000000000000
    Empirical Dispersion Energy =           0.0000000000000000
    PCM Polarization Energy =               0.0000000000000000
    EFP Energy =                            0.0000000000000000
    Total Energy =                       -360.9084287645667359
    Molecular point group: c1
  Basis Set: CC-PVTZ
  Basis Set:

  -Total Gradient:
     Atom            X                  Y                   Z
    ------   -----------------  -----------------  -----------------
       1        0.000160127045    -0.000090297313     0.000092341927
       2       -0.000421365550     0.000073382793    -0.000291919699
       3        0.000038684034    -0.000045947676     0.000026866325
       4        0.000258757078    -0.000002291540     0.000165018428
       5       -0.000077738658     0.000067323616     0.000003829789
       6        0.000009843786    -0.000035857945    -0.000035447409
       7       -0.000018878147    -0.000018685222     0.000000880233
       8        0.000053785384    -0.000033115254     0.000015075760
       9       -0.000010059814     0.000007924964    -0.000003597956
      10       -0.000026621623     0.000004364086     0.000002042434
      11       -0.000035605418     0.000049655474    -0.000017614330
      12        0.000031970894    -0.000011396523    -0.000007526813
      13        0.000004399126    -0.000010511650     0.000018134377
      14       -0.000006085030     0.000015601251    -0.000009713460
      15       -0.000017995029     0.000008687948     0.000008366736
      16        0.000056781922     0.000021162988     0.000033263659

  **** Optimization is complete! (in 11 steps) ****
    Final optimized geometry and variables:
    Molecular point group: c1

    Geometry (in Angstrom), charge = 0, multiplicity = 1:

    O           -0.712127671102    -2.382265260124    -0.994198541508
    N           -0.788385075528    -1.226785376030    -0.738565038614
    C            0.360756698115    -0.653366333594     0.026846257405
    O           -1.685776848359    -0.517086011051    -1.038682159931
    C            0.225688047838     0.823328073748     0.333321179040
    H            1.225115712995    -0.875991798041    -0.580829462531
    H            0.418807145515    -1.260586178995     0.917799014749
    C            1.438614159460     1.327852014948     1.114168216280
    H            0.122677698934     1.377705665064    -0.590719582791
    H           -0.679253026055     0.994572684067     0.902178983698
    C            1.341892037116     2.813827439670     1.441892801396
    H            2.343009017622     1.143701216172     0.541074100165
    H            1.539542372894     0.761733808101     2.035888968230
    H            1.273981292794     3.409417961671     0.538312739576
    H            0.464974096236     3.024698787515     2.043857904159
    H            2.212020855955     3.146969202297     1.994578028465

  Mulliken Charges: (a.u.)
   Center  Symbol    Alpha    Beta     Spin     Total
       1     O     4.17527  4.17527  0.00000 -0.35054
       2     N     3.27152  3.27152  0.00000  0.45695
       3     C     3.05251  3.05251  0.00000 -0.10502
       4     O     4.16854  4.16854  0.00000 -0.33707
       5     C     3.09272  3.09272  0.00000 -0.18543
       6     H     0.43243  0.43243  0.00000  0.13514
       7     H     0.43241  0.43241  0.00000  0.13517
       8     C     3.09429  3.09429  0.00000 -0.18858
       9     H     0.43949  0.43949  0.00000  0.12103
      10     H     0.43949  0.43949  0.00000  0.12103
      11     C     3.14808  3.14808  0.00000 -0.29617
      12     H     0.45184  0.45184  0.00000  0.09632
      13     H     0.45182  0.45182  0.00000  0.09636
      14     H     0.45198  0.45198  0.00000  0.09604
      15     H     0.45198  0.45198  0.00000  0.09604
      16     H     0.44563  0.44563  0.00000  0.10874

   Total alpha = 28.00000, Total beta = 28.00000, Total charge =  0.00000

*** Psi4 exiting successfully. Buy a developer a beer!
