                              Psi4 1.0.54 Driver

  ==> Input File <==

--------------------------------------------------------------------------
set {
	reference rhf
	basis cc-pvtz
}

set_num_threads( 4 )
memory 2 gb

molecule MOL {
0 1

H	 -2.149496	 -2.244167	 0.000000
O	 -2.454378	 -1.354528	 0.000000
C	 -1.430628	 -0.482077	 0.000000
C	 -1.694387	 0.813216	 -0.421091
C	 -0.157283	 -0.831264	 0.397343
H	 -2.690755	 1.064817	 -0.726012
C	 -0.684696	 1.748048	 -0.441691
H	 0.060698	 -1.829673	 0.725385
C	 0.850105	 0.123767	 0.370604
H	 -0.896997	 2.747242	 -0.768609
C	 0.599413	 1.415541	 -0.046427
C	 2.179451	 -0.250250	 0.788047
H	 1.387080	 2.141027	 -0.061449
N	 3.217796	 -0.546114	 1.115140

	symmetry c1
}
set optking {
	frozen_dihedral = ("
		5 3 2 1
	")
}

ee,wfn = optimize('scf', return_wfn=True)
oeprop( wfn, 'DIPOLE', 'QUADRUPOLE', 'MULLIKEN_CHARGES')
f=open( 'psi4out.xyz', 'w' )
f.write( "14  " )
f.write( str(ee) + "\n" )
f.write( MOL.save_string_xyz() )
f.close()
--------------------------------------------------------------------------

    Molecular point group: c1
  Charge       = 0
  Multiplicity = 1
  Basis Set: CC-PVTZ
  Basis Set:
  @DF-RHF Final Energy:  -397.43239601755550
    Total Energy =                       -397.4323960175554475
    Molecular point group: c1
  Basis Set: CC-PVTZ
  Basis Set:
  Basis Set: CC-PVTZ
  Basis Set:
  @DF-RHF Final Energy:  -397.43242153973301
    Total Energy =                       -397.4324215397330136
  Basis Set: CC-PVTZ
  Basis Set:
  Basis Set: CC-PVTZ
  Basis Set:
  @DF-RHF Final Energy:  -397.43247123959520
    Total Energy =                       -397.4324712395952020
  Basis Set: CC-PVTZ
  Basis Set:
  Charge       = 0
  Multiplicity = 1
  Basis Set: CC-PVTZ
  Basis Set:

    Orbital Energies (a.u.)
    -----------------------

    Doubly Occupied:

       1A    -20.605627     2A    -15.565735     3A    -11.324177
       4A    -11.292912     5A    -11.269198     6A    -11.261187
       7A    -11.260299     8A    -11.256493     9A    -11.252115
      10A     -1.437625    11A     -1.238706    12A     -1.187062
      13A     -1.067028    14A     -1.042617    15A     -0.899352
      16A     -0.871570    17A     -0.783081    18A     -0.730117
      19A     -0.702650    20A     -0.669831    21A     -0.630147
      22A     -0.624724    23A     -0.591185    24A     -0.566160
      25A     -0.553960    26A     -0.546128    27A     -0.528086
      28A     -0.480251    29A     -0.479488    30A     -0.368069
      31A     -0.343085

  @DF-RHF Final Energy:  -397.43247161252759

   => Energetics <=

    Nuclear Repulsion Energy =            380.4893548985961615
    One-Electron Energy =               -1292.9863197091508482
    Two-Electron Energy =                 515.0644931980270940
    DFT Exchange-Correlation Energy =       0.0000000000000000
    Empirical Dispersion Energy =           0.0000000000000000
    PCM Polarization Energy =               0.0000000000000000
    EFP Energy =                            0.0000000000000000
    Total Energy =                       -397.4324716125275927
    Molecular point group: c1
  Basis Set: CC-PVTZ
  Basis Set:

  -Total Gradient:
     Atom            X                  Y                   Z
    ------   -----------------  -----------------  -----------------
       1        0.000009500769    -0.000026085147    -0.001704780707
       2       -0.000163290929     0.000283963682     0.002802922203
       3        0.000541263929    -0.000720734243    -0.002258813662
       4        0.000053423740     0.000147209942    -0.000013559216
       5       -0.000424326492     0.000319580316     0.001150887814
       6       -0.000005811074    -0.000012048919    -0.000006872331
       7       -0.000162066177    -0.000031964150     0.000002014069
       8        0.000010516921     0.000003182001     0.000000123959
       9        0.000020749494     0.000175949472     0.000039375268
      10        0.000004740946    -0.000000648782     0.000004564847
      11        0.000118652139    -0.000129029989    -0.000007166865
      12       -0.000000088054    -0.000018816167    -0.000019386196
      13       -0.000005667363     0.000005623491     0.000000711060
      14        0.000002402143     0.000003818494     0.000009979754

  **** Optimization is complete! (in 4 steps) ****
    Final optimized geometry and variables:
    Molecular point group: c1

    Geometry (in Angstrom), charge = 0, multiplicity = 1:

    H           -2.129442383298    -2.270582219730    -0.165011230416
    O           -2.433213800568    -1.380674509034    -0.184948167619
    C           -1.406167643879    -0.509557185217    -0.203315583896
    C           -1.671537704838     0.787662358153    -0.614490004579
    C           -0.135188841137    -0.856998145174     0.203817347378
    H           -2.667362925091     1.039296950780    -0.921261039316
    C           -0.663830291411     1.725852162037    -0.623885046593
    H            0.078799745827    -1.853855287155     0.538701014021
    C            0.871870679709     0.097636052408     0.179944415252
    H           -0.877065417834     2.726962884016    -0.944206319677
    C            0.619758971077     1.391814893239    -0.230678146130
    C            2.200680301103    -0.276094038486     0.599064186088
    H            1.406744546902     2.118228440096    -0.240773314944
    N            3.238797534771    -0.572291876275     0.926857366607

  Mulliken Charges: (a.u.)
   Center  Symbol    Alpha    Beta     Spin     Total
       1     H     0.38422  0.38422  0.00000  0.23155
       2     O     4.17083  4.17083  0.00000 -0.34165
       3     C     2.84510  2.84510  0.00000  0.30980
       4     C     3.10612  3.10612  0.00000 -0.21223
       5     C     3.14318  3.14318  0.00000 -0.28635
       6     H     0.41355  0.41355  0.00000  0.17290
       7     C     3.05089  3.05089  0.00000 -0.10178
       8     H     0.42133  0.42133  0.00000  0.15735
       9     C     2.92905  2.92905  0.00000  0.14190
      10     H     0.41671  0.41671  0.00000  0.16657
      11     C     3.10431  3.10431  0.00000 -0.20863
      12     C     3.02570  3.02570  0.00000 -0.05141
      13     H     0.41432  0.41432  0.00000  0.17137
      14     N     3.57469  3.57469  0.00000 -0.14938

   Total alpha = 31.00000, Total beta = 31.00000, Total charge =  0.00000

*** Psi4 exiting successfully. Buy a developer a beer!
