  ==> Input File <==

--------------------------------------------------------------------------
set {
	reference rhf
	basis 6-31G*
}

set_num_threads( 4 )
memory 2 gb

molecule MOL {
0 1

O	 -2.879936	 1.189972	 -0.496190
C	 -2.668563	 0.129746	 -0.000350
C	 -3.719645	 -0.696522	 0.695190
O	 -1.481751	 -0.454642	 0.000584
H	 -4.521545	 -0.899944	 -0.004409
H	 -3.317540	 -1.624948	 1.073046
H	 -4.135242	 -0.116240	 1.510318
C	 -0.334255	 0.388708	 0.000906
C	 0.891947	 -0.504646	 0.000751
H	 -0.365390	 1.025305	 -0.873475
H	 -0.365484	 1.024911	 0.875569
C	 2.191998	 0.301789	 0.000897
H	 0.855148	 -1.151283	 -0.871571
H	 0.855132	 -1.151660	 0.872805
C	 3.441114	 -0.581407	 0.000108
H	 2.215074	 0.954890	 -0.869742
H	 2.215465	 0.953923	 0.872248
C	 4.739576	 0.224112	 -0.001102
H	 3.419457	 -1.233487	 -0.870178
H	 3.420834	 -1.233096	 0.870717
H	 4.804918	 0.861552	 -0.878265
H	 5.606527	 -0.429058	 -0.001824
H	 4.806469	 0.861674	 0.875853

	symmetry c1
}
set optking {
	frozen_dihedral = ("
		1 2 4 8
	")
}

ee = optimize('scf')
oeprop('DIPOLE', 'QUADRUPOLE', 'MULLIKEN_CHARGES')
f=open( 'psi4out.xyz', 'w' )
f.write( "23  " )
f.write( str(ee) + "\n" )
f.write( MOL.save_string_xyz() )
f.close()
--------------------------------------------------------------------------

    Molecular point group: c1
  Charge       = 0
  Multiplicity = 1
  Basis Set: 6-31G*
  Basis Set:
  @DF-RHF Final Energy:  -422.97392079877386
    Total Energy =                       -422.9739207987744294
    Molecular point group: c1
  Basis Set: 6-31G*
  Basis Set:
  Basis Set: 6-31G*
  Basis Set:
  @DF-RHF Final Energy:  -422.97075704995115
    Total Energy =                       -422.9707570499513167
  Basis Set: 6-31G*
  Basis Set:
  Basis Set: 6-31G*
  Basis Set:
  @DF-RHF Final Energy:  -422.97440021489513
    Total Energy =                       -422.9744002148953541
  Basis Set: 6-31G*
  Basis Set:
  Basis Set: 6-31G*
  Basis Set:
  @DF-RHF Final Energy:  -422.97446415342375
    Total Energy =                       -422.9744641534239236
  Basis Set: 6-31G*
  Basis Set:
  @DF-RHF Final Energy:  -422.97448288595956
    Total Energy =                       -422.9744828859602421
  @DF-RHF Final Energy:  -422.97452313853455
    Total Energy =                       -422.9745231385350053
  @DF-RHF Final Energy:  -422.97465305178736
    Total Energy =                       -422.9746530517872998
  @DF-RHF Final Energy:  -422.97484148710805
    Total Energy =                       -422.9748414871085060
  @DF-RHF Final Energy:  -422.97417529624852
    Total Energy =                       -422.9741752962490864
  @DF-RHF Final Energy:  -422.97529033071595
    Total Energy =                       -422.9752903307154384
  @DF-RHF Final Energy:  -422.97556800118480
    Total Energy =                       -422.9755680011851382
  @DF-RHF Final Energy:  -422.97564083758772
    Total Energy =                       -422.9756408375878891
  @DF-RHF Final Energy:  -422.97566077863041
    Total Energy =                       -422.9756607786305267
  Basis Set: 6-31G*
  Basis Set:
  @DF-RHF Final Energy:  -422.97568166182651
    Total Energy =                       -422.9756816618260018
  Basis Set: 6-31G*
  Basis Set:
  Basis Set: 6-31G*
  Basis Set:
  @DF-RHF Final Energy:  -422.97563534357329
    Total Energy =                       -422.9756353435737992
  Basis Set: 6-31G*
  Basis Set:
  Basis Set: 6-31G*
  Basis Set:
  @DF-RHF Final Energy:  -422.97568154753799
    Total Energy =                       -422.9756815475383291
  Basis Set: 6-31G*
  Basis Set:
  Charge       = 0
  Multiplicity = 1
  Basis Set: 6-31G*
  Basis Set:

    Orbital Energies (a.u.)
    -----------------------

    Doubly Occupied:

       1A    -20.596444     2A    -20.545716     3A    -11.374363
       4A    -11.283627     5A    -11.233010     6A    -11.224982
       7A    -11.224386     8A    -11.222163     9A    -11.213371
      10A     -1.464274    11A     -1.362176    12A     -1.094502
      13A     -1.042060    14A     -1.004429    15A     -0.930811
      16A     -0.841376    17A     -0.803131    18A     -0.773925
      19A     -0.693141    20A     -0.684840    21A     -0.665257
      22A     -0.647217    23A     -0.607812    24A     -0.588931
      25A     -0.583481    26A     -0.566597    27A     -0.559274
      28A     -0.540910    29A     -0.520440    30A     -0.504675
      31A     -0.493260    32A     -0.478518    33A     -0.471799
      34A     -0.468104    35A     -0.449540    36A     -0.435252

  @DF-RHF Final Energy:  -422.97568193188630

   => Energetics <=

    Nuclear Repulsion Energy =            449.3634646968642414
    One-Electron Energy =               -1466.2907067129617644
    Two-Electron Energy =                 593.9515600842112235
    DFT Exchange-Correlation Energy =       0.0000000000000000
    Empirical Dispersion Energy =           0.0000000000000000
    PCM Polarization Energy =               0.0000000000000000
    EFP Energy =                            0.0000000000000000
    Total Energy =                       -422.9756819318863563
    Molecular point group: c1
  Basis Set: 6-31G*
  Basis Set:

  -Total Gradient:
     Atom            X                  Y                   Z
    ------   -----------------  -----------------  -----------------
       1       -0.002238735498    -0.004049929162    -0.007400072057
       2        0.003478193987     0.006137381126     0.014470977618
       3        0.000020063204    -0.000046968946    -0.000031750927
       4       -0.001580871726    -0.002149466727    -0.013831664443
       5       -0.000001419776     0.000006859026    -0.000006101776
       6        0.000003838272    -0.000001969841     0.000002660768
       7       -0.000001675825     0.000004757437     0.000000935301
       8        0.000314184793     0.000093007292     0.006799488984
       9        0.000004007622     0.000006694636     0.000007605514
      10        0.000006043775    -0.000004336129     0.000001531045
      11       -0.000003324154     0.000005348615     0.000006724811
      12        0.000000343537    -0.000003416714    -0.000012013911
      13        0.000002893710     0.000004298599    -0.000001711794
      14       -0.000006525239    -0.000002909455    -0.000001298890
      15        0.000001105629     0.000000134697    -0.000016429936
      16        0.000008880157     0.000003220608    -0.000004260895
      17       -0.000007829044    -0.000004378773    -0.000003216671
      18        0.000000492127     0.000000989610     0.000016805234
      19       -0.000004296663    -0.000005017645    -0.000000166092
      20        0.000004396469     0.000005339925    -0.000001099468
      21       -0.000005994401    -0.000004601323     0.000001729744
      22        0.000000582807     0.000000201542     0.000000402754
      23        0.000005646253     0.000004761604     0.000000925089

  **** Optimization is complete! (in 17 steps) ****
    Final optimized geometry and variables:
    Molecular point group: c1

    Geometry (in Angstrom), charge = 0, multiplicity = 1:

    O           -2.906241884951     1.187598554934    -0.512109546211
    C           -2.676937208952     0.136759408645    -0.009686196210
    C           -3.698156217522    -0.731189228110     0.673727232616
    O           -1.485771943664    -0.454909080226    -0.057682726106
    H           -4.676073869546    -0.280985173686     0.589817615353
    H           -3.699499678470    -1.717524479320     0.224909366548
    H           -3.433540837083    -0.848136809728     1.718982279289
    C           -0.335861974828     0.382788972526    -0.127675715550
    C            0.888437734602    -0.503119912078     0.003870349251
    H           -0.339072493491     0.919124510894    -1.066789088369
    H           -0.385633668694     1.111072884660     0.673185342354
    C            2.190273152931     0.297967189050    -0.058281443928
    H            0.868727340034    -1.244161700442    -0.790286090944
    H            0.829291208286    -1.047148182379     0.942421031482
    C            3.436510531171    -0.579563505081     0.072761892789
    H            2.235610030804     0.845935936393    -0.997717082992
    H            2.195523994767     1.046511786680     0.732323665929
    C            4.736872263759     0.220512568815     0.011059047970
    H            3.433955502703    -1.327013431627    -0.717359805162
    H            3.393221200038    -1.127216351038     1.011541820563
    H            4.825354849050     0.753056758070    -0.931558315563
    H            5.601674699243    -0.428490555518     0.106479488727
    H            4.784352845641     0.954508764658     0.810478636299

  Mulliken Charges: (a.u.)
   Center  Symbol    Alpha    Beta     Spin     Total
       1     O     4.27750  4.27750  0.00000 -0.55501
       2     C     2.61934  2.61934  0.00000  0.76132
       3     C     3.28255  3.28255  0.00000 -0.56509
       4     O     4.31414  4.31414  0.00000 -0.62829
       5     H     0.39746  0.39746  0.00000  0.20508
       6     H     0.39905  0.39905  0.00000  0.20190
       7     H     0.40295  0.40295  0.00000  0.19411
       8     C     2.99474  2.99474  0.00000  0.01052
       9     C     3.16437  3.16437  0.00000 -0.32875
      10     H     0.40758  0.40758  0.00000  0.18484
      11     H     0.41702  0.41702  0.00000  0.16596
      12     C     3.16024  3.16024  0.00000 -0.32049
      13     H     0.41264  0.41264  0.00000  0.17473
      14     H     0.41522  0.41522  0.00000  0.16956
      15     C     3.15145  3.15145  0.00000 -0.30289
      16     H     0.42018  0.42018  0.00000  0.15963
      17     H     0.42155  0.42155  0.00000  0.15690
      18     C     3.23989  3.23989  0.00000 -0.47978
      19     H     0.42099  0.42099  0.00000  0.15802
      20     H     0.42157  0.42157  0.00000  0.15687
      21     H     0.42064  0.42064  0.00000  0.15872
      22     H     0.41789  0.41789  0.00000  0.16422
      23     H     0.42105  0.42105  0.00000  0.15791

   Total alpha = 36.00000, Total beta = 36.00000, Total charge =  0.00000
