  ==> Input File <==

--------------------------------------------------------------------------
set {
	reference rhf
	basis 6-31G*
}

set_num_threads( 4 )
memory 2 gb

molecule MOL {
0 1

H	 -0.520728	 1.360977	 -0.913428
O	 0.055946	 1.300438	 -0.164479
C	 0.004957	 -0.004114	 0.366649
C	 1.201664	 -0.828089	 -0.095740
C	 -1.317755	 -0.601827	 -0.081511
H	 0.013527	 0.048298	 1.454924
H	 1.216388	 -0.895289	 -1.178704
H	 2.135132	 -0.372895	 0.226467
H	 1.166770	 -1.832878	 0.313827
H	 -1.355732	 -0.658248	 -1.164429
H	 -2.141614	 0.017037	 0.254547
H	 -1.447303	 -1.600817	 0.322594

	symmetry c1
}
set optking {
	frozen_dihedral = ("
		1 2 3 4
	")
}

ee = optimize('scf')
oeprop('DIPOLE', 'QUADRUPOLE', 'MULLIKEN_CHARGES')
f=open( 'psi4out.xyz', 'w' )
f.write( "12  " )
f.write( str(ee) + "\n" )
f.write( MOL.save_string_xyz() )
f.close()
--------------------------------------------------------------------------

    Molecular point group: c1
  Charge       = 0
  Multiplicity = 1
  Basis Set: 6-31G*
  Basis Set:
  @DF-RHF Final Energy:  -193.11130474131792
    Total Energy =                       -193.1113047413177526
    Molecular point group: c1
  Basis Set: 6-31G*
  Basis Set:
  Basis Set: 6-31G*
  Basis Set:
  @DF-RHF Final Energy:  -193.11296878315065
    Total Energy =                       -193.1129687831507624
  Basis Set: 6-31G*
  Basis Set:
  Basis Set: 6-31G*
  Basis Set:
  @DF-RHF Final Energy:  -193.11341238023724
    Total Energy =                       -193.1134123802372073
  Basis Set: 6-31G*
  Basis Set:
  Basis Set: 6-31G*
  Basis Set:
  @DF-RHF Final Energy:  -193.11341748410942
    Total Energy =                       -193.1134174841093625
  Basis Set: 6-31G*
  Basis Set:
  Charge       = 0
  Multiplicity = 1
  Basis Set: 6-31G*
  Basis Set:

    Orbital Energies (a.u.)
    -----------------------

    Doubly Occupied:

       1A    -20.549389     2A    -11.275418     3A    -11.219410
       4A    -11.207230     5A     -1.358818     6A     -1.042359
       7A     -0.942783     8A     -0.815797     9A     -0.661051
      10A     -0.648783    11A     -0.605312    12A     -0.564729
      13A     -0.546457    14A     -0.515370    15A     -0.513224
      16A     -0.465699    17A     -0.428305

  @DF-RHF Final Energy:  -193.11341799172075

   => Energetics <=

    Nuclear Repulsion Energy =            135.3388930915869253
    One-Electron Energy =                -530.1843579487926945
    Two-Electron Energy =                 201.7320468654850458
    DFT Exchange-Correlation Energy =       0.0000000000000000
    Empirical Dispersion Energy =           0.0000000000000000
    PCM Polarization Energy =               0.0000000000000000
    EFP Energy =                            0.0000000000000000
    Total Energy =                       -193.1134179917207518
    Molecular point group: c1
  Basis Set: 6-31G*
  Basis Set:

  -Total Gradient:
     Atom            X                  Y                   Z
    ------   -----------------  -----------------  -----------------
       1       -0.001478319487     0.000481620317     0.001106432823
       2        0.002046951013    -0.000534854425    -0.000965863713
       3       -0.001153346582    -0.000244232191    -0.001185487108
       4        0.000573290250     0.000316274831     0.001016807560
       5       -0.000022535844     0.000029312771    -0.000016004175
       6        0.000000549037    -0.000036051573     0.000001105735
       7       -0.000023576301     0.000007336525     0.000018521984
       8        0.000029488495    -0.000004860948    -0.000013882782
       9        0.000011878393     0.000002598493     0.000005643251
      10        0.000012191591     0.000018947104     0.000034273384
      11        0.000008508436    -0.000007854796    -0.000019896595
      12       -0.000005079002    -0.000028236112     0.000018349636

  **** Optimization is complete! (in 5 steps) ****
    Final optimized geometry and variables:
    Molecular point group: c1

    Geometry (in Angstrom), charge = 0, multiplicity = 1:

    H           -0.404744238784     1.445110556242    -0.885842392316
    O            0.125394203298     1.326022990854    -0.110925345911
    C            0.006370001930    -0.000557362552     0.356715356405
    C            1.211395783956    -0.818351113708    -0.091086381315
    C           -1.318279921672    -0.622356769483    -0.067784084878
    H            0.022194697126     0.070233610807     1.439060755875
    H            1.229618253277    -0.915159292721    -1.173372761895
    H            2.127403494199    -0.327999450565     0.217549893897
    H            1.191507024810    -1.815369039609     0.339635596116
    H           -1.373426380510    -0.711411801103    -1.151099245976
    H           -2.151138013549    -0.012968925478     0.268309905567
    H           -1.434707244153    -1.616484424789     0.350518771179

  Mulliken Charges: (a.u.)
   Center  Symbol    Alpha    Beta     Spin     Total
       1     H     0.28171  0.28171  0.00000  0.43657
       2     O     4.37669  4.37669  0.00000 -0.75338
       3     C     2.90910  2.90910  0.00000  0.18181
       4     C     3.23969  3.23969  0.00000 -0.47938
       5     C     3.26243  3.26243  0.00000 -0.52487
       6     H     0.41920  0.41920  0.00000  0.16161
       7     H     0.42470  0.42470  0.00000  0.15059
       8     H     0.41075  0.41075  0.00000  0.17850
       9     H     0.42493  0.42493  0.00000  0.15015
      10     H     0.42387  0.42387  0.00000  0.15226
      11     H     0.41209  0.41209  0.00000  0.17582
      12     H     0.41484  0.41484  0.00000  0.17032

   Total alpha = 17.00000, Total beta = 17.00000, Total charge =  0.00000
