                              Psi4 1.0.54 Driver

  ==> Input File <==

--------------------------------------------------------------------------
set {
	reference rhf
	basis cc-pvtz
}

set_num_threads( 4 )
memory 2 gb

molecule MOL {
0 1

H	 0.898007	 0.793879	 -3.906776
O	 1.783131	 0.492112	 -3.992343
C	 2.440536	 0.558114	 -2.754306
C	 1.981158	 -0.503750	 -1.766327
H	 3.491501	 0.420936	 -2.970256
H	 2.328106	 1.548480	 -2.317286
C	 0.528647	 -0.357299	 -1.318430
H	 2.128447	 -1.480989	 -2.216290
H	 2.632300	 -0.455096	 -0.896819
C	 0.113298	 -1.420414	 -0.302504
H	 -0.121252	 -0.412540	 -2.185369
H	 0.384276	 0.629316	 -0.881354
C	 -1.311023	 -1.277304	 0.237018
H	 0.230901	 -2.405198	 -0.748146
H	 0.803156	 -1.384389	 0.536107
C	 -2.041121	 -0.006551	 -0.194127
H	 -1.888548	 -2.136293	 -0.093331
H	 -1.289731	 -1.328757	 1.323321
C	 -3.489218	 0.042606	 0.286507
H	 -2.022185	 0.066287	 -1.279394
H	 -1.518764	 0.869305	 0.178730
C	 -4.219984	 1.311773	 -0.139038
H	 -4.022855	 -0.824300	 -0.093339
H	 -3.510372	 -0.038577	 1.370031
H	 -4.244251	 1.405725	 -1.219696
H	 -5.244345	 1.313233	 0.215630
H	 -3.732090	 2.196311	 0.257073

	symmetry c1
}
set optking {
	frozen_dihedral = ("
		14 10 13 16
	")
}

ee,wfn = optimize('scf', return_wfn=True)
oeprop( wfn, 'DIPOLE', 'QUADRUPOLE', 'MULLIKEN_CHARGES')
f=open( 'psi4out.xyz', 'w' )
f.write( "27  " )
f.write( str(ee) + "\n" )
f.write( MOL.save_string_xyz() )
f.close()
--------------------------------------------------------------------------

    Molecular point group: c1
  Charge       = 0
  Multiplicity = 1
  Basis Set: CC-PVTZ
  Basis Set:
  @DF-RHF Final Energy:  -388.41748314749123
    Total Energy =                       -388.4174831474912253
    Molecular point group: c1
  Basis Set: CC-PVTZ
  Basis Set:
  Basis Set: CC-PVTZ
  Basis Set:
  @DF-RHF Final Energy:  -388.34193310773435
    Total Energy =                       -388.3419331077338938
  Basis Set: CC-PVTZ
  Basis Set:
  Basis Set: CC-PVTZ
  Basis Set:
  @DF-RHF Final Energy:  -388.41204437338621
    Total Energy =                       -388.4120443733863794
  Basis Set: CC-PVTZ
  Basis Set:
  Basis Set: CC-PVTZ
  Basis Set:
  @DF-RHF Final Energy:  -388.41926215166802
    Total Energy =                       -388.4192621516684767
  Basis Set: CC-PVTZ
  Basis Set:
  @DF-RHF Final Energy:  -388.41958823708705
    Total Energy =                       -388.4195882370872823
  Basis Set: CC-PVTZ
  Basis Set:
  @DF-RHF Final Energy:  -388.41960444401440
    Total Energy =                       -388.4196044440145670
  Basis Set: CC-PVTZ
  Basis Set:
  Basis Set: CC-PVTZ
  Basis Set:
  @DF-RHF Final Energy:  -388.41960608259222
    Total Energy =                       -388.4196060825922814
  Basis Set: CC-PVTZ
  Basis Set:
  Basis Set: CC-PVTZ
  Basis Set:
  @DF-RHF Final Energy:  -388.41960778331918
    Total Energy =                       -388.4196077833196341
  Basis Set: CC-PVTZ
  Basis Set:
  Charge       = 0
  Multiplicity = 1
  Basis Set: CC-PVTZ
  Basis Set:

    Orbital Energies (a.u.)
    -----------------------

    Doubly Occupied:

       1A    -20.545165     2A    -11.264756     3A    -11.216565
       4A    -11.215028     5A    -11.214056     6A    -11.213522
       7A    -11.212877     8A    -11.212511     9A    -11.207779
      10A     -1.363067    11A     -1.093931    12A     -1.062571
      13A     -1.009887    14A     -0.949322    15A     -0.890565
      16A     -0.820887    17A     -0.807466    18A     -0.768871
      19A     -0.696283    20A     -0.659028    21A     -0.634388
      22A     -0.613841    23A     -0.605605    24A     -0.585858
      25A     -0.575107    26A     -0.553658    27A     -0.542839
      28A     -0.529933    29A     -0.506859    30A     -0.497422
      31A     -0.490001    32A     -0.475319    33A     -0.467560
      34A     -0.455124    35A     -0.446682    36A     -0.443170
      37A     -0.425891

  @DF-RHF Final Energy:  -388.41960761862271

   => Energetics <=

    Nuclear Repulsion Energy =            461.8436491558611010
    One-Electron Energy =               -1441.9797382730298523
    Two-Electron Energy =                 591.7164814985460453
    DFT Exchange-Correlation Energy =       0.0000000000000000
    Empirical Dispersion Energy =           0.0000000000000000
    PCM Polarization Energy =               0.0000000000000000
    EFP Energy =                            0.0000000000000000
    Total Energy =                       -388.4196076186226492
    Molecular point group: c1
  Basis Set: CC-PVTZ
  Basis Set:

  -Total Gradient:
     Atom            X                  Y                   Z
    ------   -----------------  -----------------  -----------------
       1        0.000010741783    -0.000005658410     0.000000788528
       2        0.000012766216     0.000004776709    -0.000006269475
       3       -0.000031526256    -0.000005117151     0.000010086622
       4        0.000008250934    -0.000022083969     0.000008677714
       5       -0.000019890797     0.000002427541     0.000003554964
       6       -0.000000010292    -0.000010700366    -0.000000141230
       7        0.000027785821     0.000069366000     0.000021072662
       8        0.000015125493     0.000000942996    -0.000006828838
       9       -0.000001755320    -0.000000972596    -0.000010254466
      10        0.000952758032    -0.001704770096     0.002108929430
      11       -0.000027090625     0.000006244741     0.000020878446
      12        0.000004511547    -0.000016894875    -0.000013353737
      13        0.001643247150     0.001538439817     0.001426542418
      14       -0.001305090368     0.001068507781    -0.002203010837
      15       -0.000008864871     0.000006836418    -0.000002226106
      16       -0.001314814993    -0.000859905067    -0.001347641297
      17       -0.000005551389    -0.000003706432     0.000017448036
      18        0.000023434911     0.000002946057    -0.000027748660
      19       -0.000014615594    -0.000031689903     0.000008588291
      20        0.000032488196    -0.000015425744    -0.000021913546
      21       -0.000008112633    -0.000004009574     0.000006889762
      22        0.000014675216    -0.000015302005    -0.000006946102
      23       -0.000010217038     0.000007396952     0.000016256975
      24       -0.000012216264     0.000010726993    -0.000000739233
      25        0.000005864841     0.000000482110     0.000007526386
      26        0.000016026326    -0.000014731713    -0.000009636012
      27       -0.000007920026    -0.000008126216    -0.000000530691

  **** Optimization is complete! (in 9 steps) ****
    Final optimized geometry and variables:
    Molecular point group: c1

    Geometry (in Angstrom), charge = 0, multiplicity = 1:

    H            0.707988696270     0.464854246208    -3.173207311447
    O            1.428300500044    -0.063425030931    -3.462469688850
    C            2.423868823473    -0.109561518257    -2.474603966175
    C            2.044516712405    -0.957915260098    -1.270086211160
    H            3.296471886051    -0.531927436052    -2.954302146077
    H            2.687577060171     0.896646825236    -2.154746634309
    C            0.868905479160    -0.410117481638    -0.463538592208
    H            1.817963863201    -1.962857496695    -1.613172347007
    H            2.918083092929    -1.033679756840    -0.626909977256
    C            0.557214219921    -1.278855832014     0.757506712446
    H           -0.008282248429    -0.355695986687    -1.100492969075
    H            1.095078696480     0.606104928671    -0.154070569420
    C           -0.632347382371    -0.845745335917     1.654412805953
    H            0.363510498710    -2.281158816254     0.390437549147
    H            1.455720003558    -1.343866922508     1.362001756741
    C           -1.270898214665     0.515973604162     1.378030254597
    H           -1.414642717119    -1.594376825400     1.575792221378
    H           -0.312741556144    -0.868567516337     2.691028745044
    C           -2.428703614393     0.816158404678     2.326964629576
    H           -1.635641088047     0.556728673389     0.356655064384
    H           -0.529199583677     1.304490292747     1.470737347910
    C           -3.083478173672     2.168158450462     2.063982862397
    H           -3.175989287590     0.032036715306     2.241087769068
    H           -2.070862314061     0.783382345243     3.352361370222
    H           -3.483491885886     2.220423621577     1.056731837357
    H           -3.900350992835     2.349710185528     2.752966908142
    H           -2.369998068433     2.977719193542     2.177124807449

  Mulliken Charges: (a.u.)
   Center  Symbol    Alpha    Beta     Spin     Total
       1     H     0.39221  0.39221  0.00000  0.21558
       2     O     4.20576  4.20576  0.00000 -0.41151
       3     C     2.97983  2.97983  0.00000  0.04033
       4     C     3.08784  3.08784  0.00000 -0.17569
       5     H     0.44868  0.44868  0.00000  0.10263
       6     H     0.47002  0.47002  0.00000  0.05996
       7     C     3.10753  3.10753  0.00000 -0.21505
       8     H     0.45090  0.45090  0.00000  0.09819
       9     H     0.45616  0.45616  0.00000  0.08768
      10     C     3.09679  3.09679  0.00000 -0.19359
      11     H     0.45543  0.45543  0.00000  0.08914
      12     H     0.45050  0.45050  0.00000  0.09899
      13     C     3.09715  3.09715  0.00000 -0.19430
      14     H     0.44935  0.44935  0.00000  0.10129
      15     H     0.45089  0.45089  0.00000  0.09821
      16     C     3.08924  3.08924  0.00000 -0.17849
      17     H     0.45173  0.45173  0.00000  0.09653
      18     H     0.45016  0.45016  0.00000  0.09967
      19     C     3.08432  3.08432  0.00000 -0.16864
      20     H     0.45389  0.45389  0.00000  0.09222
      21     H     0.45383  0.45383  0.00000  0.09234
      22     C     3.15008  3.15008  0.00000 -0.30017
      23     H     0.45434  0.45434  0.00000  0.09131
      24     H     0.45411  0.45411  0.00000  0.09178
      25     H     0.45567  0.45567  0.00000  0.08866
      26     H     0.44804  0.44804  0.00000  0.10392
      27     H     0.45551  0.45551  0.00000  0.08897

   Total alpha = 37.00000, Total beta = 37.00000, Total charge =  0.00000

*** Psi4 exiting successfully. Buy a developer a beer!
