  ==> Input File <==

--------------------------------------------------------------------------
set {
	reference rhf
	basis 6-31G*
}

set_num_threads( 1 )
memory 2 gb

molecule MOL {
0 1

H	 1.644128	 -1.684638	 -0.309275
O	 2.016064	 -0.864478	 0.000222
C	 1.050492	 0.053836	 0.000068
C	 -0.318135	 -0.576402	 0.000164
O	 1.285279	 1.218255	 -0.000078
C	 -1.454360	 0.441875	 -0.000474
H	 -0.374042	 -1.230163	 -0.866135
H	 -0.374274	 -1.229227	 0.867154
C	 -2.826123	 -0.230780	 0.000056
H	 -1.357605	 1.085198	 -0.868380
H	 -1.357504	 1.086451	 0.866496
H	 -2.959731	 -0.858053	 -0.876869
H	 -3.619374	 0.509403	 -0.000080
H	 -2.959371	 -0.857318	 0.877556

	symmetry c1
}
set optking {
	frozen_dihedral = ("
		7 4 6 10,
		2 3 4 7
	")
}

ee = energy('scf')
oeprop('DIPOLE', 'QUADRUPOLE', 'MULLIKEN_CHARGES')
f=open( 'psi4out.xyz', 'w' )
f.write( "14  " )
f.write( str(ee) + "\n" )
f.write( MOL.save_string_xyz() )
f.close()
--------------------------------------------------------------------------

    Molecular point group: c1

    Geometry (in Angstrom), charge = 0, multiplicity = 1:

       Center              X                  Y                   Z               Mass
    ------------   -----------------  -----------------  -----------------  -----------------
           H          1.657977254701    -1.670075803759    -0.305732975780     1.007825032070
           O          2.029913254701    -0.849915803759     0.003764024220    15.994914619560
           C          1.064341254701     0.068398196241     0.003610024220    12.000000000000
           C         -0.304285745299    -0.561839803759     0.003706024220    12.000000000000
           O          1.299128254701     1.232817196241     0.003464024220    15.994914619560
           C         -1.440510745299     0.456437196241     0.003068024220    12.000000000000
           H         -0.360192745299    -1.215600803759    -0.862592975780     1.007825032070
           H         -0.360424745299    -1.214664803759     0.870696024220     1.007825032070
           C         -2.812273745299    -0.216217803759     0.003598024220    12.000000000000
           H         -1.343755745299     1.099760196241    -0.864837975780     1.007825032070
           H         -1.343654745299     1.101013196241     0.870038024220     1.007825032070
           H         -2.945881745299    -0.843490803759    -0.873326975780     1.007825032070
           H         -3.605524745299     0.523965196241     0.003462024220     1.007825032070
           H         -2.945521745299    -0.842755803759     0.881098024220     1.007825032070

  Charge       = 0
  Multiplicity = 1
  Basis Set: 6-31G*
  Basis Set:

    Orbital Energies (a.u.)
    -----------------------

    Doubly Occupied:

       1A    -20.614416     2A    -20.550796     3A    -11.381581
       4A    -11.253069     5A    -11.232514     6A    -11.222925
       7A     -1.471301     8A     -1.371255     9A     -1.090273
      10A     -0.981524    11A     -0.851732    12A     -0.819182
      13A     -0.721437    14A     -0.676016    15A     -0.661183
      16A     -0.623278    17A     -0.591648    18A     -0.584202
      19A     -0.553831    20A     -0.509604    21A     -0.497750
      22A     -0.490224    23A     -0.476527    24A     -0.441299

  @DF-RHF Final Energy:  -305.86687740780144

   => Energetics <=

    Nuclear Repulsion Energy =            240.4015932446172030
    One-Electron Energy =                -893.2018308847832486
    Two-Electron Energy =                 346.9333602323649757
    DFT Exchange-Correlation Energy =       0.0000000000000000
    Empirical Dispersion Energy =           0.0000000000000000
    PCM Polarization Energy =               0.0000000000000000
    EFP Energy =                            0.0000000000000000
    Total Energy =                       -305.8668774078010983

  Mulliken Charges: (a.u.)
   Center  Symbol    Alpha    Beta     Spin     Total
       1     H     0.26792  0.26792  0.00000  0.46415
       2     O     4.34903  4.34903  0.00000 -0.69806
       3     C     2.60491  2.60491  0.00000  0.79018
       4     C     3.23906  3.23906  0.00000 -0.47813
       5     O     4.26708  4.26708  0.00000 -0.53416
       6     C     3.15123  3.15123  0.00000 -0.30246
       7     H     0.40929  0.40929  0.00000  0.18143
       8     H     0.39893  0.39893  0.00000  0.20214
       9     C     3.24368  3.24368  0.00000 -0.48735
      10     H     0.40750  0.40750  0.00000  0.18499
      11     H     0.40629  0.40629  0.00000  0.18741
      12     H     0.42160  0.42160  0.00000  0.15680
      13     H     0.41263  0.41263  0.00000  0.17474
      14     H     0.42084  0.42084  0.00000  0.15831

   Total alpha = 24.00000, Total beta = 24.00000, Total charge = -0.00000
