  ==> Input File <==

--------------------------------------------------------------------------
set {
	reference rhf
	basis 6-31G*
}

set_num_threads( 4 )
memory 2 gb

molecule MOL {
0 1

O	 -2.666366	 -0.415245	 0.784775
C	 -2.105666	 -1.382785	 0.367744
C	 -0.871361	 -1.250670	 -0.507096
C	 -2.570982	 -2.780081	 0.711867
C	 0.373411	 -0.949540	 0.343200
H	 -1.044056	 -0.432754	 -1.198105
H	 -0.714981	 -2.155980	 -1.086738
C	 1.631333	 -0.777471	 -0.511575
H	 0.179168	 -0.053265	 0.921426
H	 0.533161	 -1.755922	 1.057326
C	 2.915987	 -0.544314	 0.291766
H	 1.484279	 0.050905	 -1.202149
H	 1.762746	 -1.666369	 -1.125122
C	 3.373361	 0.914346	 0.347591
H	 3.708709	 -1.142521	 -0.150311
H	 2.780642	 -0.921148	 1.303579
H	 3.506512	 1.320010	 -0.651625
H	 4.322697	 0.999599	 0.867103
H	 2.660624	 1.545032	 0.868198
H	 -2.929447	 -3.277134	 -0.185744
H	 -3.368469	 -2.735835	 1.440456
H	 -1.748852	 -3.374355	 1.100126

	symmetry c1
}
set optking {
	frozen_dihedral = ("
		12 8 11 15
	")
}

ee = optimize('scf')
oeprop('DIPOLE', 'QUADRUPOLE', 'MULLIKEN_CHARGES')
f=open( 'psi4out.xyz', 'w' )
f.write( "22  " )
f.write( str(ee) + "\n" )
f.write( MOL.save_string_xyz() )
f.close()
--------------------------------------------------------------------------

    Molecular point group: c1
  Charge       = 0
  Multiplicity = 1
  Basis Set: 6-31G*
  Basis Set:
  @DF-RHF Final Energy:  -348.09489401792473
    Total Energy =                       -348.0948940179252986
    Molecular point group: c1
  Basis Set: 6-31G*
  Basis Set:
  Basis Set: 6-31G*
  Basis Set:
  @DF-RHF Final Energy:  -348.09552360480848
    Total Energy =                       -348.0955236048081929
  Basis Set: 6-31G*
  Basis Set:
  Basis Set: 6-31G*
  Basis Set:
  @DF-RHF Final Energy:  -348.09342433320199
    Total Energy =                       -348.0934243332020515
  Basis Set: 6-31G*
  Basis Set:
  Basis Set: 6-31G*
  Basis Set:
  @DF-RHF Final Energy:  -348.09561394627752
    Total Energy =                       -348.0956139462772967
  Basis Set: 6-31G*
  Basis Set:
  @DF-RHF Final Energy:  -348.09540147153660
    Total Energy =                       -348.0954014715366611
  @DF-RHF Final Energy:  -348.09549513528646
    Total Energy =                       -348.0954951352864555
  Basis Set: 6-31G*
  Basis Set:
  @DF-RHF Final Energy:  -348.09565761443207
    Total Energy =                       -348.0956576144319570
  Basis Set: 6-31G*
  Basis Set:
  Basis Set: 6-31G*
  Basis Set:
  @DF-RHF Final Energy:  -348.09563531958713
    Total Energy =                       -348.0956353195871884
  Basis Set: 6-31G*
  Basis Set:
  Basis Set: 6-31G*
  Basis Set:
  @DF-RHF Final Energy:  -348.09566184854674
    Total Energy =                       -348.0956618485464560
  Basis Set: 6-31G*
  Basis Set:
  Charge       = 0
  Multiplicity = 1
  Basis Set: 6-31G*
  Basis Set:

    Orbital Energies (a.u.)
    -----------------------

    Doubly Occupied:

       1A    -20.547331     2A    -11.324493     3A    -11.230091
       4A    -11.228971     5A    -11.228184     6A    -11.222178
       7A    -11.220114     8A    -11.211947     9A     -1.393077
      10A     -1.095098    11A     -1.044098    12A     -0.999924
      13A     -0.937934    14A     -0.850523    15A     -0.794605
      16A     -0.732711    17A     -0.662106    18A     -0.644529
      19A     -0.626319    20A     -0.616665    21A     -0.598151
      22A     -0.580816    23A     -0.562587    24A     -0.548060
      25A     -0.531048    26A     -0.509709    27A     -0.504521
      28A     -0.488424    29A     -0.472311    30A     -0.463637
      31A     -0.458361    32A     -0.395996

  @DF-RHF Final Energy:  -348.09566168951943

   => Energetics <=

    Nuclear Repulsion Energy =            371.2548082167105008
    One-Electron Energy =               -1207.2519026391946682
    Two-Electron Energy =                 487.9014327329646221
    DFT Exchange-Correlation Energy =       0.0000000000000000
    Empirical Dispersion Energy =           0.0000000000000000
    PCM Polarization Energy =               0.0000000000000000
    EFP Energy =                            0.0000000000000000
    Total Energy =                       -348.0956616895196021
    Molecular point group: c1
  Basis Set: 6-31G*
  Basis Set:

  -Total Gradient:
     Atom            X                  Y                   Z
    ------   -----------------  -----------------  -----------------
       1        0.000030022580     0.000037644816     0.000062667409
       2       -0.000060169312    -0.000039860763    -0.000071662606
       3        0.000103578614     0.000001650389     0.000050798882
       4       -0.000019945096    -0.000007169848     0.000028883716
       5       -0.000009383293     0.000017340335    -0.000027315081
       6        0.000013950623     0.000016766899    -0.000015208628
       7        0.000023128931     0.000008687906    -0.000014010629
       8        0.002058579638    -0.002628609814    -0.002310098638
       9       -0.000032850395    -0.000007581293    -0.000017615876
      10       -0.000006457510     0.000016750498     0.000035616549
      11        0.000508097770     0.003518853438    -0.002075495154
      12       -0.001837447205     0.001612919340     0.002285771304
      13       -0.000012697250    -0.000007677321    -0.000013086224
      14       -0.000034663209     0.000028651893     0.000039112988
      15       -0.000725434091    -0.002563945691     0.002059826179
      16       -0.000005553552     0.000003868212    -0.000015711815
      17        0.000014952756    -0.000003544852     0.000000139294
      18       -0.000007263627    -0.000010154264     0.000014546702
      19       -0.000003208422     0.000019705512    -0.000011457907
      20       -0.000005395807    -0.000031256404    -0.000002360344
      21        0.000005699697    -0.000004670650     0.000001491857
      22        0.000002458164     0.000021631665    -0.000004831981

  **** Optimization is complete! (in 10 steps) ****
    Final optimized geometry and variables:
    Molecular point group: c1

    Geometry (in Angstrom), charge = 0, multiplicity = 1:

    O           -2.628366283805     0.512469647820     0.607118888609
    C           -2.101921560646    -0.457857519990     0.153658266976
    C           -0.884269211266    -0.334897558136    -0.745518231972
    C           -2.598496266473    -1.851391529338     0.469178992521
    C            0.390291777909    -0.117406829149     0.084466897190
    H           -1.041873155548     0.516533276227    -1.398510096774
    H           -0.775780115070    -1.220944352217    -1.364931502981
    C            1.642449095517     0.028194448992    -0.785732395644
    H            0.256773445691     0.770997970055     0.694513224981
    H            0.527410742301    -0.949704495156     0.772287716237
    C            2.910825002129     0.331362439679     0.036146230543
    H            1.466710899390     0.836711476065    -1.491886480835
    H            1.776738431680    -0.878409423663    -1.369302876631
    C            3.253480664022     1.819049771404     0.104846991204
    H            3.753240316388    -0.225742065971    -0.363891434613
    H            2.777383232551    -0.047476272165     1.047274094724
    H            3.474540991570     2.214716668257    -0.882164685539
    H            4.120415198844     1.993729725737     0.734403635791
    H            2.427823060419     2.394749961850     0.513560839299
    H           -2.993395888266    -2.311463946187    -0.432842203899
    H           -3.376142684821    -1.806104622717     1.218813879306
    H           -1.784681233637    -2.479811701109     0.819065890357

  Mulliken Charges: (a.u.)
   Center  Symbol    Alpha    Beta     Spin     Total
       1     O     4.26234  4.26234  0.00000 -0.52469
       2     C     2.73710  2.73710  0.00000  0.52580
       3     C     3.20029  3.20029  0.00000 -0.40059
       4     C     3.28952  3.28952  0.00000 -0.57903
       5     C     3.16392  3.16392  0.00000 -0.32785
       6     H     0.40112  0.40112  0.00000  0.19776
       7     H     0.41699  0.41699  0.00000  0.16602
       8     C     3.15428  3.15428  0.00000 -0.30857
       9     H     0.40593  0.40593  0.00000  0.18814
      10     H     0.42043  0.42043  0.00000  0.15914
      11     C     3.15629  3.15629  0.00000 -0.31257
      12     H     0.41896  0.41896  0.00000  0.16209
      13     H     0.42021  0.42021  0.00000  0.15957
      14     C     3.24046  3.24046  0.00000 -0.48093
      15     H     0.41893  0.41893  0.00000  0.16214
      16     H     0.42081  0.42081  0.00000  0.15838
      17     H     0.42059  0.42059  0.00000  0.15883
      18     H     0.41872  0.41872  0.00000  0.16256
      19     H     0.41940  0.41940  0.00000  0.16120
      20     H     0.40683  0.40683  0.00000  0.18633
      21     H     0.39708  0.39708  0.00000  0.20585
      22     H     0.40979  0.40979  0.00000  0.18041

   Total alpha = 32.00000, Total beta = 32.00000, Total charge =  0.00000
