  ==> Input File <==

--------------------------------------------------------------------------
set {
	reference rhf
	basis 6-31G*
}

set_num_threads( 4 )
memory 2 gb

molecule MOL {
0 1

H	 -3.864689	 0.503085	 -0.258933
O	 -3.018649	 0.836362	 -0.521458
C	 -2.026376	 0.340750	 0.341611
C	 -0.673256	 0.843270	 -0.132153
H	 -2.207013	 0.678336	 1.360602
H	 -2.036400	 -0.748508	 0.349954
C	 0.486613	 -0.083066	 0.235839
H	 -0.715586	 0.970948	 -1.210718
H	 -0.508072	 1.829858	 0.297090
C	 1.840406	 0.433480	 -0.254303
H	 0.300215	 -1.068318	 -0.178947
H	 0.519509	 -0.203625	 1.318070
C	 3.000220	 -0.489290	 0.118523
H	 1.809207	 0.553576	 -1.335192
H	 2.021860	 1.424500	 0.157276
H	 2.864959	 -1.479103	 -0.307933
H	 3.946603	 -0.099227	 -0.243630
H	 3.080049	 -0.602997	 1.196117

	symmetry c1
}
set optking {
	frozen_dihedral = ("
		2 3 4 8
	")
}

ee = optimize('scf')
oeprop('DIPOLE', 'QUADRUPOLE', 'MULLIKEN_CHARGES')
f=open( 'psi4out.xyz', 'w' )
f.write( "18  " )
f.write( str(ee) + "\n" )
f.write( MOL.save_string_xyz() )
f.close()
--------------------------------------------------------------------------

    Molecular point group: c1
  Charge       = 0
  Multiplicity = 1
  Basis Set: 6-31G*
  Basis Set:
  @DF-RHF Final Energy:  -271.17691358095578
    Total Energy =                       -271.1769135809557838
    Molecular point group: c1
  Basis Set: 6-31G*
  Basis Set:
  Basis Set: 6-31G*
  Basis Set:
  @DF-RHF Final Energy:  -271.17725201253705
    Total Energy =                       -271.1772520125371670
  Basis Set: 6-31G*
  Basis Set:
  Basis Set: 6-31G*
  Basis Set:
  @DF-RHF Final Energy:  -271.17729503354457
    Total Energy =                       -271.1772950335443966
  Basis Set: 6-31G*
  Basis Set:
  Basis Set: 6-31G*
  Basis Set:
  @DF-RHF Final Energy:  -271.17729806591842
    Total Energy =                       -271.1772980659184213
  Basis Set: 6-31G*
  Basis Set:
  Basis Set: 6-31G*
  Basis Set:
  @DF-RHF Final Energy:  -271.17730416235747
    Total Energy =                       -271.1773041623573590
  Basis Set: 6-31G*
  Basis Set:
  Charge       = 0
  Multiplicity = 1
  Basis Set: 6-31G*
  Basis Set:

    Orbital Energies (a.u.)
    -----------------------

    Doubly Occupied:

       1A    -20.551924     2A    -11.267373     3A    -11.216122
       4A    -11.215246     5A    -11.210584     6A    -11.208641
       7A     -1.358457     8A     -1.079790     9A     -1.010124
      10A     -0.913126    11A     -0.820372    12A     -0.792655
      13A     -0.696162    14A     -0.654740    15A     -0.622768
      16A     -0.585693    17A     -0.571272    18A     -0.557248
      19A     -0.530264    20A     -0.494924    21A     -0.489855
      22A     -0.469763    23A     -0.463545    24A     -0.450633
      25A     -0.431541

  @DF-RHF Final Energy:  -271.17730430994840

   => Energetics <=

    Nuclear Repulsion Energy =            245.2007652028402731
    One-Electron Energy =                -853.4304953847904471
    Two-Electron Energy =                 337.0524258720015496
    DFT Exchange-Correlation Energy =       0.0000000000000000
    Empirical Dispersion Energy =           0.0000000000000000
    PCM Polarization Energy =               0.0000000000000000
    EFP Energy =                            0.0000000000000000
    Total Energy =                       -271.1773043099485676
    Molecular point group: c1
  Basis Set: 6-31G*
  Basis Set:

  -Total Gradient:
     Atom            X                  Y                   Z
    ------   -----------------  -----------------  -----------------
       1        0.000004531851    -0.000003577387    -0.000002074723
       2        0.000283291435    -0.002855724703    -0.001916136748
       3       -0.000629025049     0.004565325175     0.002645345765
       4        0.001674992177    -0.005896675461    -0.001220374322
       5       -0.000015935576    -0.000009270840     0.000001117945
       6       -0.000053995964     0.000009772227    -0.000020373311
       7        0.000023641452     0.000019312079     0.000006099333
       8       -0.001293070972     0.004186930701     0.000497309717
       9        0.000011844594    -0.000004907895     0.000009336534
      10       -0.000007812742    -0.000031460669    -0.000027469777
      11        0.000000752305     0.000038622494    -0.000003527542
      12        0.000014980949    -0.000012937572     0.000017993303
      13        0.000001990292     0.000003392846     0.000020936454
      14       -0.000008106887    -0.000006089541    -0.000006277659
      15       -0.000011641763    -0.000001945014    -0.000004994410
      16        0.000003822885     0.000004747464    -0.000006654815
      17        0.000000838871     0.000005915740     0.000008056812
      18       -0.000001097848    -0.000011429645     0.000001687445

  **** Optimization is complete! (in 6 steps) ****
    Final optimized geometry and variables:
    Molecular point group: c1

    Geometry (in Angstrom), charge = 0, multiplicity = 1:

    H           -3.749073194556     0.278806665139    -0.123411372850
    O           -2.899151837501     0.517604899775    -0.465056279059
    C           -1.894172558124     0.024399130961     0.384354482572
    C           -0.544233045167     0.511250421825    -0.131602100182
    H           -2.052429349072     0.355139214832     1.408937721329
    H           -1.917846317243    -1.064785058752     0.389108582094
    C            0.618220756045    -0.401672131307     0.255145426404
    H           -0.620490537407     0.620403743273    -1.208989996264
    H           -0.363325771909     1.514352621917     0.248239499428
    C            1.977482637572     0.129790931395    -0.202001527266
    H            0.457219089864    -1.390069429441    -0.171392576251
    H            0.632891271053    -0.535514468163     1.336451730534
    C            3.136417024622    -0.791931217593     0.175583496269
    H            1.962976541047     0.269474155124    -1.280638349656
    H            2.142987807134     1.113926003841     0.230728232773
    H            3.018949578052    -1.774042304431    -0.273710545978
    H            4.086266692841    -0.386897326138    -0.159451847672
    H            3.195819679451    -0.926814445942     1.252012325315

  Mulliken Charges: (a.u.)
   Center  Symbol    Alpha    Beta     Spin     Total
       1     H     0.28152  0.28152  0.00000  0.43696
       2     O     4.37168  4.37168  0.00000 -0.74336
       3     C     2.99123  2.99123  0.00000  0.01755
       4     C     3.16294  3.16294  0.00000 -0.32589
       5     H     0.43131  0.43131  0.00000  0.13737
       6     H     0.43196  0.43196  0.00000  0.13607
       7     C     3.15849  3.15849  0.00000 -0.31698
       8     H     0.40806  0.40806  0.00000  0.18388
       9     H     0.41905  0.41905  0.00000  0.16191
      10     C     3.15143  3.15143  0.00000 -0.30285
      11     H     0.42189  0.42189  0.00000  0.15623
      12     H     0.42493  0.42493  0.00000  0.15014
      13     C     3.23947  3.23947  0.00000 -0.47895
      14     H     0.42109  0.42109  0.00000  0.15782
      15     H     0.42228  0.42228  0.00000  0.15544
      16     H     0.42160  0.42160  0.00000  0.15679
      17     H     0.41889  0.41889  0.00000  0.16222
      18     H     0.42217  0.42217  0.00000  0.15565

   Total alpha = 25.00000, Total beta = 25.00000, Total charge = -0.00000
