  ==> Input File <==

--------------------------------------------------------------------------
set {
	reference rhf
	basis 6-31G*
}

set_num_threads( 1 )
memory 2 gb

molecule MOL {
0 1

O	 2.160596	 -0.260288	 -0.434342
C	 1.122059	 0.121804	 -0.000188
C	 -0.170150	 -0.657997	 -0.000612
O	 0.962379	 1.316268	 0.555450
C	 -1.412532	 0.227344	 -0.000452
H	 -0.153702	 -1.313099	 -0.867402
H	 -0.153924	 -1.313811	 0.865644
C	 -2.706999	 -0.587347	 -0.000541
H	 -1.388000	 0.879466	 -0.868000
H	 -1.387972	 0.879138	 0.867341
C	 -3.956778	 0.291888	 0.000910
H	 -2.726114	 -1.239230	 -0.871609
H	 -2.725217	 -1.240844	 0.869333
H	 -3.985213	 0.933254	 -0.875158
H	 -4.860123	 -0.309979	 0.000519
H	 -3.984618	 0.931166	 0.878514
C	 2.103080	 2.152815	 0.619736
H	 2.884456	 1.685862	 1.201883
H	 1.774860	 3.063263	 1.096501
H	 2.476537	 2.363056	 -0.372148

	symmetry c1
}
set optking {
	frozen_dihedral = ("
		9 5 8 12,
		9 5 3 6,
		1 2 4 17
	")
}

ee = energy('scf')
oeprop('DIPOLE', 'QUADRUPOLE', 'MULLIKEN_CHARGES')
f=open( 'psi4out.xyz', 'w' )
f.write( "20  " )
f.write( str(ee) + "\n" )
f.write( MOL.save_string_xyz() )
f.close()
--------------------------------------------------------------------------

    Molecular point group: c1

    Geometry (in Angstrom), charge = 0, multiplicity = 1:

       Center              X                  Y                   Z               Mass
    ------------   -----------------  -----------------  -----------------  -----------------
           O          2.372895296481    -0.612036272445    -0.531718545481    15.994914619560
           C          1.334358296481    -0.229944272445    -0.097564545481    12.000000000000
           C          0.042149296481    -1.009745272445    -0.097988545481    12.000000000000
           O          1.174678296481     0.964519727555     0.458073454519    15.994914619560
           C         -1.200232703519    -0.124404272445    -0.097828545481    12.000000000000
           H          0.058597296481    -1.664847272445    -0.964778545481     1.007825032070
           H          0.058375296481    -1.665559272445     0.768267454519     1.007825032070
           C         -2.494699703519    -0.939095272445    -0.097917545481    12.000000000000
           H         -1.175700703519     0.527717727555    -0.965376545481     1.007825032070
           H         -1.175672703519     0.527389727555     0.769964454519     1.007825032070
           C         -3.744478703519    -0.059860272445    -0.096466545481    12.000000000000
           H         -2.513814703519    -1.590978272445    -0.968985545481     1.007825032070
           H         -2.512917703519    -1.592592272445     0.771956454519     1.007825032070
           H         -3.772913703519     0.581505727555    -0.972534545481     1.007825032070
           H         -4.647823703519    -0.661727272445    -0.096857545481     1.007825032070
           H         -3.772318703519     0.579417727555     0.781137454519     1.007825032070
           C          2.315379296481     1.801066727555     0.522359454519    12.000000000000
           H          3.096755296481     1.334113727555     1.104506454519     1.007825032070
           H          1.987159296481     2.711514727555     0.999124454519     1.007825032070
           H          2.688836296481     2.011307727555    -0.469524545481     1.007825032070

  Charge       = 0
  Multiplicity = 1
  Basis Set: 6-31G*
  Basis Set:

    Orbital Energies (a.u.)
    -----------------------

    Doubly Occupied:

       1A    -20.605220     2A    -20.543326     3A    -11.372457
       4A    -11.281403     5A    -11.235318     6A    -11.222676
       7A    -11.221733     8A    -11.212933     9A     -1.470041
      10A     -1.362143    11A     -1.092588    12A     -1.025055
      13A     -0.965321    14A     -0.891355    15A     -0.805960
      16A     -0.774718    17A     -0.694556    18A     -0.683752
      19A     -0.671932    20A     -0.646233    21A     -0.594568
      22A     -0.591473    23A     -0.579028    24A     -0.544056
      25A     -0.531821    26A     -0.525401    27A     -0.503422
      28A     -0.491719    29A     -0.480293    30A     -0.471466
      31A     -0.453956    32A     -0.427913

  @DF-RHF Final Energy:  -383.93842500499142

   => Energetics <=

    Nuclear Repulsion Energy =            385.4826048604887205
    One-Electron Energy =               -1286.8944232322637617
    Two-Electron Energy =                 517.4733933667844212
    DFT Exchange-Correlation Energy =       0.0000000000000000
    Empirical Dispersion Energy =           0.0000000000000000
    PCM Polarization Energy =               0.0000000000000000
    EFP Energy =                            0.0000000000000000
    Total Energy =                       -383.9384250049906768

  Mulliken Charges: (a.u.)
   Center  Symbol    Alpha    Beta     Spin     Total
       1     O     4.28804  4.28804  0.00000 -0.57607
       2     C     2.60435  2.60435  0.00000  0.79130
       3     C     3.21076  3.21076  0.00000 -0.42151
       4     O     4.30381  4.30381  0.00000 -0.60762
       5     C     3.15396  3.15396  0.00000 -0.30791
       6     H     0.39833  0.39833  0.00000  0.20333
       7     H     0.39997  0.39997  0.00000  0.20007
       8     C     3.15415  3.15415  0.00000 -0.30831
       9     H     0.41772  0.41772  0.00000  0.16456
      10     H     0.40776  0.40776  0.00000  0.18447
      11     C     3.23944  3.23944  0.00000 -0.47887
      12     H     0.42181  0.42181  0.00000  0.15638
      13     H     0.42218  0.42218  0.00000  0.15563
      14     H     0.42067  0.42067  0.00000  0.15865
      15     H     0.41803  0.41803  0.00000  0.16395
      16     H     0.42060  0.42060  0.00000  0.15879
      17     C     3.09227  3.09227  0.00000 -0.18454
      18     H     0.40875  0.40875  0.00000  0.18250
      19     H     0.40885  0.40885  0.00000  0.18231
      20     H     0.40855  0.40855  0.00000  0.18290

   Total alpha = 32.00000, Total beta = 32.00000, Total charge = -0.00000
