                              Psi4 1.0.54 Driver

  ==> Input File <==

--------------------------------------------------------------------------
set {
	reference rhf
	basis cc-pvtz
}

set_num_threads( 4 )
memory 2 gb

molecule MOL {
0 1

H	 -3.579911	 0.597780	 1.693602
O	 -2.877182	 0.038165	 1.419377
C	 -2.302264	 0.528872	 0.237390
C	 -1.175688	 -0.398187	 -0.171891
H	 -3.046144	 0.580343	 -0.554927
H	 -1.916954	 1.534806	 0.390561
C	 0.196029	 0.106276	 0.266738
H	 -1.201873	 -0.515469	 -1.250677
H	 -1.365975	 -1.378728	 0.252664
C	 1.330220	 -0.826136	 -0.155230
H	 0.359542	 1.097229	 -0.145561
H	 0.212134	 0.218135	 1.348778
C	 2.719700	 -0.407669	 0.328325
H	 1.339388	 -0.911200	 -1.239363
H	 1.119001	 -1.821953	 0.224128
C	 3.241564	 0.893452	 -0.276737
H	 3.418299	 -1.204729	 0.093035
H	 2.711776	 -0.323368	 1.411960
H	 3.254204	 0.841071	 -1.360784
H	 2.634460	 1.745075	 0.005842
H	 4.254264	 1.092401	 0.054971

	symmetry c1
}
set optking {
	frozen_dihedral = ("
		2 3 4 8
	")
}

ee,wfn = optimize('scf', return_wfn=True)
oeprop( wfn, 'DIPOLE', 'QUADRUPOLE', 'MULLIKEN_CHARGES')
f=open( 'psi4out.xyz', 'w' )
f.write( "21  " )
f.write( str(ee) + "\n" )
f.write( MOL.save_string_xyz() )
f.close()
--------------------------------------------------------------------------

    Molecular point group: c1
  Charge       = 0
  Multiplicity = 1
  Basis Set: CC-PVTZ
  Basis Set:
  @DF-RHF Final Energy:  -310.32890817795567
    Total Energy =                       -310.3289081779558387
    Molecular point group: c1
  Basis Set: CC-PVTZ
  Basis Set:
  Basis Set: CC-PVTZ
  Basis Set:
  @DF-RHF Final Energy:  -310.32934940246554
    Total Energy =                       -310.3293494024654251
  Basis Set: CC-PVTZ
  Basis Set:
  Basis Set: CC-PVTZ
  Basis Set:
  @DF-RHF Final Energy:  -310.32944928266807
    Total Energy =                       -310.3294492826677242
  Basis Set: CC-PVTZ
  Basis Set:
  Basis Set: CC-PVTZ
  Basis Set:
  @DF-RHF Final Energy:  -310.32945078160469
    Total Energy =                       -310.3294507816048053
  Basis Set: CC-PVTZ
  Basis Set:
  Basis Set: CC-PVTZ
  Basis Set:
  @DF-RHF Final Energy:  -310.32945428062595
    Total Energy =                       -310.3294542806256686
  Basis Set: CC-PVTZ
  Basis Set:
  Charge       = 0
  Multiplicity = 1
  Basis Set: CC-PVTZ
  Basis Set:

    Orbital Energies (a.u.)
    -----------------------

    Doubly Occupied:

       1A    -20.545464     2A    -11.265390     3A    -11.211051
       4A    -11.209366     5A    -11.208919     6A    -11.208425
       7A    -11.204538     8A     -1.362553     9A     -1.084253
      10A     -1.031574    11A     -0.954492    12A     -0.876745
      13A     -0.805898    14A     -0.776561    15A     -0.706483
      16A     -0.638536    17A     -0.632749    18A     -0.602945
      19A     -0.585612    20A     -0.571195    21A     -0.535434
      22A     -0.524839    23A     -0.508200    24A     -0.485655
      25A     -0.481634    26A     -0.460073    27A     -0.454761
      28A     -0.449208    29A     -0.425738

  @DF-RHF Final Energy:  -310.32945580537887

   => Energetics <=

    Nuclear Repulsion Energy =            314.9270464231004780
    One-Electron Energy =               -1044.8964323178140603
    Two-Electron Energy =                 419.6399300893347117
    DFT Exchange-Correlation Energy =       0.0000000000000000
    Empirical Dispersion Energy =           0.0000000000000000
    PCM Polarization Energy =               0.0000000000000000
    EFP Energy =                            0.0000000000000000
    Total Energy =                       -310.3294558053788705
    Molecular point group: c1
  Basis Set: CC-PVTZ
  Basis Set:

  -Total Gradient:
     Atom            X                  Y                   Z
    ------   -----------------  -----------------  -----------------
       1       -0.000020300816     0.000008604879     0.000013382436
       2       -0.002189178005    -0.001973812461    -0.001918794177
       3        0.002239118172     0.001664299451     0.002550413467
       4        0.002661973266     0.004053355521    -0.001073715428
       5       -0.000000037930    -0.000005241960     0.000001431793
       6       -0.000000371340     0.000002131464     0.000009684171
       7       -0.000034695460    -0.000006951303     0.000006145013
       8       -0.002663941060    -0.003713542531     0.000411589007
       9        0.000000713695    -0.000025266835     0.000004934011
      10       -0.000003254413     0.000002271434    -0.000006397877
      11       -0.000004022311    -0.000006440722     0.000001032684
      12       -0.000001283570     0.000005548125    -0.000002879492
      13       -0.000000162657    -0.000004612576    -0.000001328690
      14       -0.000000884618    -0.000001276673     0.000003165326
      15        0.000006157457     0.000004713475    -0.000000332880
      16        0.000000904217    -0.000003292167    -0.000003376863
      17        0.000012829401    -0.000002995682    -0.000001113186
      18       -0.000003633870     0.000000454185     0.000006991491
      19       -0.000001193934    -0.000001019404    -0.000005795015
      20       -0.000001711151     0.000003984888     0.000004819014
      21        0.000002974923    -0.000000911107     0.000000145198

  **** Optimization is complete! (in 6 steps) ****
    Final optimized geometry and variables:
    Molecular point group: c1

    Geometry (in Angstrom), charge = 0, multiplicity = 1:

    H           -3.647508251047     0.563466308229     1.452727811237
    O           -2.982424267613    -0.010561493041     1.120044100408
    C           -2.433613955462     0.520231810749    -0.060762375998
    C           -1.267010768267    -0.360663338465    -0.496907443997
    H           -3.193527736862     0.541239370482    -0.837085477144
    H           -2.101060386570     1.543022091460     0.097767137133
    C            0.096276887140     0.125215790880    -0.015493493247
    H           -1.279709385067    -0.474028192206    -1.576644029065
    H           -1.459804223304    -1.352293752971    -0.101174788752
    C            1.230481826974    -0.828848648691    -0.382618042106
    H            0.288304020216     1.109121646023    -0.432412717785
    H            0.063788196486     0.247343826111     1.064118306824
    C            2.608468784759    -0.421713344883     0.142119160235
    H            1.276847374795    -0.933140363082    -1.464639563275
    H            0.991820639403    -1.814795365226     0.006059840620
    C            3.172033027815     0.858920267872    -0.469128302411
    H            3.302839758172    -1.233471970508    -0.052072779888
    H            2.562479213150    -0.315320235663     1.222700803156
    H            3.222238298861     0.784671522915    -1.550880994563
    H            2.568848518675     1.725016735431    -0.224909638295
    H            4.175452488485     1.049120437881    -0.105499888551

  Mulliken Charges: (a.u.)
   Center  Symbol    Alpha    Beta     Spin     Total
       1     H     0.39525  0.39525  0.00000  0.20949
       2     O     4.19967  4.19967  0.00000 -0.39935
       3     C     2.96745  2.96745  0.00000  0.06510
       4     C     3.09109  3.09109  0.00000 -0.18218
       5     H     0.46911  0.46911  0.00000  0.06178
       6     H     0.47602  0.47602  0.00000  0.04796
       7     C     3.09511  3.09511  0.00000 -0.19022
       8     H     0.45171  0.45171  0.00000  0.09658
       9     H     0.44865  0.44865  0.00000  0.10270
      10     C     3.09621  3.09621  0.00000 -0.19241
      11     H     0.45527  0.45527  0.00000  0.08947
      12     H     0.44955  0.44955  0.00000  0.10090
      13     C     3.08986  3.08986  0.00000 -0.17971
      14     H     0.45516  0.45516  0.00000  0.08968
      15     H     0.44800  0.44800  0.00000  0.10399
      16     C     3.15248  3.15248  0.00000 -0.30497
      17     H     0.44886  0.44886  0.00000  0.10228
      18     H     0.45436  0.45436  0.00000  0.09127
      19     H     0.45532  0.45532  0.00000  0.08936
      20     H     0.45423  0.45423  0.00000  0.09155
      21     H     0.44663  0.44663  0.00000  0.10674

   Total alpha = 29.00000, Total beta = 29.00000, Total charge = -0.00000

*** Psi4 exiting successfully. Buy a developer a beer!
