  ==> Input File <==

--------------------------------------------------------------------------
set {
	reference rhf
	basis 6-31G*
}

set_num_threads( 4 )
memory 2 gb

molecule MOL {
0 1

H	 -3.918559	 0.220437	 -1.318510
C	 -3.247892	 -0.443262	 -0.808245
C	 -2.076860	 -0.007332	 -0.404944
H	 -3.558167	 -1.457369	 -0.640240
O	 -1.180634	 -0.819263	 0.215062
H	 -1.750197	 1.006255	 -0.557021
C	 0.051604	 -1.018856	 -0.387932
C	 1.043764	 0.054862	 -0.001873
H	 -0.017620	 -1.041351	 -1.469781
H	 0.437898	 -1.966374	 -0.042284
F	 2.212596	 -0.199467	 -0.571921
F	 0.652529	 1.252447	 -0.405055
F	 1.230877	 0.110694	 1.300533

	symmetry c1
}
set optking {
	frozen_dihedral = ("
		6 3 5 7
	")
}

ee = optimize('scf')
oeprop('DIPOLE', 'QUADRUPOLE', 'MULLIKEN_CHARGES')
f=open( 'psi4out.xyz', 'w' )
f.write( "13  " )
f.write( str(ee) + "\n" )
f.write( MOL.save_string_xyz() )
f.close()
--------------------------------------------------------------------------

    Molecular point group: c1
  Charge       = 0
  Multiplicity = 1
  Basis Set: 6-31G*
  Basis Set:
  @DF-RHF Final Energy:  -527.53364878581965
    Total Energy =                       -527.5336487858197643
    Molecular point group: c1
  Basis Set: 6-31G*
  Basis Set:
  Basis Set: 6-31G*
  Basis Set:
  @DF-RHF Final Energy:  -527.53406550054024
    Total Energy =                       -527.5340655005404642
  Basis Set: 6-31G*
  Basis Set:
  Basis Set: 6-31G*
  Basis Set:
  @DF-RHF Final Energy:  -527.53443204815244
    Total Energy =                       -527.5344320481522118
  Basis Set: 6-31G*
  Basis Set:
  Basis Set: 6-31G*
  Basis Set:
  @DF-RHF Final Energy:  -527.53445744629198
    Total Energy =                       -527.5344574462918672
  Basis Set: 6-31G*
  Basis Set:
  Basis Set: 6-31G*
  Basis Set:
  @DF-RHF Final Energy:  -527.53446224693516
    Total Energy =                       -527.5344622469352771
  Basis Set: 6-31G*
  Basis Set:
  Charge       = 0
  Multiplicity = 1
  Basis Set: 6-31G*
  Basis Set:

    Orbital Energies (a.u.)
    -----------------------

    Doubly Occupied:

       1A    -26.343778     2A    -26.343557     3A    -26.339461
       4A    -20.600447     5A    -11.501948     6A    -11.314747
       7A    -11.295279     8A    -11.226113     9A     -1.740743
      10A     -1.639044    11A     -1.637181    12A     -1.428855
      13A     -1.081270    14A     -1.017468    15A     -0.924604
      16A     -0.834131    17A     -0.829977    18A     -0.824202
      19A     -0.776597    20A     -0.722123    21A     -0.711442
      22A     -0.700759    23A     -0.674974    24A     -0.657379
      25A     -0.652959    26A     -0.642481    27A     -0.632012
      28A     -0.595435    29A     -0.568685    30A     -0.527823
      31A     -0.473324    32A     -0.370204

  @DF-RHF Final Energy:  -527.53446268842686

   => Energetics <=

    Nuclear Repulsion Energy =            411.5381255833202658
    One-Electron Energy =               -1546.8871697083659456
    Two-Electron Energy =                 607.8145814366189370
    DFT Exchange-Correlation Energy =       0.0000000000000000
    Empirical Dispersion Energy =           0.0000000000000000
    PCM Polarization Energy =               0.0000000000000000
    EFP Energy =                            0.0000000000000000
    Total Energy =                       -527.5344626884266290
    Molecular point group: c1
  Basis Set: 6-31G*
  Basis Set:

  -Total Gradient:
     Atom            X                  Y                   Z
    ------   -----------------  -----------------  -----------------
       1       -0.000004234062    -0.000006602125    -0.000002297391
       2        0.000023135563     0.000007160253     0.000006957711
       3        0.000543356361    -0.001102596184    -0.002168521519
       4        0.000007545024     0.000000800484     0.000000072834
       5        0.000504637083     0.001650701007     0.001340475963
       6       -0.000618282822     0.000514064034     0.001390192386
       7       -0.000407922626    -0.001059496877    -0.000572688225
       8        0.000016681155    -0.000003707294    -0.000004370979
       9       -0.000002471590    -0.000003760661     0.000004197670
      10       -0.000007835972    -0.000007899114    -0.000001165831
      11       -0.000055524101     0.000007299855     0.000046819507
      12       -0.000027709422     0.000044125762    -0.000047390480
      13        0.000028625408    -0.000040089138     0.000007718358

  **** Optimization is complete! (in 6 steps) ****
    Final optimized geometry and variables:
    Molecular point group: c1

    Geometry (in Angstrom), charge = 0, multiplicity = 1:

    H           -4.003027793956     0.258148346126    -1.195656050789
    C           -3.291579345191    -0.372236955505    -0.696929672149
    C           -2.094721688289     0.083264176573    -0.408068871047
    H           -3.592652830462    -1.367342741635    -0.426724533697
    O           -1.191392798822    -0.667278679864     0.290950791236
    H           -1.775248404868     1.082010131930    -0.644816314147
    C            0.043792672074    -0.891015843032    -0.310618895178
    C            1.063434853907     0.135081896564     0.126791112958
    H           -0.016955170504    -0.875430541305    -1.391893842844
    H            0.398108397382    -1.861058571177     0.007695798107
    F            2.228771303458    -0.122995638483    -0.447661047069
    F            0.709333341197     1.363638945243    -0.221123676355
    F            1.244627363659     0.127747769006     1.431593570868

  Mulliken Charges: (a.u.)
   Center  Symbol    Alpha    Beta     Spin     Total
       1     H     0.40592  0.40592  0.00000  0.18817
       2     C     3.21738  3.21738  0.00000 -0.43475
       3     C     2.91734  2.91734  0.00000  0.16532
       4     H     0.40160  0.40160  0.00000  0.19679
       5     O     4.30745  4.30745  0.00000 -0.61489
       6     H     0.39968  0.39968  0.00000  0.20063
       7     C     3.05935  3.05935  0.00000 -0.11870
       8     C     2.45703  2.45703  0.00000  1.08593
       9     H     0.40343  0.40343  0.00000  0.19313
      10     H     0.39199  0.39199  0.00000  0.21602
      11     F     4.68259  4.68259  0.00000 -0.36518
      12     F     4.68129  4.68129  0.00000 -0.36259
      13     F     4.67494  4.67494  0.00000 -0.34988

   Total alpha = 32.00000, Total beta = 32.00000, Total charge =  0.00000
