                              Psi4 1.0.54 Driver

  ==> Input File <==

--------------------------------------------------------------------------
set {
	reference rhf
	basis cc-pvtz
}

set_num_threads( 4 )
memory 2 gb

molecule MOL {
0 1

H	 -3.351252	 -0.738683	 -0.787604
O	 -3.515113	 -0.019339	 -0.206321
C	 -2.302264	 0.528872	 0.237390
C	 -1.175688	 -0.398187	 -0.171891
H	 -2.148018	 1.514076	 -0.197759
H	 -2.310727	 0.646384	 1.319032
C	 0.196029	 0.106276	 0.266738
H	 -1.201873	 -0.515469	 -1.250677
H	 -1.365975	 -1.378728	 0.252664
C	 1.330220	 -0.826136	 -0.155230
H	 0.359542	 1.097229	 -0.145561
H	 0.212134	 0.218135	 1.348778
C	 2.719700	 -0.407669	 0.328325
H	 1.339388	 -0.911200	 -1.239363
H	 1.119001	 -1.821953	 0.224128
C	 3.241564	 0.893452	 -0.276737
H	 3.418299	 -1.204729	 0.093035
H	 2.711776	 -0.323368	 1.411960
H	 3.254204	 0.841071	 -1.360784
H	 2.634460	 1.745075	 0.005842
H	 4.254264	 1.092401	 0.054971

	symmetry c1
}
set optking {
	frozen_dihedral = ("
		1 2 3 5
	")
}

ee,wfn = optimize('scf', return_wfn=True)
oeprop( wfn, 'DIPOLE', 'QUADRUPOLE', 'MULLIKEN_CHARGES')
f=open( 'psi4out.xyz', 'w' )
f.write( "21  " )
f.write( str(ee) + "\n" )
f.write( MOL.save_string_xyz() )
f.close()
--------------------------------------------------------------------------

    Molecular point group: c1
  Charge       = 0
  Multiplicity = 1
  Basis Set: CC-PVTZ
  Basis Set:
  @DF-RHF Final Energy:  -310.32937282158775
    Total Energy =                       -310.3293728215879241
    Molecular point group: c1
  Basis Set: CC-PVTZ
  Basis Set:
  Basis Set: CC-PVTZ
  Basis Set:
  @DF-RHF Final Energy:  -310.12384653643198
    Total Energy =                       -310.1238465364320973
  Basis Set: CC-PVTZ
  Basis Set:
  Basis Set: CC-PVTZ
  Basis Set:
  @DF-RHF Final Energy:  -310.25273979747283
    Total Energy =                       -310.2527397974728842
  Basis Set: CC-PVTZ
  Basis Set:
  Basis Set: CC-PVTZ
  Basis Set:
  @DF-RHF Final Energy:  -310.32421269065605
    Total Energy =                       -310.3242126906561680
  Basis Set: CC-PVTZ
  Basis Set:
  @DF-RHF Final Energy:  -310.32980626499921
    Total Energy =                       -310.3298062649993199
  Basis Set: CC-PVTZ
  Basis Set:
  @DF-RHF Final Energy:  -310.33086023275297
    Total Energy =                       -310.3308602327527979
  Basis Set: CC-PVTZ
  Basis Set:
  Basis Set: CC-PVTZ
  Basis Set:
  @DF-RHF Final Energy:  -310.33094447665587
    Total Energy =                       -310.3309444766555316
  Basis Set: CC-PVTZ
  Basis Set:
  Basis Set: CC-PVTZ
  Basis Set:
  @DF-RHF Final Energy:  -310.33094803058162
    Total Energy =                       -310.3309480305813395
  Basis Set: CC-PVTZ
  Basis Set:
  Charge       = 0
  Multiplicity = 1
  Basis Set: CC-PVTZ
  Basis Set:

    Orbital Energies (a.u.)
    -----------------------

    Doubly Occupied:

       1A    -20.542600     2A    -11.264040     3A    -11.221397
       4A    -11.219723     5A    -11.217415     6A    -11.216810
       7A    -11.209275     8A     -1.361048     9A     -1.093146
      10A     -1.038392    11A     -0.957681    12A     -0.882121
      13A     -0.826611    14A     -0.783870    15A     -0.673861
      16A     -0.658456    17A     -0.627126    18A     -0.622622
      19A     -0.593109    20A     -0.576696    21A     -0.549536
      22A     -0.529732    23A     -0.508488    24A     -0.499545
      25A     -0.486309    26A     -0.466698    27A     -0.461276
      28A     -0.444816    29A     -0.433593

  @DF-RHF Final Energy:  -310.33094766102187

   => Energetics <=

    Nuclear Repulsion Energy =            312.9248121629221373
    One-Electron Energy =               -1040.5795418582217735
    Two-Electron Energy =                 417.3237820342775422
    DFT Exchange-Correlation Energy =       0.0000000000000000
    Empirical Dispersion Energy =           0.0000000000000000
    PCM Polarization Energy =               0.0000000000000000
    EFP Energy =                            0.0000000000000000
    Total Energy =                       -310.3309476610221509
    Molecular point group: c1
  Basis Set: CC-PVTZ
  Basis Set:

  -Total Gradient:
     Atom            X                  Y                   Z
    ------   -----------------  -----------------  -----------------
       1        0.000215004358    -0.001020925195     0.000490223543
       2       -0.000375381758     0.001270652933    -0.000364261880
       3        0.000510306029    -0.000199509163    -0.001049156626
       4       -0.000016624552     0.000004052883     0.000016052610
       5       -0.000378304276    -0.000090580733     0.000910780176
       6        0.000010105413     0.000017531609    -0.000004042769
       7       -0.000021470599    -0.000019779504    -0.000022588007
       8       -0.000013043662    -0.000006082659     0.000005392551
       9       -0.000004272685     0.000018428878    -0.000002618268
      10        0.000001834128     0.000041928483     0.000021967317
      11       -0.000023397289    -0.000066531288    -0.000020775593
      12        0.000021888153     0.000017658789     0.000004597073
      13       -0.000011509209     0.000026641957     0.000028651087
      14       -0.000014229463     0.000013331799     0.000008486719
      15       -0.000005091208     0.000018087019    -0.000019155528
      16        0.000026232279    -0.000023088453    -0.000005187128
      17        0.000037715975    -0.000014936404     0.000011148294
      18       -0.000002814358     0.000015744986     0.000006963524
      19       -0.000005218586     0.000005263873     0.000000485775
      20        0.000048261988    -0.000004975934    -0.000003042752
      21        0.000000009327    -0.000002913873    -0.000013920117

  **** Optimization is complete! (in 9 steps) ****
    Final optimized geometry and variables:
    Molecular point group: c1

    Geometry (in Angstrom), charge = 0, multiplicity = 1:

    H           -3.409119224514    -0.883456021410    -0.875487340799
    O           -3.533868249717    -0.546748142314    -0.008260500414
    C           -2.319969211295    -0.067550091384     0.510679291303
    C           -1.110897616935    -0.493589411339    -0.303857837544
    H           -2.365170746101     1.015979333519     0.573397720223
    H           -2.230007313920    -0.441730158235     1.524580105930
    C            0.206347727294     0.015272412646     0.274956038265
    H           -1.224110030052    -0.125964272238    -1.322241602316
    H           -1.091592309561    -1.579035987621    -0.360806429323
    C            1.420020386996    -0.408784559796    -0.550142580378
    H            0.165527259737     1.097155625793     0.346561341224
    H            0.318075409361    -0.355982896691     1.290721450451
    C            2.770842769062     0.002760697748     0.037828047891
    H            1.329651043796    -0.003921269918    -1.555536569684
    H            1.406148916118    -1.489887719409    -0.656763908176
    C            3.022289491723     1.508331411182     0.068028028455
    H            3.555457193180    -0.468779608615    -0.545758733999
    H            2.860588516986    -0.398124205319     1.043979385569
    H            2.929805814237     1.938565256462    -0.924111968477
    H            2.325929918544     2.023866931222     0.718280302589
    H            4.021892815885     1.723163557671     0.427887611651

  Mulliken Charges: (a.u.)
   Center  Symbol    Alpha    Beta     Spin     Total
       1     H     0.39204  0.39204  0.00000  0.21592
       2     O     4.20586  4.20586  0.00000 -0.41173
       3     C     2.94800  2.94800  0.00000  0.10400
       4     C     3.10348  3.10348  0.00000 -0.20697
       5     H     0.47244  0.47244  0.00000  0.05513
       6     H     0.46727  0.46727  0.00000  0.06546
       7     C     3.10210  3.10210  0.00000 -0.20419
       8     H     0.45770  0.45770  0.00000  0.08461
       9     H     0.45136  0.45136  0.00000  0.09728
      10     C     3.09538  3.09538  0.00000 -0.19076
      11     H     0.45075  0.45075  0.00000  0.09851
      12     H     0.45204  0.45204  0.00000  0.09591
      13     C     3.09050  3.09050  0.00000 -0.18100
      14     H     0.45346  0.45346  0.00000  0.09309
      15     H     0.44890  0.44890  0.00000  0.10220
      16     C     3.15241  3.15241  0.00000 -0.30482
      17     H     0.44806  0.44806  0.00000  0.10388
      18     H     0.45411  0.45411  0.00000  0.09178
      19     H     0.45473  0.45473  0.00000  0.09054
      20     H     0.45360  0.45360  0.00000  0.09281
      21     H     0.44582  0.44582  0.00000  0.10836

   Total alpha = 29.00000, Total beta = 29.00000, Total charge = -0.00000

*** Psi4 exiting successfully. Buy a developer a beer!
