                              Psi4 1.0.54 Driver

  ==> Input File <==

--------------------------------------------------------------------------
set {
	reference rhf
	basis cc-pvtz
}

set_num_threads( 4 )
memory 2 gb

molecule MOL {
0 1

O	 -2.817697	 1.304178	 0.001046
C	 -2.664672	 0.129869	 0.003507
C	 -3.797908	 -0.860100	 -0.001145
O	 -1.481217	 -0.452708	 0.001092
H	 -4.408836	 -0.679689	 -0.875387
H	 -3.443486	 -1.878443	 -0.002770
H	 -4.412123	 -0.683688	 0.871605
C	 -0.332055	 0.384012	 -0.000250
C	 0.892252	 -0.506059	 -0.000295
H	 -0.360822	 1.020205	 -0.874146
H	 -0.359817	 1.021310	 0.872861
C	 1.978567	 0.011074	 0.938243
H	 1.278107	 -0.573598	 -1.012335
H	 0.597968	 -1.509323	 0.290434
C	 3.223619	 -0.871358	 0.955170
H	 2.259879	 1.019839	 0.646295
H	 1.580434	 0.086117	 1.947120
C	 4.308943	 -0.355584	 1.893816
H	 3.623408	 -0.945687	 -0.052153
H	 2.943773	 -1.879648	 1.246931
H	 4.634559	 0.638643	 1.606879
H	 5.177470	 -1.003688	 1.882486
H	 3.949542	 -0.302247	 2.915990

	symmetry c1
}
set optking {
	frozen_dihedral = ("
		13 9 8 10
	")
}

ee,wfn = optimize('scf', return_wfn=True)
oeprop( wfn, 'DIPOLE', 'QUADRUPOLE', 'MULLIKEN_CHARGES')
f=open( 'psi4out.xyz', 'w' )
f.write( "23  " )
f.write( str(ee) + "\n" )
f.write( MOL.save_string_xyz() )
f.close()
--------------------------------------------------------------------------

    Molecular point group: c1
  Charge       = 0
  Multiplicity = 1
  Basis Set: CC-PVTZ
  Basis Set:
  @DF-RHF Final Energy:  -423.12992483813798
    Total Energy =                       -423.1299248381382085
    Molecular point group: c1
  Basis Set: CC-PVTZ
  Basis Set:
  Basis Set: CC-PVTZ
  Basis Set:
  @DF-RHF Final Energy:  -423.13003290055411
    Total Energy =                       -423.1300329005548519
  Basis Set: CC-PVTZ
  Basis Set:
  Basis Set: CC-PVTZ
  Basis Set:
  @DF-RHF Final Energy:  -423.12866675052106
    Total Energy =                       -423.1286667505210062
  Basis Set: CC-PVTZ
  Basis Set:
  Basis Set: CC-PVTZ
  Basis Set:
  @DF-RHF Final Energy:  -423.13032283567787
    Total Energy =                       -423.1303228356780437
  Basis Set: CC-PVTZ
  Basis Set:
  Basis Set: CC-PVTZ
  Basis Set:
  @DF-RHF Final Energy:  -423.13033354623872
    Total Energy =                       -423.1303335462384894
  Basis Set: CC-PVTZ
  Basis Set:
  Basis Set: CC-PVTZ
  Basis Set:
  @DF-RHF Final Energy:  -423.13035609554220
    Total Energy =                       -423.1303560955424246
  Basis Set: CC-PVTZ
  Basis Set:
  Charge       = 0
  Multiplicity = 1
  Basis Set: CC-PVTZ
  Basis Set:

    Orbital Energies (a.u.)
    -----------------------

    Doubly Occupied:

       1A    -20.595227     2A    -20.529080     3A    -11.365788
       4A    -11.280027     5A    -11.230445     6A    -11.222299
       7A    -11.220714     8A    -11.218915     9A    -11.210742
      10A     -1.470198    11A     -1.363121    12A     -1.093771
      13A     -1.042140    14A     -1.003443    15A     -0.931437
      16A     -0.842932    17A     -0.801833    18A     -0.778134
      19A     -0.692286    20A     -0.686203    21A     -0.669932
      22A     -0.647674    23A     -0.608324    24A     -0.585933
      25A     -0.583703    26A     -0.570244    27A     -0.559297
      28A     -0.536653    29A     -0.525826    30A     -0.504157
      31A     -0.496610    32A     -0.475665    33A     -0.471550
      34A     -0.466341    35A     -0.450979    36A     -0.438393

  @DF-RHF Final Energy:  -423.13035658414412

   => Energetics <=

    Nuclear Repulsion Energy =            450.8414248183283917
    One-Electron Energy =               -1469.6035317629148267
    Two-Electron Energy =                 595.6317503604420835
    DFT Exchange-Correlation Energy =       0.0000000000000000
    Empirical Dispersion Energy =           0.0000000000000000
    PCM Polarization Energy =               0.0000000000000000
    EFP Energy =                            0.0000000000000000
    Total Energy =                       -423.1303565841443515
    Molecular point group: c1
  Basis Set: CC-PVTZ
  Basis Set:

  -Total Gradient:
     Atom            X                  Y                   Z
    ------   -----------------  -----------------  -----------------
       1        0.000007770434    -0.000090491179     0.000016020314
       2       -0.000043416674     0.000041819562    -0.000028623670
       3       -0.000010996687     0.000011036803     0.000022013410
       4        0.000071679074     0.000036173161     0.000007943423
       5        0.000007351853    -0.000014695288     0.000024919053
       6       -0.000009770973     0.000052195237    -0.000002064953
       7        0.000012768671    -0.000011898828    -0.000038679212
       8        0.003140884246     0.004407585389     0.002586240015
       9       -0.003421372067    -0.004732607117    -0.001191880110
      10       -0.002077610775    -0.002910063773    -0.001929324682
      11        0.000012729600     0.000000481842    -0.000011284813
      12        0.000001347497     0.000013982342    -0.000021318693
      13        0.002325022783     0.003200897692     0.000592701100
      14       -0.000011293427    -0.000014541619    -0.000008794038
      15        0.000007137507     0.000008177194    -0.000029751607
      16        0.000006310609    -0.000025153613     0.000010919468
      17        0.000027572309     0.000001388497    -0.000030406435
      18       -0.000008322271    -0.000001785989     0.000035819927
      19       -0.000020382126     0.000011808423     0.000013355607
      20       -0.000005149029     0.000021997011    -0.000018650800
      21       -0.000001807027    -0.000026430272     0.000000853772
      22       -0.000027011328     0.000012029325     0.000009152106
      23        0.000016557800     0.000008095200    -0.000009159182

  **** Optimization is complete! (in 7 steps) ****
    Final optimized geometry and variables:
    Molecular point group: c1

    Geometry (in Angstrom), charge = 0, multiplicity = 1:

    O           -2.728494248360     1.425836938438    -0.491318086431
    C           -2.586299127673     0.250533988580    -0.452220782161
    C           -3.729196083306    -0.728660470340    -0.463430840773
    O           -1.409813649229    -0.341776174813    -0.392840580888
    H           -4.310730621219    -0.568320169015    -1.361325963461
    H           -3.385558460937    -1.749929612227    -0.424340660112
    H           -4.368486563237    -0.520961873373     0.384086130059
    C           -0.250705089521     0.488857035770    -0.380838367987
    C            0.978935161340    -0.414249528662    -0.348749409489
    H           -0.278464655848     1.098739758861    -1.271505073155
    H           -0.300107506555     1.136823689146     0.482036041241
    C            2.086141654209     0.142687496489     0.545419397965
    H            1.375753928501    -0.522637536566    -1.352287203098
    H            0.684895614410    -1.396576267306    -0.001860009319
    C            3.351319019015    -0.709361676175     0.533747801044
    H            2.333600141372     1.153848434240     0.229772237710
    H            1.716323211845     0.224624320113     1.564301676452
    C            4.449025161381    -0.162897338397     1.440246319154
    H            3.726371025235    -0.781065535267    -0.483384222140
    H            3.102882329760    -1.722333688343     0.838303933672
    H            4.743725295759     0.836809391414     1.139127792299
    H            5.331762787465    -0.790860491992     1.409292450189
    H            4.115898610184    -0.111477041809     2.471381078346

  Mulliken Charges: (a.u.)
   Center  Symbol    Alpha    Beta     Spin     Total
       1     O     4.20293  4.20293  0.00000 -0.40587
       2     C     2.81085  2.81085  0.00000  0.37829
       3     C     3.13916  3.13916  0.00000 -0.27832
       4     O     4.14652  4.14652  0.00000 -0.29304
       5     H     0.44218  0.44218  0.00000  0.11565
       6     H     0.44214  0.44214  0.00000  0.11571
       7     H     0.44232  0.44232  0.00000  0.11537
       8     C     2.98324  2.98324  0.00000  0.03352
       9     C     3.08856  3.08856  0.00000 -0.17712
      10     H     0.45135  0.45135  0.00000  0.09731
      11     H     0.45326  0.45326  0.00000  0.09349
      12     C     3.09609  3.09609  0.00000 -0.19217
      13     H     0.45142  0.45142  0.00000  0.09717
      14     H     0.44544  0.44544  0.00000  0.10913
      15     C     3.08592  3.08592  0.00000 -0.17184
      16     H     0.45243  0.45243  0.00000  0.09513
      17     H     0.45252  0.45252  0.00000  0.09497
      18     C     3.14939  3.14939  0.00000 -0.29878
      19     H     0.45368  0.45368  0.00000  0.09264
      20     H     0.45360  0.45360  0.00000  0.09280
      21     H     0.45463  0.45463  0.00000  0.09074
      22     H     0.44784  0.44784  0.00000  0.10432
      23     H     0.45455  0.45455  0.00000  0.09090

   Total alpha = 36.00000, Total beta = 36.00000, Total charge = -0.00000

*** Psi4 exiting successfully. Buy a developer a beer!
