  ==> Input File <==

--------------------------------------------------------------------------
set {
	reference rhf
	basis cc-pvtz
}

set_num_threads( 4 )
memory 2 gb

molecule MOL {
0 1

H	 -1.487508	 -1.928876	 -0.541629
C	 -1.241175	 -1.186952	 -1.294299
O	 -0.775228	 0.000056	 -0.739966
H	 -2.144717	 -0.944386	 -1.835526
H	 -0.535924	 -1.624192	 -1.993637
C	 0.406133	 -0.000384	 0.036994
C	 1.526415	 -0.003194	 -0.997339
C	 0.498772	 1.259027	 0.900673
C	 0.495883	 -1.257378	 0.904465
H	 1.452279	 0.872071	 -1.630204
H	 1.451276	 -0.881020	 -1.626529
H	 2.497919	 -0.002741	 -0.517601
H	 0.368981	 2.144239	 0.289753
H	 1.470064	 1.313479	 1.377660
H	 -0.248448	 1.271586	 1.684297
H	 0.363971	 -2.144195	 0.296316
H	 1.467114	 -1.312636	 1.381470
H	 -0.251246	 -1.265768	 1.688235

	symmetry c1
}
set optking {
	frozen_dihedral = ("
		2 3 6 7
	")
}

ee = optimize('scf')
oeprop('DIPOLE', 'QUADRUPOLE', 'MULLIKEN_CHARGES')
f=open( 'psi4out.xyz', 'w' )
f.write( "18  " )
f.write( str(ee) + "\n" )
f.write( MOL.save_string_xyz() )
f.close()
--------------------------------------------------------------------------

    Molecular point group: c1
  Charge       = 0
  Multiplicity = 1
  Basis Set: CC-PVTZ
  Basis Set:
  @DF-RHF Final Energy:  -271.26995865228344
    Total Energy =                       -271.2699586522834352
    Molecular point group: c1
  Basis Set: CC-PVTZ
  Basis Set:
  Basis Set: CC-PVTZ
  Basis Set:
  @DF-RHF Final Energy:  -271.27407738611714
    Total Energy =                       -271.2740773861171419
  Basis Set: CC-PVTZ
  Basis Set:
  Basis Set: CC-PVTZ
  Basis Set:
  @DF-RHF Final Energy:  -271.27620794872070
    Total Energy =                       -271.2762079487209235
  Basis Set: CC-PVTZ
  Basis Set:
  Basis Set: CC-PVTZ
  Basis Set:
  @DF-RHF Final Energy:  -271.27625474002815
    Total Energy =                       -271.2762547400280368
  Basis Set: CC-PVTZ
  Basis Set:
  Basis Set: CC-PVTZ
  Basis Set:
  @DF-RHF Final Energy:  -271.27625633743855
    Total Energy =                       -271.2762563374383831
  Basis Set: CC-PVTZ
  Basis Set:
  Basis Set: CC-PVTZ
  Basis Set:
  @DF-RHF Final Energy:  -271.27628657892694
    Total Energy =                       -271.2762865789271700
  Basis Set: CC-PVTZ
  Basis Set:
  Basis Set: CC-PVTZ
  Basis Set:
  @DF-RHF Final Energy:  -271.27628818282909
    Total Energy =                       -271.2762881828289210
  Basis Set: CC-PVTZ
  Basis Set:
  Charge       = 0
  Multiplicity = 1
  Basis Set: CC-PVTZ
  Basis Set:

    Orbital Energies (a.u.)
    -----------------------

    Doubly Occupied:

       1A    -20.540210     2A    -11.280130     3A    -11.258622
       4A    -11.209475     5A    -11.205054     6A    -11.201727
       7A     -1.373231     8A     -1.074719     9A     -0.948693
      10A     -0.939053    11A     -0.912910    12A     -0.753366
      13A     -0.656982    14A     -0.647358    15A     -0.639740
      16A     -0.591381    17A     -0.574992    18A     -0.552969
      19A     -0.535410    20A     -0.525677    21A     -0.515228
      22A     -0.490600    23A     -0.487046    24A     -0.441811
      25A     -0.405582

  @DF-RHF Final Energy:  -271.27628819572914

   => Energetics <=

    Nuclear Repulsion Energy =            272.6799616137620319
    One-Electron Energy =                -908.3885619595821481
    Two-Electron Energy =                 364.4323121500908655
    DFT Exchange-Correlation Energy =       0.0000000000000000
    Empirical Dispersion Energy =           0.0000000000000000
    PCM Polarization Energy =               0.0000000000000000
    EFP Energy =                            0.0000000000000000
    Total Energy =                       -271.2762881957291938
    Molecular point group: c1
  Basis Set: CC-PVTZ
  Basis Set:

  -Total Gradient:
     Atom            X                  Y                   Z
    ------   -----------------  -----------------  -----------------
       1       -0.000001459159    -0.000011055476    -0.000001899573
       2       -0.000846727365    -0.000370679579     0.001546814166
       3        0.001278881889     0.001133898917    -0.002251403648
       4        0.000001847589    -0.000004548179    -0.000003074555
       5       -0.000000244999    -0.000000298976    -0.000001861306
       6       -0.000495794726    -0.002235179352     0.000631278062
       7        0.000016313511     0.001500895675     0.000092960574
       8        0.000017744364    -0.000003868157    -0.000014220491
       9        0.000035564790    -0.000006591380     0.000002789969
      10       -0.000001558873     0.000011479903     0.000006901473
      11       -0.000004842170     0.000001999564    -0.000004483502
      12       -0.000003156912    -0.000007578895     0.000000780558
      13        0.000013797637    -0.000006330656    -0.000013046437
      14       -0.000009637835    -0.000008987949     0.000014434749
      15       -0.000013088503     0.000009382095    -0.000008519735
      16        0.000003569244    -0.000007582676    -0.000002432429
      17        0.000003866329    -0.000006591886     0.000014119039
      18        0.000004925188     0.000011637008    -0.000009136916

  **** Optimization is complete! (in 8 steps) ****
    Final optimized geometry and variables:
    Molecular point group: c1

    Geometry (in Angstrom), charge = 0, multiplicity = 1:

    H           -1.788686475554    -1.639937702260    -0.310859234521
    C           -1.464471916762    -0.914088195466    -1.049047341134
    O           -0.937634934865     0.232568612726    -0.465185772011
    H           -2.327154423044    -0.605556385636    -1.622499840216
    H           -0.765826397203    -1.398398242937    -1.725303240102
    C            0.303206177161     0.170962887827     0.212689719526
    C            1.444404705841     0.209988367477    -0.805122200149
    C            0.329047588771     1.436106711646     1.064344756039
    C            0.414474808425    -1.060405494760     1.111788297264
    H            1.353275706773     1.089379553184    -1.430035901934
    H            1.437974860237    -0.663403958334    -1.446436100216
    H            2.404928871942     0.241796460637    -0.303869098825
    H            0.197184320271     2.308357025396     0.436983645621
    H            1.270368208207     1.529650735024     1.593100217749
    H           -0.475214549613     1.418022011178     1.789144555539
    H            0.460887272961    -1.980405873379     0.542538614684
    H            1.318383248346    -0.997986295681     1.705129415186
    H           -0.429454772709    -1.117989796285     1.788918312645

  Mulliken Charges: (a.u.)
   Center  Symbol    Alpha    Beta     Spin     Total
       1     H     0.46700  0.46700  0.00000  0.06600
       2     C     3.04428  3.04428  0.00000 -0.08856
       3     O     4.19196  4.19196  0.00000 -0.38391
       4     H     0.44181  0.44181  0.00000  0.11637
       5     H     0.47024  0.47024  0.00000  0.05953
       6     C     2.87441  2.87441  0.00000  0.25118
       7     C     3.15430  3.15430  0.00000 -0.30859
       8     C     3.14142  3.14142  0.00000 -0.28285
       9     C     3.17119  3.17119  0.00000 -0.34238
      10     H     0.44741  0.44741  0.00000  0.10518
      11     H     0.44979  0.44979  0.00000  0.10042
      12     H     0.45180  0.45180  0.00000  0.09640
      13     H     0.44782  0.44782  0.00000  0.10435
      14     H     0.45937  0.45937  0.00000  0.08126
      15     H     0.45050  0.45050  0.00000  0.09900
      16     H     0.44658  0.44658  0.00000  0.10684
      17     H     0.44529  0.44529  0.00000  0.10941
      18     H     0.44482  0.44482  0.00000  0.11036

   Total alpha = 25.00000, Total beta = 25.00000, Total charge = -0.00000
