                              Psi4 1.0.54 Driver

  ==> Input File <==

--------------------------------------------------------------------------
set {
	reference rhf
	basis cc-pvtz
}

set_num_threads( 4 )
memory 2 gb

molecule MOL {
0 1

H	 -3.642953	 0.223825	 0.000000
C	 -2.571844	 0.155001	 0.000000
C	 -1.957580	 -1.086132	 0.000000
C	 -1.807160	 1.303787	 0.000000
H	 -2.551493	 -1.979629	 0.000000
C	 -0.582719	 -1.174294	 0.000000
H	 -2.279934	 2.266806	 0.000000
C	 -0.427220	 1.213406	 0.000000
H	 -0.094904	 -2.127556	 0.000000
C	 0.196908	 -0.024061	 0.000000
H	 0.151409	 2.115254	 0.000000
C	 1.690041	 -0.173233	 0.000000
C	 2.291486	 -1.540821	 0.229406
O	 2.391445	 0.771075	 -0.177977
H	 1.991439	 -1.935225	 1.192940
H	 3.365670	 -1.453147	 0.195194
H	 1.961210	 -2.237800	 -0.531593

	symmetry c1
}
set optking {
	frozen_dihedral = ("
		13 12 10 8
	")
}

ee,wfn = optimize('scf', return_wfn=True)
oeprop( wfn, 'DIPOLE', 'QUADRUPOLE', 'MULLIKEN_CHARGES')
f=open( 'psi4out.xyz', 'w' )
f.write( "17  " )
f.write( str(ee) + "\n" )
f.write( MOL.save_string_xyz() )
f.close()
--------------------------------------------------------------------------

    Molecular point group: c1
  Charge       = 0
  Multiplicity = 1
  Basis Set: CC-PVTZ
  Basis Set:
  @DF-RHF Final Energy:  -382.60379109649676
    Total Energy =                       -382.6037910964967068
    Molecular point group: c1
  Basis Set: CC-PVTZ
  Basis Set:
  Basis Set: CC-PVTZ
  Basis Set:
  @DF-RHF Final Energy:  -382.60368920082539
    Total Energy =                       -382.6036892008256700
  Basis Set: CC-PVTZ
  Basis Set:
  Basis Set: CC-PVTZ
  Basis Set:
  @DF-RHF Final Energy:  -382.60507667876647
    Total Energy =                       -382.6050766787664088
  Basis Set: CC-PVTZ
  Basis Set:
  Basis Set: CC-PVTZ
  Basis Set:
  @DF-RHF Final Energy:  -382.60473115888442
    Total Energy =                       -382.6047311588846469
  Basis Set: CC-PVTZ
  Basis Set:
  Basis Set: CC-PVTZ
  Basis Set:
  @DF-RHF Final Energy:  -382.60561390587173
    Total Energy =                       -382.6056139058717918
  Basis Set: CC-PVTZ
  Basis Set:
  Basis Set: CC-PVTZ
  Basis Set:
  @DF-RHF Final Energy:  -382.60563357106020
    Total Energy =                       -382.6056335710605936
  Basis Set: CC-PVTZ
  Basis Set:
  Charge       = 0
  Multiplicity = 1
  Basis Set: CC-PVTZ
  Basis Set:

    Orbital Energies (a.u.)
    -----------------------

    Doubly Occupied:

       1A    -20.540491     2A    -11.327788     3A    -11.246855
       4A    -11.244397     5A    -11.242627     6A    -11.239029
       7A    -11.238912     8A    -11.236650     9A    -11.228890
      10A     -1.401987    11A     -1.171210    12A     -1.053454
      13A     -1.030732    14A     -0.998825    15A     -0.864593
      16A     -0.838925    17A     -0.763578    18A     -0.713366
      19A     -0.658696    20A     -0.651993    21A     -0.628681
      22A     -0.610622    23A     -0.602530    24A     -0.600735
      25A     -0.555376    26A     -0.529392    27A     -0.521950
      28A     -0.503664    29A     -0.497765    30A     -0.414416
      31A     -0.350973    32A     -0.346813

  @DF-RHF Final Energy:  -382.60563501661937

   => Energetics <=

    Nuclear Repulsion Energy =            404.5017673328185879
    One-Electron Energy =               -1320.5029834581453088
    Two-Electron Energy =                 533.3955811087073471
    DFT Exchange-Correlation Energy =       0.0000000000000000
    Empirical Dispersion Energy =           0.0000000000000000
    PCM Polarization Energy =               0.0000000000000000
    EFP Energy =                            0.0000000000000000
    Total Energy =                       -382.6056350166193170
    Molecular point group: c1
  Basis Set: CC-PVTZ
  Basis Set:

  -Total Gradient:
     Atom            X                  Y                   Z
    ------   -----------------  -----------------  -----------------
       1       -0.000001597022    -0.000005152861    -0.000005855030
       2        0.000038520805     0.000193221926     0.000030720435
       3        0.000155747950    -0.000102994784     0.000012581671
       4       -0.000159654656    -0.000084938839    -0.000022198520
       5       -0.000005840175     0.000013409754    -0.000001428299
       6       -0.000143981207    -0.000046197745    -0.000035928495
       7        0.000004244551     0.000005686840     0.000001882386
       8        0.000081484696    -0.000200044172     0.000949029750
       9        0.000021417913    -0.000004583521     0.000016982027
      10        0.000052253319     0.000320625021    -0.000945609974
      11       -0.000002788216    -0.000004892704     0.000001781430
      12        0.000056213773     0.000007911089    -0.000871677177
      13        0.000015788928     0.000062334611     0.000891828824
      14       -0.000090270080    -0.000135829326     0.000002231383
      15        0.000004625398     0.000003392615    -0.000032147758
      16       -0.000024995863    -0.000011606450    -0.000001052994
      17       -0.000001170113    -0.000010341450     0.000008860344

  **** Optimization is complete! (in 7 steps) ****
    Final optimized geometry and variables:
    Molecular point group: c1

    Geometry (in Angstrom), charge = 0, multiplicity = 1:

    H           -3.632802755893     0.347937832341     0.015137924115
    C           -2.564062184254     0.248854836450     0.007513691733
    C           -1.988026874936    -0.997311444033    -0.135185354898
    C           -1.763633862465     1.370592497541     0.142420749074
    H           -2.605438630987    -1.868402721731    -0.240168088906
    C           -0.611089323611    -1.123962145158    -0.140089566829
    H           -2.210635249288     2.339266720743     0.256547049536
    C           -0.391611820054     1.243465991010     0.129778606234
    H           -0.179872129113    -2.099183186364    -0.247373986181
    C            0.198349723577    -0.006102528724    -0.013512652595
    H            0.238938506461     2.103415168411     0.228857892546
    C            1.696594840098    -0.092913043042    -0.010675846915
    C            2.350974242976    -1.453470685417     0.064684867004
    O            2.358950069918     0.894156830600    -0.049759788372
    H            2.000558894189    -2.001096560505     0.931045020264
    H            3.419054403458    -1.318105692606     0.126386399870
    H            2.115741248410    -2.040138716792    -0.815735567851

  Mulliken Charges: (a.u.)
   Center  Symbol    Alpha    Beta     Spin     Total
       1     H     0.42023  0.42023  0.00000  0.15955
       2     C     3.07256  3.07256  0.00000 -0.14511
       3     C     3.07723  3.07723  0.00000 -0.15447
       4     C     3.07447  3.07447  0.00000 -0.14894
       5     H     0.42235  0.42235  0.00000  0.15529
       6     C     3.08646  3.08646  0.00000 -0.17293
       7     H     0.42027  0.42027  0.00000  0.15945
       8     C     3.07471  3.07471  0.00000 -0.14942
       9     H     0.42149  0.42149  0.00000  0.15703
      10     C     3.01119  3.01119  0.00000 -0.02237
      11     H     0.40715  0.40715  0.00000  0.18569
      12     C     2.83457  2.83457  0.00000  0.33085
      13     C     3.16738  3.16738  0.00000 -0.33475
      14     O     4.18369  4.18369  0.00000 -0.36738
      15     H     0.44623  0.44623  0.00000  0.10754
      16     H     0.43190  0.43190  0.00000  0.13621
      17     H     0.44812  0.44812  0.00000  0.10376

   Total alpha = 32.00000, Total beta = 32.00000, Total charge = -0.00000

*** Psi4 exiting successfully. Buy a developer a beer!
