                              Psi4 1.0.54 Driver

  ==> Input File <==

--------------------------------------------------------------------------
set {
	reference rhf
	basis cc-pvtz
}

set_num_threads( 4 )
memory 2 gb

molecule MOL {
0 1

O	 -1.278239	 1.034789	 -0.784693
C	 -1.204115	 0.062668	 -0.112312
C	 -2.386398	 -0.667698	 0.460323
O	 -0.068058	 -0.518372	 0.226882
H	 -2.382952	 -1.693172	 0.114333
H	 -3.296656	 -0.175702	 0.158400
H	 -2.312537	 -0.685191	 1.540100
C	 -0.078488	 -1.883441	 0.657320
C	 1.126301	 -2.052293	 1.561247
C	 -0.049520	 -2.804666	 -0.548960
H	 -0.987212	 -2.047815	 1.216150
H	 1.070102	 -1.375382	 2.404090
H	 1.167452	 -3.066867	 1.938949
H	 2.043342	 -1.850187	 1.020761
H	 -0.045030	 -3.838711	 -0.224566
H	 -0.919725	 -2.649819	 -1.171386
H	 0.841860	 -2.628368	 -1.140268

	symmetry c1
}
set optking {
	frozen_dihedral = ("
		8 4 2 1
	")
}

ee,wfn = optimize('scf', return_wfn=True)
oeprop( wfn, 'DIPOLE', 'QUADRUPOLE', 'MULLIKEN_CHARGES')
f=open( 'psi4out.xyz', 'w' )
f.write( "17  " )
f.write( str(ee) + "\n" )
f.write( MOL.save_string_xyz() )
f.close()
--------------------------------------------------------------------------

    Molecular point group: c1
  Charge       = 0
  Multiplicity = 1
  Basis Set: CC-PVTZ
  Basis Set:
  @DF-RHF Final Energy:  -345.01680494004489
    Total Energy =                       -345.0168049400444943
    Molecular point group: c1
  Basis Set: CC-PVTZ
  Basis Set:
  Basis Set: CC-PVTZ
  Basis Set:
  @DF-RHF Final Energy:  -344.98021837346874
    Total Energy =                       -344.9802183734690857
  Basis Set: CC-PVTZ
  Basis Set:
  Basis Set: CC-PVTZ
  Basis Set:
  @DF-RHF Final Energy:  -345.02418910532418
    Total Energy =                       -345.0241891053243535
  Basis Set: CC-PVTZ
  Basis Set:
  Basis Set: CC-PVTZ
  Basis Set:
  @DF-RHF Final Energy:  -345.01959501270341
    Total Energy =                       -345.0195950127032347
  Basis Set: CC-PVTZ
  Basis Set:
  @DF-RHF Final Energy:  -345.02837764575185
    Total Energy =                       -345.0283776457519593
  @DF-RHF Final Energy:  -345.01500710643353
    Total Energy =                       -345.0150071064332451
  @DF-RHF Final Energy:  -345.02812893204464
    Total Energy =                       -345.0281289320446376
  @DF-RHF Final Energy:  -345.02866636454161
    Total Energy =                       -345.0286663645420049
  Basis Set: CC-PVTZ
  Basis Set:
  @DF-RHF Final Energy:  -345.02872326931185
    Total Energy =                       -345.0287232693121950
  Basis Set: CC-PVTZ
  Basis Set:
  Basis Set: CC-PVTZ
  Basis Set:
  @DF-RHF Final Energy:  -345.02875867180217
    Total Energy =                       -345.0287586718022226
  Basis Set: CC-PVTZ
  Basis Set:
  Basis Set: CC-PVTZ
  Basis Set:
  @DF-RHF Final Energy:  -345.02876192780934
    Total Energy =                       -345.0287619278092848
  Basis Set: CC-PVTZ
  Basis Set:
  Charge       = 0
  Multiplicity = 1
  Basis Set: CC-PVTZ
  Basis Set:

    Orbital Energies (a.u.)
    -----------------------

    Doubly Occupied:

       1A    -20.587980     2A    -20.526509     3A    -11.367445
       4A    -11.302288     5A    -11.239463     6A    -11.226914
       7A    -11.223488     8A     -1.462769     9A     -1.365420
      10A     -1.078824    11A     -1.017013    12A     -0.957997
      13A     -0.862454    14A     -0.773951    15A     -0.700329
      16A     -0.670091    17A     -0.664549    18A     -0.624839
      19A     -0.596336    20A     -0.585134    21A     -0.563108
      22A     -0.557098    23A     -0.546315    24A     -0.532997
      25A     -0.509662    26A     -0.491149    27A     -0.444236
      28A     -0.434269

  @DF-RHF Final Energy:  -345.02876246575119

   => Energetics <=

    Nuclear Repulsion Energy =            323.0733056268230143
    One-Electron Energy =               -1110.3788787639700786
    Two-Electron Energy =                 442.2768106713958787
    DFT Exchange-Correlation Energy =       0.0000000000000000
    Empirical Dispersion Energy =           0.0000000000000000
    PCM Polarization Energy =               0.0000000000000000
    EFP Energy =                            0.0000000000000000
    Total Energy =                       -345.0287624657512424
    Molecular point group: c1
  Basis Set: CC-PVTZ
  Basis Set:

  -Total Gradient:
     Atom            X                  Y                   Z
    ------   -----------------  -----------------  -----------------
       1        0.000436325520    -0.001080718088    -0.000670301720
       2       -0.000240617703     0.001132453618     0.000476776783
       3       -0.000012115341     0.000063189371     0.000063257130
       4       -0.000791827455     0.000559748969     0.000932923667
       5        0.000018110838    -0.000027313529    -0.000016345479
       6       -0.000006802952    -0.000001059708    -0.000011214779
       7       -0.000016396912    -0.000023103757    -0.000012227851
       8        0.000625628148    -0.000620651101    -0.000738402652
       9       -0.000008406776     0.000008700260    -0.000006255634
      10        0.000000492706    -0.000027137009    -0.000022818221
      11       -0.000004158358    -0.000003201463     0.000003716211
      12        0.000000741780     0.000013734484     0.000012820604
      13        0.000000083036    -0.000001022535     0.000000314828
      14       -0.000000059955    -0.000003494593     0.000000703069
      15       -0.000001097411     0.000013296743    -0.000004037625
      16       -0.000004464386    -0.000006487686    -0.000012123166
      17        0.000004565221     0.000003066026     0.000003214837

  **** Optimization is complete! (in 12 steps) ****
    Final optimized geometry and variables:
    Molecular point group: c1

    Geometry (in Angstrom), charge = 0, multiplicity = 1:

    O           -0.217768504732     1.399991978056    -1.818221296089
    C           -0.518484567799     0.712853986352    -0.907917314368
    C           -1.906373349320     0.135183944389    -0.761434422902
    O            0.373399180326     0.466539616607     0.046029861782
    H           -1.889869112357    -0.946319332035    -0.793373267415
    H           -2.504965816163     0.504923635983    -1.576959888640
    H           -2.348770790964     0.436543922602     0.179763203380
    C            0.304727245636    -0.624731329909     0.953448036489
    C            1.073998646704    -0.199703651460     2.189452756779
    C            0.886341795190    -1.869873983911     0.304191760348
    H           -0.725294687788    -0.804726887772     1.230219319478
    H            0.634595042622     0.688917010553     2.623525937490
    H            1.059557826950    -0.989949422275     2.930459274632
    H            2.103651725114     0.018726879043     1.935836669609
    H            0.850928143490    -2.704586843772     0.994266683338
    H            0.335573454088    -2.146565490805    -0.586743642133
    H            1.917217343988    -1.696941475499     0.021714476113

  Mulliken Charges: (a.u.)
   Center  Symbol    Alpha    Beta     Spin     Total
       1     O     4.18252  4.18252  0.00000 -0.36503
       2     C     2.82081  2.82081  0.00000  0.35838
       3     C     3.16607  3.16607  0.00000 -0.33214
       4     O     4.14083  4.14083  0.00000 -0.28167
       5     H     0.44756  0.44756  0.00000  0.10488
       6     H     0.42657  0.42657  0.00000  0.14687
       7     H     0.44525  0.44525  0.00000  0.10950
       8     C     2.94958  2.94958  0.00000  0.10084
       9     C     3.13581  3.13581  0.00000 -0.27162
      10     C     3.14341  3.14341  0.00000 -0.28682
      11     H     0.45186  0.45186  0.00000  0.09628
      12     H     0.44551  0.44551  0.00000  0.10897
      13     H     0.45589  0.45589  0.00000  0.08821
      14     H     0.44686  0.44686  0.00000  0.10628
      15     H     0.44871  0.44871  0.00000  0.10257
      16     H     0.44887  0.44887  0.00000  0.10225
      17     H     0.44388  0.44388  0.00000  0.11225

   Total alpha = 28.00000, Total beta = 28.00000, Total charge =  0.00000

*** Psi4 exiting successfully. Buy a developer a beer!
