  ==> Input File <==

--------------------------------------------------------------------------
set {
	reference rhf
	basis cc-pvtz
}

set_num_threads( 4 )
memory 2 gb

molecule MOL {
0 1

H	 -2.485175	 -0.564361	 0.968006
O	 -2.346257	 -0.289210	 0.080372
C	 -1.183935	 0.486039	 -0.009831
C	 0.062853	 -0.375310	 0.027457
H	 -1.178881	 1.094526	 -0.908634
H	 -1.184406	 1.155156	 0.838676
O	 1.172093	 0.457955	 -0.054438
H	 0.052476	 -1.081302	 -0.804627
H	 0.076323	 -0.955658	 0.947560
C	 2.395478	 -0.199028	 -0.000366
H	 2.505946	 -0.901710	 -0.823354
H	 3.174616	 0.545641	 -0.071768
H	 2.513730	 -0.742241	 0.934223

	symmetry c1
}
set optking {
	frozen_dihedral = ("
		1 2 3 5
	")
}

ee = optimize('scf')
oeprop('DIPOLE', 'QUADRUPOLE', 'MULLIKEN_CHARGES')
f=open( 'psi4out.xyz', 'w' )
f.write( "13  " )
f.write( str(ee) + "\n" )
f.write( MOL.save_string_xyz() )
f.close()
--------------------------------------------------------------------------

    Molecular point group: c1
  Charge       = 0
  Multiplicity = 1
  Basis Set: CC-PVTZ
  Basis Set:
  @DF-RHF Final Energy:  -268.06066097335423
    Total Energy =                       -268.0606609733541177
    Molecular point group: c1
  Basis Set: CC-PVTZ
  Basis Set:
  Basis Set: CC-PVTZ
  Basis Set:
  @DF-RHF Final Energy:  -268.06193602338283
    Total Energy =                       -268.0619360233828274
  Basis Set: CC-PVTZ
  Basis Set:
  Basis Set: CC-PVTZ
  Basis Set:
  @DF-RHF Final Energy:  -268.06225732125790
    Total Energy =                       -268.0622573212576754
  Basis Set: CC-PVTZ
  Basis Set:
  Basis Set: CC-PVTZ
  Basis Set:
  @DF-RHF Final Energy:  -268.06226309978751
    Total Energy =                       -268.0622630997876286
  Basis Set: CC-PVTZ
  Basis Set:
  Charge       = 0
  Multiplicity = 1
  Basis Set: CC-PVTZ
  Basis Set:

    Orbital Energies (a.u.)
    -----------------------

    Doubly Occupied:

       1A    -20.555523     2A    -20.552798     3A    -11.268477
       4A    -11.267534     5A    -11.267394     6A     -1.391480
       7A     -1.369104     8A     -1.019580     9A     -0.913767
      10A     -0.841614    11A     -0.713070    12A     -0.676463
      13A     -0.661413    14A     -0.640200    15A     -0.598316
      16A     -0.568417    17A     -0.547356    18A     -0.489748
      19A     -0.484797    20A     -0.441540    21A     -0.424211

  @DF-RHF Final Energy:  -268.06226362270974

   => Energetics <=

    Nuclear Repulsion Energy =            190.4631767930384854
    One-Electron Energy =                -743.6652773663325888
    Two-Electron Energy =                 285.1398369505843675
    DFT Exchange-Correlation Energy =       0.0000000000000000
    Empirical Dispersion Energy =           0.0000000000000000
    PCM Polarization Energy =               0.0000000000000000
    EFP Energy =                            0.0000000000000000
    Total Energy =                       -268.0622636227096791
    Molecular point group: c1
  Basis Set: CC-PVTZ
  Basis Set:

  -Total Gradient:
     Atom            X                  Y                   Z
    ------   -----------------  -----------------  -----------------
       1       -0.000252155873     0.000395122302     0.000049004625
       2        0.000256187123    -0.000414132469    -0.000015801128
       3        0.000159634033    -0.000304450667    -0.000189544881
       4       -0.000045857306     0.000041313748     0.000005167744
       5       -0.000164400134     0.000289736456     0.000178835950
       6       -0.000003537502    -0.000013993009     0.000001670855
       7        0.000035081242    -0.000013945779    -0.000012677230
       8        0.000005145004    -0.000003542499    -0.000003395451
       9       -0.000011840816     0.000013615852    -0.000017175456
      10        0.000014827937     0.000015259764     0.000008399204
      11       -0.000001229749     0.000001818860    -0.000000691883
      12        0.000007178538    -0.000004248558    -0.000003798599
      13        0.000000967507    -0.000002554000     0.000000006250

  **** Optimization is complete! (in 5 steps) ****
    Final optimized geometry and variables:
    Molecular point group: c1

    Geometry (in Angstrom), charge = 0, multiplicity = 1:

    H           -2.528897329852    -0.557642602360     0.906306663600
    O           -2.344565863292    -0.299554177077     0.022205384591
    C           -1.184148579400     0.483378600079    -0.022559632044
    C            0.063437401522    -0.375904182016     0.023256087323
    H           -1.208006645767     1.037137725509    -0.950410408573
    H           -1.158504400767     1.205005104245     0.787640586085
    O            1.172152889313     0.460026151030    -0.040938503031
    H            0.052785698964    -1.076182371966    -0.809240648019
    H            0.077680884174    -0.961630129731     0.943445167955
    C            2.395423655818    -0.199236293042    -0.039486103332
    H            2.488810629392    -0.865140493212    -0.894117693436
    H            3.174160037606     0.547399588482    -0.092646151306
    H            2.531232726641    -0.783160574176     0.868192361691

  Mulliken Charges: (a.u.)
   Center  Symbol    Alpha    Beta     Spin     Total
       1     H     0.39352  0.39352  0.00000  0.21295
       2     O     4.20278  4.20278  0.00000 -0.40557
       3     C     2.97464  2.97464  0.00000  0.05072
       4     C     2.96329  2.96329  0.00000  0.07342
       5     H     0.45292  0.45292  0.00000  0.09417
       6     H     0.46683  0.46683  0.00000  0.06634
       7     O     4.17571  4.17571  0.00000 -0.35141
       8     H     0.46986  0.46986  0.00000  0.06027
       9     H     0.48163  0.48163  0.00000  0.03674
      10     C     3.03166  3.03166  0.00000 -0.06332
      11     H     0.46985  0.46985  0.00000  0.06031
      12     H     0.44605  0.44605  0.00000  0.10790
      13     H     0.47125  0.47125  0.00000  0.05750

   Total alpha = 21.00000, Total beta = 21.00000, Total charge = -0.00000
