                              Psi4 1.0.54 Driver

  ==> Input File <==

--------------------------------------------------------------------------
set {
	reference rhf
	basis cc-pvtz
}

set_num_threads( 4 )
memory 2 gb

molecule MOL {
0 1

H	 2.843351	 -1.786801	 -1.481730
O	 2.295703	 -1.667945	 -0.720381
C	 1.531868	 -0.596491	 -0.915251
C	 0.626018	 -0.337582	 0.258241
O	 1.591178	 0.045273	 -1.906444
C	 -0.267326	 0.883135	 0.076490
H	 0.052487	 -1.243209	 0.415596
H	 1.261019	 -0.232573	 1.132416
C	 -1.726822	 0.642622	 0.463839
H	 -0.210803	 1.217591	 -0.953497
H	 0.129920	 1.693110	 0.675679
C	 -2.480891	 -0.340606	 -0.429852
H	 -2.243098	 1.597649	 0.438609
H	 -1.776542	 0.301208	 1.495542
C	 -3.955933	 -0.460128	 -0.060472
H	 -2.393755	 -0.020485	 -1.464726
H	 -2.024244	 -1.323637	 -0.374360
H	 -4.467673	 -1.160944	 -0.709827
H	 -4.458917	 0.497287	 -0.144505
H	 -4.076458	 -0.806900	 0.960497

	symmetry c1
}
set optking {
	frozen_dihedral = ("
		7 4 6 10
	")
}

ee,wfn = optimize('scf', return_wfn=True)
oeprop( wfn, 'DIPOLE', 'QUADRUPOLE', 'MULLIKEN_CHARGES')
f=open( 'psi4out.xyz', 'w' )
f.write( "20  " )
f.write( str(ee) + "\n" )
f.write( MOL.save_string_xyz() )
f.close()
--------------------------------------------------------------------------

    Molecular point group: c1
  Charge       = 0
  Multiplicity = 1
  Basis Set: CC-PVTZ
  Basis Set:
  @DF-RHF Final Energy:  -384.09059378196480
    Total Energy =                       -384.0905937819643441
    Molecular point group: c1
  Basis Set: CC-PVTZ
  Basis Set:
  Basis Set: CC-PVTZ
  Basis Set:
  @DF-RHF Final Energy:  -384.08993035685705
    Total Energy =                       -384.0899303568571668
  Basis Set: CC-PVTZ
  Basis Set:
  Basis Set: CC-PVTZ
  Basis Set:
  @DF-RHF Final Energy:  -384.09104033252788
    Total Energy =                       -384.0910403325279390
  Basis Set: CC-PVTZ
  Basis Set:
  Basis Set: CC-PVTZ
  Basis Set:
  @DF-RHF Final Energy:  -384.09097644088803
    Total Energy =                       -384.0909764408881983
  Basis Set: CC-PVTZ
  Basis Set:
  Basis Set: CC-PVTZ
  Basis Set:
  @DF-RHF Final Energy:  -384.09092179369907
    Total Energy =                       -384.0909217936991809
  Basis Set: CC-PVTZ
  Basis Set:
  Basis Set: CC-PVTZ
  Basis Set:
  @DF-RHF Final Energy:  -384.09114614495599
    Total Energy =                       -384.0911461449562694
  Basis Set: CC-PVTZ
  Basis Set:
  Basis Set: CC-PVTZ
  Basis Set:
  @DF-RHF Final Energy:  -384.09114830051413
    Total Energy =                       -384.0911483005143054
  Basis Set: CC-PVTZ
  Basis Set:
  Charge       = 0
  Multiplicity = 1
  Basis Set: CC-PVTZ
  Basis Set:

    Orbital Energies (a.u.)
    -----------------------

    Doubly Occupied:

       1A    -20.604093     2A    -20.541161     3A    -11.374266
       4A    -11.238701     5A    -11.219583     6A    -11.217865
       7A    -11.216316     8A    -11.209180     9A     -1.478014
      10A     -1.369402    11A     -1.095376    12A     -1.040365
      13A     -0.962276    14A     -0.870653    15A     -0.815134
      16A     -0.779161    17A     -0.704492    18A     -0.694911
      19A     -0.664102    20A     -0.634849    21A     -0.606440
      22A     -0.595225    23A     -0.577391    24A     -0.557423
      25A     -0.531893    26A     -0.514221    27A     -0.496162
      28A     -0.484799    29A     -0.471082    30A     -0.466920
      31A     -0.454509    32A     -0.448289

  @DF-RHF Final Energy:  -384.09114854034925

   => Energetics <=

    Nuclear Repulsion Energy =            379.9724596234812566
    One-Electron Energy =               -1276.2587052845196922
    Two-Electron Energy =                 512.1950971206891836
    DFT Exchange-Correlation Energy =       0.0000000000000000
    Empirical Dispersion Energy =           0.0000000000000000
    PCM Polarization Energy =               0.0000000000000000
    EFP Energy =                            0.0000000000000000
    Total Energy =                       -384.0911485403493089
    Molecular point group: c1
  Basis Set: CC-PVTZ
  Basis Set:

  -Total Gradient:
     Atom            X                  Y                   Z
    ------   -----------------  -----------------  -----------------
       1        0.000003017404     0.000003477471     0.000000536005
       2        0.000004756840    -0.000027027272     0.000013685608
       3       -0.000022472832    -0.000006683364    -0.000001415547
       4        0.000175706182    -0.000000585673    -0.002266450152
       5        0.000002497770     0.000037152980    -0.000006209412
       6       -0.001695039752    -0.001310934100    -0.000059126635
       7        0.000101932613     0.000189225021     0.001866977724
       8        0.000017908003     0.000012825539     0.000015974256
       9        0.000007010440    -0.000003627132    -0.000006359894
      10        0.001402054509     0.001107847026     0.000436748606
      11        0.000002933997     0.000007877593    -0.000003120601
      12        0.000001146981    -0.000018782769     0.000020864965
      13       -0.000003831858     0.000010970724     0.000007306768
      14        0.000004508687    -0.000007150211     0.000002252704
      15        0.000000137059     0.000011750855    -0.000012725297
      16       -0.000001979583     0.000003736142    -0.000010493345
      17        0.000009143492    -0.000013997608    -0.000002075264
      18       -0.000006880262    -0.000002981685    -0.000014036867
      19       -0.000009650488     0.000015476780     0.000007992441
      20        0.000007100796    -0.000008570317     0.000009673932

  **** Optimization is complete! (in 8 steps) ****
    Final optimized geometry and variables:
    Molecular point group: c1

    Geometry (in Angstrom), charge = 0, multiplicity = 1:

    H            3.155083439269    -1.427178100972    -1.166619493088
    O            2.607559829488    -1.350638272992    -0.399816329819
    C            1.810369206478    -0.297241093170    -0.556268902001
    C            0.904049590758    -0.113935688184     0.632229283487
    O            1.847713012558     0.377989201214    -1.526096519824
    C           -0.028386552660     1.102218412972     0.556578054226
    H            0.356030114012    -1.040810535164     0.754034040106
    H            1.548867009749    -0.060265396191     1.502235592358
    C           -1.465590409395     0.814128375990     0.993408562104
    H           -0.017307726841     1.498760135306    -0.449613336075
    H            0.376932923110     1.886082872104     1.186037991156
    C           -2.267230130210    -0.027771282435     0.002516265052
    H           -1.977511271968     1.761383820139     1.134606790962
    H           -1.461677235081     0.326553046463     1.966051178158
    C           -3.694021320155    -0.295278026977     0.470599573867
    H           -2.290520440216     0.483219365471    -0.955544550559
    H           -1.769178066469    -0.976500815548    -0.173630121595
    H           -4.241782896865    -0.883033900981    -0.256861348222
    H           -4.236189490701     0.632121412969     0.622205061772
    H           -3.703151563098    -0.838993937312     1.409551126053

  Mulliken Charges: (a.u.)
   Center  Symbol    Alpha    Beta     Spin     Total
       1     H     0.38257  0.38257  0.00000  0.23485
       2     O     4.16035  4.16035  0.00000 -0.32071
       3     C     2.79884  2.79884  0.00000  0.40232
       4     C     3.12481  3.12481  0.00000 -0.24963
       5     O     4.19084  4.19084  0.00000 -0.38168
       6     C     3.10186  3.10186  0.00000 -0.20373
       7     H     0.43518  0.43518  0.00000  0.12964
       8     H     0.42864  0.42864  0.00000  0.14272
       9     C     3.09834  3.09834  0.00000 -0.19668
      10     H     0.43578  0.43578  0.00000  0.12844
      11     H     0.44485  0.44485  0.00000  0.11030
      12     C     3.08520  3.08520  0.00000 -0.17040
      13     H     0.44659  0.44659  0.00000  0.10683
      14     H     0.45428  0.45428  0.00000  0.09144
      15     C     3.14990  3.14990  0.00000 -0.29980
      16     H     0.44958  0.44958  0.00000  0.10085
      17     H     0.45540  0.45540  0.00000  0.08921
      18     H     0.44745  0.44745  0.00000  0.10510
      19     H     0.45404  0.45404  0.00000  0.09191
      20     H     0.45549  0.45549  0.00000  0.08902

   Total alpha = 32.00000, Total beta = 32.00000, Total charge =  0.00000

*** Psi4 exiting successfully. Buy a developer a beer!
