                              Psi4 1.0.54 Driver

  ==> Input File <==

--------------------------------------------------------------------------
set {
	reference rhf
	basis cc-pvtz
}

set_num_threads( 4 )
memory 2 gb

molecule MOL {
0 1

H	 5.269878	 0.195679	 1.068175
C	 4.673900	 -0.208485	 0.258034
C	 3.190199	 -0.204714	 0.610086
H	 4.865136	 0.391893	 -0.624684
H	 5.027838	 -1.214511	 0.056939
C	 2.319208	 -0.778154	 -0.505491
H	 2.876954	 0.809861	 0.827925
H	 3.035335	 -0.782733	 1.518235
C	 3.035630	 -1.798579	 -1.384331
H	 1.438083	 -1.239122	 -0.076590
H	 1.974543	 0.034343	 -1.138608
C	 3.299983	 -3.137148	 -0.715875
H	 2.434487	 -2.013971	 -2.264104
H	 3.972969	 -1.398539	 -1.759674
C	 4.331394	 -4.046406	 -1.355260
O	 2.710029	 -3.475081	 0.259333
C	 3.950527	 -4.517993	 -2.762708
H	 4.455303	 -4.896447	 -0.698058
H	 5.278355	 -3.514722	 -1.397352
C	 4.961352	 -5.505808	 -3.339010
H	 2.970520	 -4.986018	 -2.729011
H	 3.865558	 -3.667149	 -3.431172
C	 4.590317	 -5.988978	 -4.736867
H	 5.047133	 -6.358843	 -2.672642
H	 5.942346	 -5.039454	 -3.366174
H	 3.627116	 -6.487899	 -4.735482
H	 4.532211	 -5.161043	 -5.435585
H	 5.324826	 -6.689860	 -5.115778

	symmetry c1
}
set optking {
	frozen_dihedral = ("
		10 6 3 2
	")
}

ee,wfn = optimize('scf', return_wfn=True)
oeprop( wfn, 'DIPOLE', 'QUADRUPOLE', 'MULLIKEN_CHARGES')
f=open( 'psi4out.xyz', 'w' )
f.write( "28  " )
f.write( str(ee) + "\n" )
f.write( MOL.save_string_xyz() )
f.close()
--------------------------------------------------------------------------

    Molecular point group: c1
  Charge       = 0
  Multiplicity = 1
  Basis Set: CC-PVTZ
  Basis Set:
  @DF-RHF Final Energy:  -426.31078375611719
    Total Energy =                       -426.3107837561174165
    Molecular point group: c1
  Basis Set: CC-PVTZ
  Basis Set:
  Basis Set: CC-PVTZ
  Basis Set:
  @DF-RHF Final Energy:  -426.31082378001554
    Total Energy =                       -426.3108237800151983
  Basis Set: CC-PVTZ
  Basis Set:
  Basis Set: CC-PVTZ
  Basis Set:
  @DF-RHF Final Energy:  -426.31361567414228
    Total Energy =                       -426.3136156741418290
  Basis Set: CC-PVTZ
  Basis Set:
  Basis Set: CC-PVTZ
  Basis Set:
  @DF-RHF Final Energy:  -426.31393814754938
    Total Energy =                       -426.3139381475491518
  Basis Set: CC-PVTZ
  Basis Set:
  @DF-RHF Final Energy:  -426.31400856887160
    Total Energy =                       -426.3140085688711451
  @DF-RHF Final Energy:  -426.31404256602809
    Total Energy =                       -426.3140425660279789
  @DF-RHF Final Energy:  -426.31405071655900
    Total Energy =                       -426.3140507165593363
  @DF-RHF Final Energy:  -426.31406497568435
    Total Energy =                       -426.3140649756838911
  @DF-RHF Final Energy:  -426.31406863136954
    Total Energy =                       -426.3140686313690821
  @DF-RHF Final Energy:  -426.31407086764818
    Total Energy =                       -426.3140708676482973
  Basis Set: CC-PVTZ
  Basis Set:
  @DF-RHF Final Energy:  -426.31407238588520
    Total Energy =                       -426.3140723858846286
  Basis Set: CC-PVTZ
  Basis Set:
  Basis Set: CC-PVTZ
  Basis Set:
  @DF-RHF Final Energy:  -426.31404648235605
    Total Energy =                       -426.3140464823563889
  Basis Set: CC-PVTZ
  Basis Set:
  Basis Set: CC-PVTZ
  Basis Set:
  @DF-RHF Final Energy:  -426.31407235263839
    Total Energy =                       -426.3140723526385045
  Basis Set: CC-PVTZ
  Basis Set:
  Charge       = 0
  Multiplicity = 1
  Basis Set: CC-PVTZ
  Basis Set:

    Orbital Energies (a.u.)
    -----------------------

    Doubly Occupied:

       1A    -20.536738     2A    -11.316068     3A    -11.229648
       4A    -11.226955     5A    -11.226695     6A    -11.223575
       7A    -11.215244     8A    -11.214012     9A    -11.210138
      10A    -11.207667    11A     -1.396423    12A     -1.095601
      13A     -1.076829    14A     -1.021687    15A     -0.989304
      16A     -0.913591    17A     -0.881340    18A     -0.808779
      19A     -0.791757    20A     -0.719740    21A     -0.669766
      22A     -0.653236    23A     -0.638643    24A     -0.622509
      25A     -0.610523    26A     -0.596711    27A     -0.577683
      28A     -0.555410    29A     -0.545286    30A     -0.537322
      31A     -0.530578    32A     -0.508219    33A     -0.505375
      34A     -0.484972    35A     -0.477865    36A     -0.475436
      37A     -0.468432    38A     -0.460968    39A     -0.457845
      40A     -0.393256

  @DF-RHF Final Energy:  -426.31407312897204

   => Energetics <=

    Nuclear Repulsion Energy =            541.8888877878949870
    One-Electron Energy =               -1652.2622708248331946
    Two-Electron Energy =                 684.0593099079659396
    DFT Exchange-Correlation Energy =       0.0000000000000000
    Empirical Dispersion Energy =           0.0000000000000000
    PCM Polarization Energy =               0.0000000000000000
    EFP Energy =                            0.0000000000000000
    Total Energy =                       -426.3140731289723817
    Molecular point group: c1
  Basis Set: CC-PVTZ
  Basis Set:

  -Total Gradient:
     Atom            X                  Y                   Z
    ------   -----------------  -----------------  -----------------
       1       -0.000017953828    -0.000021873921    -0.000013087367
       2        0.000692505446    -0.003757487757     0.001633118680
       3       -0.000055923882     0.004390878202    -0.002196308242
       4       -0.000009367094     0.000007105938     0.000008477411
       5        0.000005306947     0.000037004237     0.000007051085
       6       -0.003336085389     0.003906955103     0.000067217492
       7       -0.000128571319    -0.000053342146     0.000020925026
       8       -0.000089506712     0.000054910109    -0.000016911899
       9       -0.000142966862    -0.000074681242     0.000017653024
      10        0.003068366096    -0.004553079618     0.000560856334
      11       -0.000012508755    -0.000019996883    -0.000045198626
      12        0.000035059573     0.000033094741     0.000024794768
      13       -0.000004445298     0.000009550039    -0.000003419847
      14        0.000031525555     0.000003170091    -0.000015694696
      15       -0.000100251441    -0.000076508656    -0.000066050233
      16        0.000008044522     0.000050144479    -0.000017871612
      17        0.000052615457     0.000001917604     0.000003251964
      18        0.000014460529     0.000005081740     0.000013292102
      19        0.000020773610     0.000040248982     0.000017204240
      20       -0.000011008484     0.000006898861     0.000019896357
      21       -0.000026318548    -0.000007863394    -0.000013672071
      22        0.000000251173     0.000010731589    -0.000018035510
      23        0.000013082845    -0.000009774877     0.000008866517
      24        0.000009333612    -0.000007421757     0.000011916893
      25        0.000010876881     0.000004213203     0.000000607060
      26       -0.000008855942    -0.000003349328    -0.000004195441
      27       -0.000008168617     0.000007746544    -0.000015346175
      28       -0.000010270077     0.000015728110     0.000010662771

  **** Optimization is complete! (in 14 steps) ****
    Final optimized geometry and variables:
    Molecular point group: c1

    Geometry (in Angstrom), charge = 0, multiplicity = 1:

    H            1.215094022414     3.542033858109     2.570323264902
    C            0.805319836644     3.015411037452     1.716398741395
    C           -0.702671201553     2.840857401672     1.882003253807
    H            1.055769151244     3.589681739183     0.829481957524
    H            1.317109335872     2.062735202713     1.653447422105
    C           -1.450547628245     2.182402185727     0.705357772893
    H           -1.155526471443     3.807835096310     2.072898846412
    H           -0.870960636341     2.246259878683     2.771198764286
    C           -0.659538797232     1.170043160230    -0.123781288088
    H           -2.305239910514     1.650322843879     1.102112783722
    H           -1.815719250452     2.946315439917     0.027710509731
    C           -0.282162854224    -0.099162290957     0.617470726609
    H           -1.266863355859     0.859588839607    -0.970291419677
    H            0.234664228660     1.605822025318    -0.554685671789
    C            0.742724375174    -1.010789314492    -0.029799772061
    O           -0.782447712989    -0.386395775992     1.657410929990
    C            0.242296988387    -1.672062551340    -1.318884313942
    H            0.999346878237    -1.767270820355     0.699473046619
    H            1.637758130345    -0.433715969112    -0.245029005792
    C            1.251230367027    -2.661862368218    -1.894809271151
    H           -0.691467393625    -2.188575553778    -1.114895641930
    H            0.022559105254    -0.915131466836    -2.065131155073
    C            0.764443225335    -3.328536173433    -3.176839205738
    H            1.469101665813    -3.423060423187    -1.151696632189
    H            2.188065526159    -2.146666142294    -2.088425022085
    H           -0.154704005007    -3.878939966174    -3.006866629898
    H            0.571024472166    -2.594334718527    -3.951847771534
    H            1.501123377760    -4.025480791131    -3.558697760945

  Mulliken Charges: (a.u.)
   Center  Symbol    Alpha    Beta     Spin     Total
       1     H     0.44267  0.44267  0.00000  0.11467
       2     C     3.15938  3.15938  0.00000 -0.31876
       3     C     3.09141  3.09141  0.00000 -0.18283
       4     H     0.45548  0.45548  0.00000  0.08905
       5     H     0.45490  0.45490  0.00000  0.09020
       6     C     3.09311  3.09311  0.00000 -0.18623
       7     H     0.44876  0.44876  0.00000  0.10248
       8     H     0.44250  0.44250  0.00000  0.11500
       9     C     3.13641  3.13641  0.00000 -0.27282
      10     H     0.44404  0.44404  0.00000  0.11193
      11     H     0.44546  0.44546  0.00000  0.10908
      12     C     2.86695  2.86695  0.00000  0.26610
      13     H     0.43039  0.43039  0.00000  0.13922
      14     H     0.43975  0.43975  0.00000  0.12051
      15     C     3.09128  3.09128  0.00000 -0.18257
      16     O     4.17891  4.17891  0.00000 -0.35782
      17     C     3.10015  3.10015  0.00000 -0.20031
      18     H     0.43791  0.43791  0.00000  0.12418
      19     H     0.44907  0.44907  0.00000  0.10186
      20     C     3.08696  3.08696  0.00000 -0.17391
      21     H     0.44537  0.44537  0.00000  0.10925
      22     H     0.45078  0.45078  0.00000  0.09843
      23     C     3.14942  3.14942  0.00000 -0.29884
      24     H     0.44993  0.44993  0.00000  0.10014
      25     H     0.45358  0.45358  0.00000  0.09283
      26     H     0.45338  0.45338  0.00000  0.09324
      27     H     0.45522  0.45522  0.00000  0.08956
      28     H     0.44683  0.44683  0.00000  0.10634

   Total alpha = 40.00000, Total beta = 40.00000, Total charge =  0.00000

*** Psi4 exiting successfully. Buy a developer a beer!
