  ==> Input File <==

--------------------------------------------------------------------------
set {
	reference rhf
	basis cc-pvtz
}

set_num_threads( 4 )
memory 2 gb

molecule MOL {
0 1

H	 3.190010	 1.352731	 -1.292853
N	 2.425067	 0.712329	 -1.311942
C	 1.860978	 0.530248	 0.016256
H	 2.773059	 -0.151423	 -1.672751
C	 0.644130	 -0.381765	 -0.031064
H	 1.562808	 1.505537	 0.386138
H	 2.580990	 0.130968	 0.731877
C	 -0.678115	 0.376691	 0.025731
H	 0.693998	 -0.977147	 -0.936845
H	 0.693309	 -1.082142	 0.800523
C	 -1.900706	 -0.535531	 -0.022488
H	 -0.725296	 1.079516	 -0.802982
H	 -0.715474	 0.974884	 0.933278
C	 -3.220513	 0.226854	 0.028039
H	 -1.865036	 -1.134397	 -0.928236
H	 -1.857948	 -1.236381	 0.806820
H	 -3.309098	 0.911849	 -0.808725
H	 -4.066838	 -0.449485	 -0.008086
H	 -3.301685	 0.809374	 0.939860

	symmetry c1
}
set optking {
	frozen_dihedral = ("
		6 3 5 9
	")
}

ee = optimize('scf')
oeprop('DIPOLE', 'QUADRUPOLE', 'MULLIKEN_CHARGES')
f=open( 'psi4out.xyz', 'w' )
f.write( "19  " )
f.write( str(ee) + "\n" )
f.write( MOL.save_string_xyz() )
f.close()
--------------------------------------------------------------------------

    Molecular point group: c1
  Charge       = 0
  Multiplicity = 1
  Basis Set: CC-PVTZ
  Basis Set:
  @DF-RHF Final Energy:  -251.44333655646423
    Total Energy =                       -251.4433365564644873
    Molecular point group: c1
  Basis Set: CC-PVTZ
  Basis Set:
  Basis Set: CC-PVTZ
  Basis Set:
  @DF-RHF Final Energy:  -251.44385354949858
    Total Energy =                       -251.4438535494985558
  Basis Set: CC-PVTZ
  Basis Set:
  Basis Set: CC-PVTZ
  Basis Set:
  @DF-RHF Final Energy:  -251.44396329942390
    Total Energy =                       -251.4439632994240128
  Basis Set: CC-PVTZ
  Basis Set:
  Basis Set: CC-PVTZ
  Basis Set:
  @DF-RHF Final Energy:  -251.44396681556404
    Total Energy =                       -251.4439668155638969
  Basis Set: CC-PVTZ
  Basis Set:
  Charge       = 0
  Multiplicity = 1
  Basis Set: CC-PVTZ
  Basis Set:

    Orbital Energies (a.u.)
    -----------------------

    Doubly Occupied:

       1A    -15.526953     2A    -11.238363     3A    -11.208675
       4A    -11.207714     5A    -11.205540     6A    -11.202828
       7A     -1.177574     8A     -1.070303     9A     -0.996187
      10A     -0.899828    11A     -0.813240    12A     -0.786416
      13A     -0.662055    14A     -0.645973    15A     -0.614780
      16A     -0.588463    17A     -0.556407    18A     -0.546473
      19A     -0.537557    20A     -0.486831    21A     -0.486358
      22A     -0.459438    23A     -0.458939    24A     -0.452991
      25A     -0.381781

  @DF-RHF Final Energy:  -251.44396743978265

   => Energetics <=

    Nuclear Repulsion Energy =            247.8353409747282114
    One-Electron Energy =                -830.1352792483479561
    Two-Electron Energy =                 330.8559708338370342
    DFT Exchange-Correlation Energy =       0.0000000000000000
    Empirical Dispersion Energy =           0.0000000000000000
    PCM Polarization Energy =               0.0000000000000000
    EFP Energy =                            0.0000000000000000
    Total Energy =                       -251.4439674397827389
    Molecular point group: c1
  Basis Set: CC-PVTZ
  Basis Set:

  -Total Gradient:
     Atom            X                  Y                   Z
    ------   -----------------  -----------------  -----------------
       1        0.000013572899     0.000005013978    -0.000038099326
       2        0.000044993961     0.000017635848     0.000035735847
       3        0.000592667473    -0.000820954576     0.004302091679
       4       -0.000004092923     0.000011425735     0.000016386277
       5        0.002471362665    -0.003293329090     0.001478788556
       6       -0.000922993528     0.001170594336    -0.003865329718
       7       -0.000020249033    -0.000017191283    -0.000028115220
       8        0.000019980863     0.000031028056     0.000055666674
       9       -0.002159848868     0.002873653061    -0.001959830045
      10        0.000003527648     0.000031171478     0.000009221285
      11       -0.000002263282     0.000002927663    -0.000020398151
      12        0.000012761223    -0.000005424933     0.000016135445
      13       -0.000017582537     0.000003794491     0.000006619714
      14       -0.000017936357    -0.000012439271     0.000000300884
      15       -0.000004433659    -0.000013099780     0.000000399565
      16       -0.000002376880     0.000011231460    -0.000006357688
      17       -0.000000307574    -0.000001267759    -0.000002471374
      18       -0.000008796018     0.000005641519     0.000001294587
      19        0.000002013928    -0.000000410931    -0.000002038992

  **** Optimization is complete! (in 5 steps) ****
    Final optimized geometry and variables:
    Molecular point group: c1

    Geometry (in Angstrom), charge = 0, multiplicity = 1:

    H            3.202396130957     1.239358863031    -1.140841282839
    N            2.475087774995     0.556539612391    -1.110935066854
    C            1.998223969765     0.356292401293     0.252719851389
    H            2.850135334107    -0.289939146399    -1.485082968320
    C            0.770398453426    -0.563468240205     0.264726535025
    H            1.718458072290     1.336488260865     0.621038390384
    H            2.769189269934    -0.035416375565     0.913373156684
    C           -0.550580407216     0.204063041460     0.284536807233
    H            0.786711303320    -1.169352954777    -0.635941955776
    H            0.811597591936    -1.237427594996     1.114262857863
    C           -1.778201375720    -0.696471706142     0.189476376758
    H           -0.555669671765     0.911152952708    -0.540289552938
    H           -0.609459256952     0.793516940253     1.196873889744
    C           -3.092602643275     0.076529549682     0.220250558141
    H           -1.725123093771    -1.278673573731    -0.726473068818
    H           -1.763375303391    -1.413288825727     1.006521915502
    H           -3.151885826150     0.778757265247    -0.604603499890
    H           -3.943825105582    -0.590931318063     0.148145522661
    H           -3.192903227007     0.641607791147     1.141112625098

  Mulliken Charges: (a.u.)
   Center  Symbol    Alpha    Beta     Spin     Total
       1     H     0.42880  0.42880  0.00000  0.14241
       2     N     3.69335  3.69335  0.00000 -0.38669
       3     C     3.03645  3.03645  0.00000 -0.07291
       4     H     0.43067  0.43067  0.00000  0.13866
       5     C     3.08427  3.08427  0.00000 -0.16855
       6     H     0.45809  0.45809  0.00000  0.08382
       7     H     0.45898  0.45898  0.00000  0.08204
       8     C     3.08650  3.08650  0.00000 -0.17300
       9     H     0.45889  0.45889  0.00000  0.08222
      10     H     0.45089  0.45089  0.00000  0.09823
      11     C     3.08558  3.08558  0.00000 -0.17117
      12     H     0.44956  0.44956  0.00000  0.10088
      13     H     0.45743  0.45743  0.00000  0.08515
      14     C     3.14997  3.14997  0.00000 -0.29993
      15     H     0.45428  0.45428  0.00000  0.09144
      16     H     0.45646  0.45646  0.00000  0.08708
      17     H     0.45462  0.45462  0.00000  0.09077
      18     H     0.44928  0.44928  0.00000  0.10143
      19     H     0.45593  0.45593  0.00000  0.08814

   Total alpha = 25.00000, Total beta = 25.00000, Total charge = -0.00000
