  ==> Input File <==

--------------------------------------------------------------------------
set {
	reference rhf
	basis cc-pvtz
}

set_num_threads( 4 )
memory 2 gb

molecule MOL {
0 1

H	 -1.835082	 1.385983	 0.000069
C	 -1.300516	 0.441153	 -0.000028
O	 -0.006604	 0.654344	 -0.000106
O	 -1.828920	 -0.612308	 0.000113
C	 0.852093	 -0.482521	 -0.000161
C	 2.110714	 -0.109738	 0.746571
H	 1.062522	 -0.761195	 -1.022911
H	 0.338266	 -1.308344	 0.470966
H	 2.612446	 0.720532	 0.266064
H	 2.787453	 -0.955636	 0.764857
H	 1.884547	 0.170661	 1.767451

	symmetry c1
}
set optking {
	frozen_dihedral = ("
		7 5 3 2
	")
}

ee = optimize('scf')
oeprop('DIPOLE', 'QUADRUPOLE', 'MULLIKEN_CHARGES')
f=open( 'psi4out.xyz', 'w' )
f.write( "11  " )
f.write( str(ee) + "\n" )
f.write( MOL.save_string_xyz() )
f.close()
--------------------------------------------------------------------------

    Molecular point group: c1
  Charge       = 0
  Multiplicity = 1
  Basis Set: CC-PVTZ
  Basis Set:
  @DF-RHF Final Energy:  -266.93049714134884
    Total Energy =                       -266.9304971413488374
    Molecular point group: c1
  Basis Set: CC-PVTZ
  Basis Set:
  Basis Set: CC-PVTZ
  Basis Set:
  @DF-RHF Final Energy:  -266.93062849713749
    Total Energy =                       -266.9306284971378318
  Basis Set: CC-PVTZ
  Basis Set:
  Basis Set: CC-PVTZ
  Basis Set:
  @DF-RHF Final Energy:  -266.93006098619554
    Total Energy =                       -266.9300609861955991
  Basis Set: CC-PVTZ
  Basis Set:
  Basis Set: CC-PVTZ
  Basis Set:
  @DF-RHF Final Energy:  -266.93071551392961
    Total Energy =                       -266.9307155139296128
  Basis Set: CC-PVTZ
  Basis Set:
  Basis Set: CC-PVTZ
  Basis Set:
  @DF-RHF Final Energy:  -266.93077279802361
    Total Energy =                       -266.9307727980237246
  Basis Set: CC-PVTZ
  Basis Set:
  Charge       = 0
  Multiplicity = 1
  Basis Set: CC-PVTZ
  Basis Set:

    Orbital Energies (a.u.)
    -----------------------

    Doubly Occupied:

       1A    -20.605252     2A    -20.545196     3A    -11.370749
       4A    -11.289450     5A    -11.225031     6A     -1.478073
       7A     -1.377628     8A     -1.053727     9A     -0.905427
      10A     -0.804050    11A     -0.743822    12A     -0.689868
      13A     -0.679853    14A     -0.599837    15A     -0.575024
      16A     -0.558049    17A     -0.527391    18A     -0.509152
      19A     -0.463310    20A     -0.456343

  @DF-RHF Final Energy:  -266.93077397719816

   => Energetics <=

    Nuclear Repulsion Energy =            179.5521549659667357
    One-Electron Energy =                -720.0513960142333190
    Two-Electron Energy =                 273.5684670710685396
    DFT Exchange-Correlation Energy =       0.0000000000000000
    Empirical Dispersion Energy =           0.0000000000000000
    PCM Polarization Energy =               0.0000000000000000
    EFP Energy =                            0.0000000000000000
    Total Energy =                       -266.9307739771981005
    Molecular point group: c1
  Basis Set: CC-PVTZ
  Basis Set:

  -Total Gradient:
     Atom            X                  Y                   Z
    ------   -----------------  -----------------  -----------------
       1        0.000025888281    -0.000024727482     0.000003407803
       2        0.000050733649    -0.000075835585     0.001335946316
       3        0.000319454259     0.000399943635    -0.001886782279
       4       -0.000105201309    -0.000004864947     0.000017366626
       5       -0.001491787723    -0.001147709366     0.000503436997
       6       -0.000056139817    -0.000000581496    -0.000015170151
       7        0.001250274420     0.000864758865     0.000030490621
       8        0.000027911160    -0.000010601889     0.000005713940
       9       -0.000004726002    -0.000004439053    -0.000002310741
      10       -0.000013856936     0.000000048077    -0.000001274538
      11       -0.000002549983     0.000004009240     0.000009175406

  **** Optimization is complete! (in 6 steps) ****
    Final optimized geometry and variables:
    Molecular point group: c1

    Geometry (in Angstrom), charge = 0, multiplicity = 1:

    H           -1.781773208482     1.427767409234    -0.138002049857
    C           -1.268412142345     0.471437735719    -0.156150660014
    O            0.029477839247     0.662923044383    -0.143021795389
    O           -1.823224641579    -0.567846022406    -0.184351973219
    C            0.895317671583    -0.469659460628    -0.126400076620
    C            2.162073419136    -0.080348036875     0.600623282062
    H            1.109240942691    -0.741049543127    -1.151684012501
    H            0.395176090841    -1.295564923560     0.352269727995
    H            2.639858474040     0.763521086911     0.119475783727
    H            2.854623290827    -0.913813906809     0.597870374239
    H            1.949871996059     0.185715236165     1.628494146092

  Mulliken Charges: (a.u.)
   Center  Symbol    Alpha    Beta     Spin     Total
       1     H     0.44979  0.44979  0.00000  0.10042
       2     C     2.84297  2.84297  0.00000  0.31406
       3     O     4.14635  4.14635  0.00000 -0.29269
       4     O     4.19546  4.19546  0.00000 -0.39091
       5     C     2.97606  2.97606  0.00000  0.04789
       6     C     3.13231  3.13231  0.00000 -0.26463
       7     H     0.45493  0.45493  0.00000  0.09014
       8     H     0.44620  0.44620  0.00000  0.10759
       9     H     0.45036  0.45036  0.00000  0.09929
      10     H     0.45456  0.45456  0.00000  0.09087
      11     H     0.45102  0.45102  0.00000  0.09797

   Total alpha = 20.00000, Total beta = 20.00000, Total charge = -0.00000
