                              Psi4 1.0.54 Driver

  ==> Input File <==

--------------------------------------------------------------------------
set {
	reference rhf
	basis cc-pvtz
}

set_num_threads( 4 )
memory 2 gb

molecule MOL {
0 1

H	 -4.024094	 -0.454727	 0.000004
C	 -2.962215	 -0.297920	 0.000004
C	 -2.454736	 0.988978	 0.000025
C	 -2.105837	 -1.382632	 -0.000016
H	 -3.120052	 1.830438	 0.000041
C	 -1.090106	 1.189676	 0.000026
H	 -2.500390	 -2.380229	 -0.000033
C	 -0.739175	 -1.183302	 -0.000016
H	 -0.680214	 2.179144	 0.000042
C	 -0.227341	 0.104540	 0.000006
H	 -0.073209	 -2.021168	 -0.000032
C	 1.238974	 0.374429	 0.000004
O	 1.542064	 1.590064	 -0.415153
O	 2.055061	 -0.416557	 0.336934
C	 2.912375	 1.937407	 -0.449248
H	 3.344620	 1.874310	 0.537949
H	 2.951189	 2.952328	 -0.809827
H	 3.453453	 1.282670	 -1.115546

	symmetry c1
}
set optking {
	frozen_dihedral = ("
		13 12 10 6
	")
}

ee,wfn = optimize('scf', return_wfn=True)
oeprop( wfn, 'DIPOLE', 'QUADRUPOLE', 'MULLIKEN_CHARGES')
f=open( 'psi4out.xyz', 'w' )
f.write( "18  " )
f.write( str(ee) + "\n" )
f.write( MOL.save_string_xyz() )
f.close()
--------------------------------------------------------------------------

    Molecular point group: c1
  Charge       = 0
  Multiplicity = 1
  Basis Set: CC-PVTZ
  Basis Set:
  @DF-RHF Final Energy:  -457.50796446280953
    Total Energy =                       -457.5079644628093547
    Molecular point group: c1
  Basis Set: CC-PVTZ
  Basis Set:
  Basis Set: CC-PVTZ
  Basis Set:
  @DF-RHF Final Energy:  -457.50891435551938
    Total Energy =                       -457.5089143555188684
  Basis Set: CC-PVTZ
  Basis Set:
  Basis Set: CC-PVTZ
  Basis Set:
  @DF-RHF Final Energy:  -457.50663218331755
    Total Energy =                       -457.5066321833171514
  Basis Set: CC-PVTZ
  Basis Set:
  Basis Set: CC-PVTZ
  Basis Set:
  @DF-RHF Final Energy:  -457.50928496976934
    Total Energy =                       -457.5092849697692827
  Basis Set: CC-PVTZ
  Basis Set:
  Basis Set: CC-PVTZ
  Basis Set:
  @DF-RHF Final Energy:  -457.50935158730704
    Total Energy =                       -457.5093515873065826
  Basis Set: CC-PVTZ
  Basis Set:
  Charge       = 0
  Multiplicity = 1
  Basis Set: CC-PVTZ
  Basis Set:

    Orbital Energies (a.u.)
    -----------------------

    Doubly Occupied:

       1A    -20.601289     2A    -20.534992     3A    -11.371839
       4A    -11.281366     5A    -11.245453     6A    -11.243082
       7A    -11.242841     8A    -11.240365     9A    -11.236355
      10A    -11.235625    11A     -1.477239    12A     -1.368788
      13A     -1.171015    14A     -1.052031    15A     -1.029235
      16A     -0.980753    17A     -0.863223    18A     -0.839050
      19A     -0.781505    20A     -0.744590    21A     -0.687929
      22A     -0.681910    23A     -0.677215    24A     -0.633872
      25A     -0.630769    26A     -0.601161    27A     -0.588740
      28A     -0.563318    29A     -0.532870    30A     -0.520222
      31A     -0.509990    32A     -0.502953    33A     -0.463871
      34A     -0.449703    35A     -0.349995    36A     -0.346461

  @DF-RHF Final Energy:  -457.50935419949042

   => Energetics <=

    Nuclear Repulsion Energy =            493.9316424644707695
    One-Electron Energy =               -1602.3187696236032025
    Two-Electron Energy =                 650.8777729596423569
    DFT Exchange-Correlation Energy =       0.0000000000000000
    Empirical Dispersion Energy =           0.0000000000000000
    PCM Polarization Energy =               0.0000000000000000
    EFP Energy =                            0.0000000000000000
    Total Energy =                       -457.5093541994900761
    Molecular point group: c1
  Basis Set: CC-PVTZ
  Basis Set:

  -Total Gradient:
     Atom            X                  Y                   Z
    ------   -----------------  -----------------  -----------------
       1        0.000010995733     0.000000288078    -0.000000978480
       2        0.000028497561    -0.000241320240     0.000007066341
       3        0.000186266799     0.000141304866     0.000016719563
       4       -0.000253717415     0.000067998259    -0.000017795681
       5       -0.000000767448    -0.000017049751    -0.000001724253
       6       -0.000264678277     0.000023368349     0.002270309318
       7       -0.000002300509     0.000001834228     0.000007923955
       8        0.000120962734     0.000128050513    -0.000024726471
       9        0.000015983058    -0.000021164424     0.000008829396
      10        0.000132134886    -0.000440173637    -0.004091913024
      11       -0.000035752502     0.000023708374     0.000002381591
      12       -0.000223656529     0.001198877878     0.003837464782
      13        0.000079356988    -0.001075748193    -0.001975225545
      14        0.000032564052     0.000121462141    -0.000008523658
      15        0.000191015817     0.000085302223    -0.000022408682
      16       -0.000021723969     0.000006050701    -0.000040356562
      17        0.000014532701    -0.000023215180     0.000013798153
      18       -0.000009713680     0.000020425817     0.000019159258

  **** Optimization is complete! (in 6 steps) ****
    Final optimized geometry and variables:
    Molecular point group: c1

    Geometry (in Angstrom), charge = 0, multiplicity = 1:

    H           -3.963152507617    -0.825134343240     0.101693828813
    C           -2.905867732240    -0.640898064126     0.082966338166
    C           -2.432991186742     0.657825799392     0.063028887364
    C           -2.020240628631    -1.703230481199     0.082594539034
    H           -3.120461848908     1.481382917976     0.070772561253
    C           -1.073194394534     0.896922913998     0.032570332386
    H           -2.387635505344    -2.710959774892     0.101220587996
    C           -0.661158754967    -1.465710926562     0.066781159424
    H           -0.703096955861     1.901441146361     0.010968150511
    C           -0.183675950346    -0.165427223815     0.028437331206
    H            0.037827707928    -2.277270432204     0.083928918244
    C            1.292641032161     0.044255691505     0.045957940533
    O            1.646325541316     1.251860490567    -0.351047458672
    O            2.073637740774    -0.789428625323     0.361498408543
    C            3.028454789527     1.551238249378    -0.356000262275
    H            3.441972762750     1.455544325772     0.636731548114
    H            3.109566029756     2.570087159379    -0.697879300847
    H            3.557097326921     0.889199642109    -1.025018431782

  Mulliken Charges: (a.u.)
   Center  Symbol    Alpha    Beta     Spin     Total
       1     H     0.42043  0.42043  0.00000  0.15914
       2     C     3.07127  3.07127  0.00000 -0.14253
       3     C     3.07415  3.07415  0.00000 -0.14830
       4     C     3.07344  3.07344  0.00000 -0.14689
       5     H     0.42178  0.42178  0.00000  0.15644
       6     C     3.08445  3.08445  0.00000 -0.16889
       7     H     0.42053  0.42053  0.00000  0.15893
       8     C     3.07946  3.07946  0.00000 -0.15892
       9     H     0.41270  0.41270  0.00000  0.17459
      10     C     2.99444  2.99444  0.00000  0.01113
      11     H     0.40830  0.40830  0.00000  0.18340
      12     C     2.79614  2.79614  0.00000  0.40772
      13     O     4.14783  4.14783  0.00000 -0.29566
      14     O     4.20862  4.20862  0.00000 -0.41724
      15     C     3.03664  3.03664  0.00000 -0.07328
      16     H     0.45322  0.45322  0.00000  0.09355
      17     H     0.44475  0.44475  0.00000  0.11049
      18     H     0.45185  0.45185  0.00000  0.09631

   Total alpha = 36.00000, Total beta = 36.00000, Total charge =  0.00000

*** Psi4 exiting successfully. Buy a developer a beer!
