                              Psi4 1.0.54 Driver

  ==> Input File <==

--------------------------------------------------------------------------
set {
	reference rhf
	basis cc-pvtz
}

set_num_threads( 4 )
memory 2 gb

molecule MOL {
0 1

O	 -0.294688	 1.318815	 -0.000872
C	 -0.448732	 0.145721	 -0.000187
C	 -1.780748	 -0.548101	 0.000195
O	 0.550743	 -0.719877	 0.000412
H	 -1.859389	 -1.183260	 -0.872613
H	 -2.570236	 0.185547	 -0.001342
H	 -1.860233	 -1.180337	 0.875064
C	 0.217744	 -2.093986	 0.001202
H	 -0.355755	 -2.346085	 0.880732
H	 1.154575	 -2.626930	 0.001743
H	 -0.355404	 -2.347224	 -0.878227

	symmetry c1
}
set optking {
	frozen_dihedral = ("
		8 4 2 1
	")
}

ee,wfn = optimize('scf', return_wfn=True)
oeprop( wfn, 'DIPOLE', 'QUADRUPOLE', 'MULLIKEN_CHARGES')
f=open( 'psi4out.xyz', 'w' )
f.write( "11  " )
f.write( str(ee) + "\n" )
f.write( MOL.save_string_xyz() )
f.close()
--------------------------------------------------------------------------

    Molecular point group: c1
  Charge       = 0
  Multiplicity = 1
  Basis Set: CC-PVTZ
  Basis Set:
  @DF-RHF Final Energy:  -266.91484553853411
    Total Energy =                       -266.9148455385342231
    Molecular point group: c1
  Basis Set: CC-PVTZ
  Basis Set:
  Basis Set: CC-PVTZ
  Basis Set:
  @DF-RHF Final Energy:  -266.90433252527123
    Total Energy =                       -266.9043325252712293
  Basis Set: CC-PVTZ
  Basis Set:
  Basis Set: CC-PVTZ
  Basis Set:
  @DF-RHF Final Energy:  -266.92225249267210
    Total Energy =                       -266.9222524926722144
  Basis Set: CC-PVTZ
  Basis Set:
  Basis Set: CC-PVTZ
  Basis Set:
  @DF-RHF Final Energy:  -266.92468329553594
    Total Energy =                       -266.9246832955358286
  Basis Set: CC-PVTZ
  Basis Set:
  @DF-RHF Final Energy:  -266.92511931605213
    Total Energy =                       -266.9251193160520188
  @DF-RHF Final Energy:  -266.92526180828986
    Total Energy =                       -266.9252618082899744
  Basis Set: CC-PVTZ
  Basis Set:
  @DF-RHF Final Energy:  -266.92527101695543
    Total Energy =                       -266.9252710169554348
  Basis Set: CC-PVTZ
  Basis Set:
  Basis Set: CC-PVTZ
  Basis Set:
  @DF-RHF Final Energy:  -266.92527460621955
    Total Energy =                       -266.9252746062193182
  Basis Set: CC-PVTZ
  Basis Set:
  Basis Set: CC-PVTZ
  Basis Set:
  @DF-RHF Final Energy:  -266.92527854255729
    Total Energy =                       -266.9252785425572938
  Basis Set: CC-PVTZ
  Basis Set:
  Charge       = 0
  Multiplicity = 1
  Basis Set: CC-PVTZ
  Basis Set:

    Orbital Energies (a.u.)
    -----------------------

    Doubly Occupied:

       1A    -20.598220     2A    -20.528875     3A    -11.370675
       4A    -11.295762     5A    -11.243026     6A     -1.468815
       7A     -1.369640     8A     -1.023483     9A     -0.986685
      10A     -0.785945    11A     -0.701170    12A     -0.690355
      13A     -0.681596    14A     -0.599957    15A     -0.598803
      16A     -0.577951    17A     -0.548967    18A     -0.520355
      19A     -0.452297    20A     -0.439234

  @DF-RHF Final Energy:  -266.92527917122345

   => Energetics <=

    Nuclear Repulsion Energy =            183.2992638728494796
    One-Electron Energy =                -727.4854641514123159
    Two-Electron Energy =                 277.2609211073394135
    DFT Exchange-Correlation Energy =       0.0000000000000000
    Empirical Dispersion Energy =           0.0000000000000000
    PCM Polarization Energy =               0.0000000000000000
    EFP Energy =                            0.0000000000000000
    Total Energy =                       -266.9252791712234512
    Molecular point group: c1
  Basis Set: CC-PVTZ
  Basis Set:

  -Total Gradient:
     Atom            X                  Y                   Z
    ------   -----------------  -----------------  -----------------
       1       -0.000000206912     0.000004382900     0.000000855690
       2        0.000000254198    -0.000007304403    -0.000002293352
       3       -0.000004629015     0.000004320224     0.000004463239
       4        0.000003808274     0.000009339113    -0.000004871716
       5        0.000001336033    -0.000003791693    -0.000002241371
       6        0.000001962895    -0.000000941777     0.000001786864
       7       -0.000001005168     0.000001895617    -0.000002928298
       8       -0.000000484068    -0.000013392482     0.000009153442
       9        0.000001553479    -0.000001808490    -0.000002630659
      10       -0.000001374482     0.000002127606     0.000000431892
      11       -0.000001215236     0.000005173385    -0.000001725731

  **** Optimization is complete! (in 10 steps) ****
    Final optimized geometry and variables:
    Molecular point group: c1

    Geometry (in Angstrom), charge = 0, multiplicity = 1:

    O            0.088212707713     1.682849791345    -0.002489764490
    C           -0.138226766376     0.526305425064    -0.000860519508
    C           -1.541133977828    -0.029169367832    -0.000663206719
    O            0.876652313270    -0.333762811898     0.000902961118
    H           -1.714434290416    -0.643248123495    -0.875182052632
    H           -2.227761690359     0.800361507022    -0.002357942541
    H           -1.715320980654    -0.640348237844     0.875699462422
    C            0.697680003472    -1.727293157534     0.002923188138
    H            0.172216266634    -2.062504361156     0.887282360027
    H            1.687765555436    -2.152867848519     0.004070946738
    H            0.173131473056    -2.065112460804    -0.880992206203

  Mulliken Charges: (a.u.)
   Center  Symbol    Alpha    Beta     Spin     Total
       1     O     4.18075  4.18075  0.00000 -0.36151
       2     C     2.81193  2.81193  0.00000  0.37615
       3     C     3.16630  3.16630  0.00000 -0.33260
       4     O     4.12632  4.12632  0.00000 -0.25264
       5     H     0.44689  0.44689  0.00000  0.10622
       6     H     0.42519  0.42519  0.00000  0.14962
       7     H     0.44688  0.44688  0.00000  0.10623
       8     C     3.04132  3.04132  0.00000 -0.08263
       9     H     0.46112  0.46112  0.00000  0.07776
      10     H     0.43218  0.43218  0.00000  0.13564
      11     H     0.46112  0.46112  0.00000  0.07776

   Total alpha = 20.00000, Total beta = 20.00000, Total charge =  0.00000

*** Psi4 exiting successfully. Buy a developer a beer!
