  ==> Input File <==

--------------------------------------------------------------------------
set {
	reference rhf
	basis 6-31G*
}

set_num_threads( 1 )
memory 2 gb

molecule MOL {
0 1

H	 3.665238	 -0.098818	 0.740052
N	 3.092854	 -0.246221	 -0.068770
C	 1.865559	 0.531981	 0.018834
H	 2.885441	 -1.226384	 -0.101778
C	 0.645745	 -0.382037	 -0.029944
H	 1.841966	 1.207024	 -0.831236
H	 1.815756	 1.155410	 0.915079
C	 -0.679275	 0.379305	 0.025956
H	 0.698998	 -0.976915	 -0.937203
H	 0.693479	 -1.083846	 0.802235
C	 -1.903357	 -0.536963	 -0.023547
H	 -0.726309	 1.082987	 -0.803784
H	 -0.717680	 0.977832	 0.934877
C	 -3.225172	 0.228290	 0.028445
H	 -1.867824	 -1.134999	 -0.931459
H	 -1.860449	 -1.239604	 0.805977
H	 -3.313397	 0.915643	 -0.808262
H	 -4.073500	 -0.448134	 -0.008893
H	 -3.306061	 0.809945	 0.942516

	symmetry c1
}
set optking {
	frozen_dihedral = ("
		6 3 5 9,
		12 8 5 9,
		12 8 11 15
	")
}

ee = energy('scf')
oeprop('DIPOLE', 'QUADRUPOLE', 'MULLIKEN_CHARGES')
f=open( 'psi4out.xyz', 'w' )
f.write( "19  " )
f.write( str(ee) + "\n" )
f.write( MOL.save_string_xyz() )
f.close()
--------------------------------------------------------------------------

    Molecular point group: c1

    Geometry (in Angstrom), charge = 0, multiplicity = 1:

       Center              X                  Y                   Z               Mass
    ------------   -----------------  -----------------  -----------------  -----------------
           H          3.671509148875    -0.088930298187     0.740078669936     1.007825032070
           N          3.099125148875    -0.236333298187    -0.068743330064    14.003074004780
           C          1.871830148875     0.541868701813     0.018860669936    12.000000000000
           H          2.891712148875    -1.216496298187    -0.101751330064     1.007825032070
           C          0.652016148875    -0.372149298187    -0.029917330064    12.000000000000
           H          1.848237148875     1.216911701813    -0.831209330064     1.007825032070
           H          1.822027148875     1.165297701813     0.915105669936     1.007825032070
           C         -0.673003851125     0.389192701813     0.025982669936    12.000000000000
           H          0.705269148875    -0.967027298187    -0.937176330064     1.007825032070
           H          0.699750148875    -1.073958298187     0.802261669936     1.007825032070
           C         -1.897085851125    -0.527075298187    -0.023520330064    12.000000000000
           H         -0.720037851125     1.092874701813    -0.803757330064     1.007825032070
           H         -0.711408851125     0.987719701813     0.934903669936     1.007825032070
           C         -3.218900851125     0.238177701813     0.028471669936    12.000000000000
           H         -1.861552851125    -1.125111298187    -0.931432330064     1.007825032070
           H         -1.854177851125    -1.229716298187     0.806003669936     1.007825032070
           H         -3.307125851125     0.925530701813    -0.808235330064     1.007825032070
           H         -4.067228851125    -0.438246298187    -0.008866330064     1.007825032070
           H         -3.299789851125     0.819832701813     0.942542669936     1.007825032070

  Charge       = 0
  Multiplicity = 1
  Basis Set: 6-31G*
  Basis Set:

    Orbital Energies (a.u.)
    -----------------------

    Doubly Occupied:

       1A    -15.529142     2A    -11.238693     3A    -11.216834
       4A    -11.216176     5A    -11.215611     6A    -11.209570
       7A     -1.176927     8A     -1.075615     9A     -1.000100
      10A     -0.901085    11A     -0.818860    12A     -0.794514
      13A     -0.665817    14A     -0.642776    15A     -0.606205
      16A     -0.597434    17A     -0.566306    18A     -0.550521
      19A     -0.532532    20A     -0.499900    21A     -0.488349
      22A     -0.469241    23A     -0.465157    24A     -0.454575
      25A     -0.374806

  @DF-RHF Final Energy:  -251.34646925426821

   => Energetics <=

    Nuclear Repulsion Energy =            246.1219162955329409
    One-Electron Energy =                -826.3233929709203949
    Two-Electron Energy =                 328.8550074211194101
    DFT Exchange-Correlation Energy =       0.0000000000000000
    Empirical Dispersion Energy =           0.0000000000000000
    PCM Polarization Energy =               0.0000000000000000
    EFP Energy =                            0.0000000000000000
    Total Energy =                       -251.3464692542680154

  Mulliken Charges: (a.u.)
   Center  Symbol    Alpha    Beta     Spin     Total
       1     H     0.33289  0.33289  0.00000  0.33422
       2     N     3.92877  3.92877  0.00000 -0.85753
       3     C     3.04739  3.04739  0.00000 -0.09478
       4     H     0.33149  0.33149  0.00000  0.33702
       5     C     3.17004  3.17004  0.00000 -0.34008
       6     H     0.41969  0.41969  0.00000  0.16062
       7     H     0.42774  0.42774  0.00000  0.14453
       8     C     3.15394  3.15394  0.00000 -0.30788
       9     H     0.41866  0.41866  0.00000  0.16267
      10     H     0.42559  0.42559  0.00000  0.14882
      11     C     3.15120  3.15120  0.00000 -0.30241
      12     H     0.42154  0.42154  0.00000  0.15693
      13     H     0.42367  0.42367  0.00000  0.15266
      14     C     3.23945  3.23945  0.00000 -0.47891
      15     H     0.42235  0.42235  0.00000  0.15530
      16     H     0.42338  0.42338  0.00000  0.15324
      17     H     0.42126  0.42126  0.00000  0.15748
      18     H     0.41908  0.41908  0.00000  0.16184
      19     H     0.42187  0.42187  0.00000  0.15626

   Total alpha = 25.00000, Total beta = 25.00000, Total charge = -0.00000
