                              Psi4 1.0.54 Driver

  ==> Input File <==

--------------------------------------------------------------------------
set {
	reference rhf
	basis cc-pvtz
}

set_num_threads( 4 )
memory 2 gb

molecule MOL {
0 1

H	 3.352231	 1.274053	 0.137019
O	 2.437650	 1.154403	 0.344194
C	 2.076458	 -0.067370	 -0.038225
C	 0.626018	 -0.337582	 0.258241
O	 2.836765	 -0.817045	 -0.545928
C	 -0.267326	 0.883135	 0.076490
H	 0.325620	 -1.161483	 -0.378003
H	 0.574537	 -0.713685	 1.275261
C	 -1.726822	 0.642622	 0.463839
H	 -0.210803	 1.217591	 -0.953497
H	 0.129920	 1.693110	 0.675679
C	 -2.480891	 -0.340606	 -0.429852
H	 -2.243098	 1.597649	 0.438609
H	 -1.776542	 0.301208	 1.495542
C	 -3.955933	 -0.460128	 -0.060472
H	 -2.393755	 -0.020485	 -1.464726
H	 -2.024244	 -1.323637	 -0.374360
H	 -4.467673	 -1.160944	 -0.709827
H	 -4.458917	 0.497287	 -0.144505
H	 -4.076458	 -0.806900	 0.960497

	symmetry c1
}
set optking {
	frozen_dihedral = ("
		5 3 4 7
	")
}

ee,wfn = optimize('scf', return_wfn=True)
oeprop( wfn, 'DIPOLE', 'QUADRUPOLE', 'MULLIKEN_CHARGES')
f=open( 'psi4out.xyz', 'w' )
f.write( "20  " )
f.write( str(ee) + "\n" )
f.write( MOL.save_string_xyz() )
f.close()
--------------------------------------------------------------------------

    Molecular point group: c1
  Charge       = 0
  Multiplicity = 1
  Basis Set: CC-PVTZ
  Basis Set:
  @DF-RHF Final Energy:  -384.09219003478779
    Total Energy =                       -384.0921900347880182
    Molecular point group: c1
  Basis Set: CC-PVTZ
  Basis Set:
  Basis Set: CC-PVTZ
  Basis Set:
  @DF-RHF Final Energy:  -384.09123409961603
    Total Energy =                       -384.0912340996154626
  Basis Set: CC-PVTZ
  Basis Set:
  Basis Set: CC-PVTZ
  Basis Set:
  @DF-RHF Final Energy:  -384.09232002514392
    Total Energy =                       -384.0923200251439198
  Basis Set: CC-PVTZ
  Basis Set:
  Basis Set: CC-PVTZ
  Basis Set:
  @DF-RHF Final Energy:  -384.09297373960482
    Total Energy =                       -384.0929737396044175
  Basis Set: CC-PVTZ
  Basis Set:
  Basis Set: CC-PVTZ
  Basis Set:
  @DF-RHF Final Energy:  -384.09298654235937
    Total Energy =                       -384.0929865423591423
  Basis Set: CC-PVTZ
  Basis Set:
  Basis Set: CC-PVTZ
  Basis Set:
  @DF-RHF Final Energy:  -384.09298835787632
    Total Energy =                       -384.0929883578760951
  Basis Set: CC-PVTZ
  Basis Set:
  Charge       = 0
  Multiplicity = 1
  Basis Set: CC-PVTZ
  Basis Set:

    Orbital Energies (a.u.)
    -----------------------

    Doubly Occupied:

       1A    -20.605371     2A    -20.537882     3A    -11.373107
       4A    -11.238242     5A    -11.227103     6A    -11.221362
       7A    -11.219454     8A    -11.211417     9A     -1.477986
      10A     -1.367570    11A     -1.099792    12A     -1.042926
      13A     -0.961142    14A     -0.863690    15A     -0.828008
      16A     -0.791912    17A     -0.704107    18A     -0.687531
      19A     -0.654453    20A     -0.638418    21A     -0.611947
      22A     -0.593624    23A     -0.579966    24A     -0.553419
      25A     -0.543185    26A     -0.520667    27A     -0.502940
      28A     -0.483954    29A     -0.479057    30A     -0.469465
      31A     -0.460068    32A     -0.436771

  @DF-RHF Final Energy:  -384.09298833454704

   => Energetics <=

    Nuclear Repulsion Energy =            376.9737913740364093
    One-Electron Energy =               -1270.1604894966412758
    Two-Electron Energy =                 509.0937097880581632
    DFT Exchange-Correlation Energy =       0.0000000000000000
    Empirical Dispersion Energy =           0.0000000000000000
    PCM Polarization Energy =               0.0000000000000000
    EFP Energy =                            0.0000000000000000
    Total Energy =                       -384.0929883345467033
    Molecular point group: c1
  Basis Set: CC-PVTZ
  Basis Set:

  -Total Gradient:
     Atom            X                  Y                   Z
    ------   -----------------  -----------------  -----------------
       1        0.000001390658     0.000004576935     0.000010837050
       2       -0.000029626067    -0.000063833685    -0.000045448266
       3       -0.000455296471     0.000765764905    -0.001521534236
       4        0.000424190724    -0.001009758935     0.001340552034
       5        0.000340382627    -0.000444883890     0.000943227644
       6       -0.000037042284    -0.000018834652    -0.000004756390
       7       -0.000180631385     0.000734286442    -0.000751713608
       8       -0.000015409615     0.000010731593     0.000045921924
       9       -0.000005139107    -0.000005269626    -0.000000453483
      10       -0.000012027269     0.000004118085    -0.000021180316
      11        0.000003983881     0.000009723918    -0.000004064234
      12       -0.000002171239     0.000004964180     0.000011512637
      13       -0.000021394986    -0.000001192471     0.000010717220
      14        0.000023262707    -0.000014086600     0.000010591043
      15       -0.000004569445     0.000015188086    -0.000013156500
      16        0.000008568407    -0.000007416949    -0.000011810179
      17       -0.000031761482     0.000012231833     0.000007012861
      18       -0.000007542758     0.000000356102    -0.000006313209
      19       -0.000005921155     0.000004192027     0.000002419877
      20        0.000006754265    -0.000000857293    -0.000002361870

  **** Optimization is complete! (in 7 steps) ****
    Final optimized geometry and variables:
    Molecular point group: c1

    Geometry (in Angstrom), charge = 0, multiplicity = 1:

    H            3.476548444102     1.015317394675     0.181694281849
    O            2.550796992835     0.984831253640     0.371258911667
    C            2.088506809292    -0.202442902923    -0.006027211179
    C            0.624474433199    -0.401037127579     0.291210012057
    O            2.791563152591    -1.021752397889    -0.490258824221
    C           -0.255408982456     0.833315282614     0.087285624328
    H            0.304615272740    -1.226810150447    -0.325048342583
    H            0.567559498527    -0.726917671569     1.326497036661
    C           -1.728269853929     0.597303135789     0.425804279994
    H           -0.171667633944     1.168730754675    -0.942674466348
    H            0.121681604317     1.639087436282     0.702905990965
    C           -2.464397956712    -0.363651096141    -0.506280781620
    H           -2.235988673645     1.557072113214     0.402454355886
    H           -1.808781575128     0.239163497175     1.449758320084
    C           -3.949490855239    -0.478696957493    -0.177713452982
    H           -2.347934913864    -0.024524187067    -1.532204863025
    H           -2.016221769140    -1.350450443708    -0.458192945947
    H           -4.448099042087    -1.164942715135    -0.852221734493
    H           -4.444165657006     0.483375323356    -0.258611260563
    H           -4.099281445950    -0.842037114993     0.833564424209

  Mulliken Charges: (a.u.)
   Center  Symbol    Alpha    Beta     Spin     Total
       1     H     0.38115  0.38115  0.00000  0.23769
       2     O     4.15838  4.15838  0.00000 -0.31675
       3     C     2.81058  2.81058  0.00000  0.37884
       4     C     3.09457  3.09457  0.00000 -0.18913
       5     O     4.19400  4.19400  0.00000 -0.38799
       6     C     3.10526  3.10526  0.00000 -0.21052
       7     H     0.43432  0.43432  0.00000  0.13136
       8     H     0.44278  0.44278  0.00000  0.11444
       9     C     3.09902  3.09902  0.00000 -0.19805
      10     H     0.44832  0.44832  0.00000  0.10336
      11     H     0.43559  0.43559  0.00000  0.12882
      12     C     3.08657  3.08657  0.00000 -0.17314
      13     H     0.44586  0.44586  0.00000  0.10827
      14     H     0.45328  0.45328  0.00000  0.09344
      15     C     3.14970  3.14970  0.00000 -0.29941
      16     H     0.45280  0.45280  0.00000  0.09440
      17     H     0.45201  0.45201  0.00000  0.09599
      18     H     0.44714  0.44714  0.00000  0.10572
      19     H     0.45404  0.45404  0.00000  0.09191
      20     H     0.45463  0.45463  0.00000  0.09075

   Total alpha = 32.00000, Total beta = 32.00000, Total charge = -0.00000

*** Psi4 exiting successfully. Buy a developer a beer!
