  ==> Input File <==

--------------------------------------------------------------------------
set {
	reference rhf
	basis cc-pvtz
}

set_num_threads( 4 )
memory 2 gb

molecule MOL {
0 1

O	 -2.817697	 1.304178	 0.001046
C	 -2.664672	 0.129869	 0.003507
C	 -3.797908	 -0.860100	 -0.001145
O	 -1.481217	 -0.452708	 0.001092
H	 -4.408836	 -0.679689	 -0.875387
H	 -3.443486	 -1.878443	 -0.002770
H	 -4.412123	 -0.683688	 0.871605
C	 -0.332055	 0.384012	 -0.000250
C	 0.892252	 -0.506059	 -0.000295
H	 -0.360822	 1.020205	 -0.874146
H	 -0.359817	 1.021310	 0.872861
C	 1.752329	 -0.300136	 1.243178
H	 1.475537	 -0.302035	 -0.892384
H	 0.574400	 -1.541723	 -0.063828
C	 2.993315	 -1.188159	 1.265366
H	 2.057567	 0.741521	 1.304478
H	 1.157442	 -0.495724	 2.131901
C	 3.852440	 -0.983543	 2.508365
H	 3.589491	 -0.992362	 0.378633
H	 2.689537	 -2.229350	 1.204317
H	 4.200466	 0.041492	 2.579263
H	 4.723717	 -1.627863	 2.493101
H	 3.293426	 -1.204771	 3.411368

	symmetry c1
}
set optking {
	frozen_dihedral = ("
		13 9 8 10
	")
}

ee = optimize('scf')
oeprop('DIPOLE', 'QUADRUPOLE', 'MULLIKEN_CHARGES')
f=open( 'psi4out.xyz', 'w' )
f.write( "23  " )
f.write( str(ee) + "\n" )
f.write( MOL.save_string_xyz() )
f.close()
--------------------------------------------------------------------------

    Molecular point group: c1
  Charge       = 0
  Multiplicity = 1
  Basis Set: CC-PVTZ
  Basis Set:
  @DF-RHF Final Energy:  -423.12864017573980
    Total Energy =                       -423.1286401757398608
    Molecular point group: c1
  Basis Set: CC-PVTZ
  Basis Set:
  Basis Set: CC-PVTZ
  Basis Set:
  @DF-RHF Final Energy:  -423.12880961708623
    Total Energy =                       -423.1288096170862900
  Basis Set: CC-PVTZ
  Basis Set:
  Basis Set: CC-PVTZ
  Basis Set:
  @DF-RHF Final Energy:  -423.12892946043200
    Total Energy =                       -423.1289294604316638
  Basis Set: CC-PVTZ
  Basis Set:
  Basis Set: CC-PVTZ
  Basis Set:
  @DF-RHF Final Energy:  -423.12905269514312
    Total Energy =                       -423.1290526951429456
  Basis Set: CC-PVTZ
  Basis Set:
  Basis Set: CC-PVTZ
  Basis Set:
  @DF-RHF Final Energy:  -423.12907704320367
    Total Energy =                       -423.1290770432033241
  Basis Set: CC-PVTZ
  Basis Set:
  Charge       = 0
  Multiplicity = 1
  Basis Set: CC-PVTZ
  Basis Set:

    Orbital Energies (a.u.)
    -----------------------

    Doubly Occupied:

       1A    -20.596027     2A    -20.529510     3A    -11.366191
       4A    -11.279754     5A    -11.230807     6A    -11.222107
       7A    -11.219902     8A    -11.218403     9A    -11.210469
      10A     -1.470828    11A     -1.363731    12A     -1.092760
      13A     -1.041884    14A     -1.003248    15A     -0.931641
      16A     -0.843452    17A     -0.800827    18A     -0.781694
      19A     -0.691015    20A     -0.684541    21A     -0.670062
      22A     -0.646280    23A     -0.608812    24A     -0.584497
      25A     -0.581786    26A     -0.572402    27A     -0.559531
      28A     -0.536231    29A     -0.527707    30A     -0.502176
      31A     -0.499325    32A     -0.475125    33A     -0.471208
      34A     -0.466641    35A     -0.447618    36A     -0.439053

  @DF-RHF Final Energy:  -423.12907709991720

   => Energetics <=

    Nuclear Repulsion Energy =            452.4078893138616309
    One-Electron Energy =               -1472.7394425994782523
    Two-Electron Energy =                 597.2024761856996520
    DFT Exchange-Correlation Energy =       0.0000000000000000
    Empirical Dispersion Energy =           0.0000000000000000
    PCM Polarization Energy =               0.0000000000000000
    EFP Energy =                            0.0000000000000000
    Total Energy =                       -423.1290770999169126
    Molecular point group: c1
  Basis Set: CC-PVTZ
  Basis Set:

  -Total Gradient:
     Atom            X                  Y                   Z
    ------   -----------------  -----------------  -----------------
       1        0.000004774369    -0.000005130801     0.000011205742
       2       -0.000007579574     0.000006095794    -0.000006411385
       3       -0.000003686588    -0.000001409464    -0.000014983075
       4        0.000022573547     0.000021111915     0.000041807365
       5       -0.000000632304     0.000000785897     0.000005251923
       6       -0.000000046397     0.000000661998     0.000000350216
       7       -0.000000626916    -0.000001680398     0.000004352138
       8       -0.000542209936    -0.000861291177    -0.000676406611
       9        0.000554625499     0.000845246582     0.000588818919
      10        0.000395318769     0.000563399079     0.000402649852
      11       -0.000034199212    -0.000005264614     0.000024233033
      12       -0.000011729083    -0.000001894594    -0.000002062483
      13       -0.000386856542    -0.000547243799    -0.000379661470
      14        0.000007143403    -0.000010097710     0.000006481590
      15       -0.000003350658     0.000002527812    -0.000004696936
      16       -0.000004164168    -0.000000436724    -0.000004712434
      17       -0.000001607490     0.000000717893    -0.000002123823
      18        0.000007094635    -0.000006117901     0.000001151507
      19        0.000000496524    -0.000002185162     0.000001640691
      20        0.000002815446     0.000002390347     0.000000884192
      21       -0.000000721669    -0.000000843279    -0.000001413750
      22        0.000002499496     0.000000869995     0.000004035084
      23        0.000000068847    -0.000000211694    -0.000000390285

  **** Optimization is complete! (in 6 steps) ****
    Final optimized geometry and variables:
    Molecular point group: c1

    Geometry (in Angstrom), charge = 0, multiplicity = 1:

    O           -2.633024661199     1.574082296398    -0.575645413983
    C           -2.479323812142     0.399751440969    -0.564985105267
    C           -3.613035654360    -0.590084000854    -0.553832219746
    O           -1.296087661025    -0.182822859392    -0.561706072215
    H           -4.226861478365    -0.419643444147    -1.428104074315
    H           -3.259223706155    -1.608657517080    -0.544834123575
    H           -4.224196966657    -0.403166671584     0.318953909470
    C           -0.146340689090     0.657240845228    -0.573699464047
    C            1.103461097795    -0.224970395086    -0.552041504629
    H           -0.185609725315     1.285302378589    -1.451093991289
    H           -0.189664324331     1.307258308351     0.288534878869
    C            1.963873983683    -0.031246679363     0.694006879061
    H            1.698523476262    -0.031342421290    -1.437926752630
    H            0.788864666040    -1.259256099618    -0.618677963231
    C            3.205054893761    -0.917595523555     0.710230431486
    H            2.266662409868     1.010706840254     0.765925452448
    H            1.362726965728    -0.235262953827     1.576708808626
    C            4.062656615349    -0.723707551467     1.956183317602
    H            3.802941393384    -0.713740668654    -0.173917389892
    H            2.902345363360    -1.958674882269     0.639107961984
    H            4.409871963424     0.300946342334     2.036844969086
    H            4.934467549539    -1.367275503883     1.936282180481
    H            3.502521022913    -0.953440205513     2.856407924552

  Mulliken Charges: (a.u.)
   Center  Symbol    Alpha    Beta     Spin     Total
       1     O     4.20257  4.20257  0.00000 -0.40514
       2     C     2.81116  2.81116  0.00000  0.37768
       3     C     3.13891  3.13891  0.00000 -0.27782
       4     O     4.14667  4.14667  0.00000 -0.29335
       5     H     0.44204  0.44204  0.00000  0.11591
       6     H     0.44227  0.44227  0.00000  0.11547
       7     H     0.44224  0.44224  0.00000  0.11551
       8     C     2.98476  2.98476  0.00000  0.03048
       9     C     3.09246  3.09246  0.00000 -0.18491
      10     H     0.45015  0.45015  0.00000  0.09969
      11     H     0.45369  0.45369  0.00000  0.09261
      12     C     3.09352  3.09352  0.00000 -0.18704
      13     H     0.44884  0.44884  0.00000  0.10232
      14     H     0.44572  0.44572  0.00000  0.10856
      15     C     3.08638  3.08638  0.00000 -0.17276
      16     H     0.45288  0.45288  0.00000  0.09425
      17     H     0.45153  0.45153  0.00000  0.09694
      18     C     3.14950  3.14950  0.00000 -0.29899
      19     H     0.45404  0.45404  0.00000  0.09191
      20     H     0.45350  0.45350  0.00000  0.09300
      21     H     0.45468  0.45468  0.00000  0.09065
      22     H     0.44790  0.44790  0.00000  0.10419
      23     H     0.45459  0.45459  0.00000  0.09083

   Total alpha = 36.00000, Total beta = 36.00000, Total charge = -0.00000
