  ==> Input File <==

--------------------------------------------------------------------------
set {
	reference rhf
	basis cc-pvtz
}

set_num_threads( 4 )
memory 2 gb

molecule MOL {
0 1

H	 -4.038583	 -0.951311	 1.151056
O	 -3.399479	 -0.916309	 0.463657
C	 -2.178154	 -0.440075	 0.963640
C	 -1.175688	 -0.398187	 -0.171891
H	 -2.301690	 0.555081	 1.385749
H	 -1.812473	 -1.089019	 1.756722
C	 0.196029	 0.106276	 0.266738
H	 -1.572494	 0.237270	 -0.957358
H	 -1.089877	 -1.395368	 -0.591635
C	 1.330220	 -0.826136	 -0.155230
H	 0.359542	 1.097229	 -0.145561
H	 0.212134	 0.218135	 1.348778
C	 2.719700	 -0.407669	 0.328325
H	 1.339388	 -0.911200	 -1.239363
H	 1.119001	 -1.821953	 0.224128
C	 3.241564	 0.893452	 -0.276737
H	 3.418299	 -1.204729	 0.093035
H	 2.711776	 -0.323368	 1.411960
H	 3.254204	 0.841071	 -1.360784
H	 2.634460	 1.745075	 0.005842
H	 4.254264	 1.092401	 0.054971

	symmetry c1
}
set optking {
	frozen_dihedral = ("
		8 4 7 10
	")
}

ee = optimize('scf')
oeprop('DIPOLE', 'QUADRUPOLE', 'MULLIKEN_CHARGES')
f=open( 'psi4out.xyz', 'w' )
f.write( "21  " )
f.write( str(ee) + "\n" )
f.write( MOL.save_string_xyz() )
f.close()
--------------------------------------------------------------------------

    Molecular point group: c1
  Charge       = 0
  Multiplicity = 1
  Basis Set: CC-PVTZ
  Basis Set:
  @DF-RHF Final Energy:  -310.32821300369159
    Total Energy =                       -310.3282130036915305
    Molecular point group: c1
  Basis Set: CC-PVTZ
  Basis Set:
  Basis Set: CC-PVTZ
  Basis Set:
  @DF-RHF Final Energy:  -310.32844668057140
    Total Energy =                       -310.3284466805716875
  Basis Set: CC-PVTZ
  Basis Set:
  Basis Set: CC-PVTZ
  Basis Set:
  @DF-RHF Final Energy:  -310.32849498437565
    Total Energy =                       -310.3284949843757659
  Basis Set: CC-PVTZ
  Basis Set:
  Basis Set: CC-PVTZ
  Basis Set:
  @DF-RHF Final Energy:  -310.32848873177932
    Total Energy =                       -310.3284887317790322
  Basis Set: CC-PVTZ
  Basis Set:
  Charge       = 0
  Multiplicity = 1
  Basis Set: CC-PVTZ
  Basis Set:

    Orbital Energies (a.u.)
    -----------------------

    Doubly Occupied:

       1A    -20.545553     2A    -11.265491     3A    -11.213241
       4A    -11.213102     5A    -11.211818     6A    -11.208700
       7A    -11.206030     8A     -1.363689     9A     -1.086197
      10A     -1.033391    11A     -0.955211    12A     -0.876811
      13A     -0.808615    14A     -0.779775    15A     -0.697521
      16A     -0.657021    17A     -0.624137    18A     -0.610270
      19A     -0.592311    20A     -0.556075    21A     -0.553084
      22A     -0.517790    23A     -0.505378    24A     -0.497121
      25A     -0.475764    26A     -0.458815    27A     -0.454307
      28A     -0.446746    29A     -0.434988

  @DF-RHF Final Energy:  -310.32850310503801

   => Energetics <=

    Nuclear Repulsion Energy =            313.1015381525231192
    One-Electron Energy =               -1041.1621838224241401
    Two-Electron Energy =                 417.7321425648627837
    DFT Exchange-Correlation Energy =       0.0000000000000000
    Empirical Dispersion Energy =           0.0000000000000000
    PCM Polarization Energy =               0.0000000000000000
    EFP Energy =                            0.0000000000000000
    Total Energy =                       -310.3285031050382941
    Molecular point group: c1
  Basis Set: CC-PVTZ
  Basis Set:

  -Total Gradient:
     Atom            X                  Y                   Z
    ------   -----------------  -----------------  -----------------
       1       -0.000026329612    -0.000005458178    -0.000007086312
       2       -0.000053636827    -0.000025241092     0.000007505597
       3        0.000050388581     0.000033117316    -0.000022240485
       4        0.001039395772    -0.001648462754    -0.001211420292
       5        0.000002674379    -0.000007346032     0.000010915410
       6        0.000003782799     0.000002492521     0.000004587321
       7       -0.000010819165     0.001275984994    -0.001362953700
       8       -0.000855401729     0.001120737087     0.001372867908
       9        0.000011300152    -0.000004584017     0.000000873309
      10       -0.000140789394    -0.000741866011     0.001210356521
      11       -0.000013264339    -0.000006828768    -0.000005056346
      12       -0.000024793620    -0.000003800204     0.000009234476
      13        0.000010015327     0.000012549224    -0.000020698046
      14       -0.000002033091    -0.000005192703    -0.000001026976
      15       -0.000004746574     0.000006742589     0.000000949201
      16        0.000007235315    -0.000007407894     0.000011926853
      17        0.000006997687     0.000002671959     0.000000229367
      18       -0.000000233473     0.000002384073    -0.000003490449
      19       -0.000001294476    -0.000001212987     0.000003070404
      20        0.000000086230    -0.000000172770     0.000000325000
      21        0.000001466062     0.000000893645     0.000001131239

  **** Optimization is complete! (in 5 steps) ****
    Final optimized geometry and variables:
    Molecular point group: c1

    Geometry (in Angstrom), charge = 0, multiplicity = 1:

    H           -4.097597827282    -0.624613442437     0.923597323922
    O           -3.456882407358    -0.596079954693     0.237396519168
    C           -2.224569752501    -0.159126617438     0.743641491001
    C           -1.218184292273    -0.124121590007    -0.390248837320
    H           -2.321103818411     0.832425546577     1.181652688005
    H           -1.873475575788    -0.829058282394     1.526209663033
    C            0.165262357868     0.373843338611     0.067287691610
    H           -1.620153151269     0.518270179688    -1.164834514980
    H           -1.148471255404    -1.120146625698    -0.812056077714
    C            1.309211549640    -0.544874081879    -0.361090978652
    H            0.331048181804     1.376724098059    -0.306313172255
    H            0.183821872195     0.453763903908     1.152059706590
    C            2.696002990146    -0.111204189061     0.115531376144
    H            1.313882612628    -0.632183289802    -1.445342008693
    H            1.107679141924    -1.542013614063     0.020392203422
    C            3.208099714053     1.186388480554    -0.505306443616
    H            3.400119541001    -0.905771979039    -0.111697183733
    H            2.689076580948    -0.014514782492     1.198262258552
    H            3.220509432510     1.120789028799    -1.588555550086
    H            2.595191033841     2.037041957427    -0.232872655617
    H            4.219540599936     1.396495225544    -0.176693140416

  Mulliken Charges: (a.u.)
   Center  Symbol    Alpha    Beta     Spin     Total
       1     H     0.39735  0.39735  0.00000  0.20529
       2     O     4.19480  4.19480  0.00000 -0.38960
       3     C     2.96193  2.96193  0.00000  0.07614
       4     C     3.08706  3.08706  0.00000 -0.17412
       5     H     0.47383  0.47383  0.00000  0.05233
       6     H     0.47547  0.47547  0.00000  0.04905
       7     C     3.10988  3.10988  0.00000 -0.21976
       8     H     0.44808  0.44808  0.00000  0.10384
       9     H     0.45096  0.45096  0.00000  0.09807
      10     C     3.09417  3.09417  0.00000 -0.18835
      11     H     0.44665  0.44665  0.00000  0.10669
      12     H     0.45753  0.45753  0.00000  0.08493
      13     C     3.09011  3.09011  0.00000 -0.18021
      14     H     0.45195  0.45195  0.00000  0.09611
      15     H     0.44896  0.44896  0.00000  0.10207
      16     C     3.15201  3.15201  0.00000 -0.30402
      17     H     0.44854  0.44854  0.00000  0.10292
      18     H     0.45534  0.45534  0.00000  0.08931
      19     H     0.45455  0.45455  0.00000  0.09090
      20     H     0.45407  0.45407  0.00000  0.09185
      21     H     0.44673  0.44673  0.00000  0.10655

   Total alpha = 29.00000, Total beta = 29.00000, Total charge = -0.00000
