  ==> Input File <==

--------------------------------------------------------------------------
set {
	reference rhf
	basis 6-31G*
}

set_num_threads( 4 )
memory 2 gb

molecule MOL {
0 1

H	 2.447252	 -0.672983	 0.179185
C	 1.730475	 0.131304	 0.216715
O	 0.464886	 -0.454746	 -0.000158
H	 1.962596	 0.854121	 -0.556384
H	 1.777642	 0.607882	 1.188677
C	 -0.590998	 0.343045	 0.000118
O	 -1.699443	 -0.054298	 0.000227
H	 -0.340329	 1.404368	 0.000207

	symmetry c1
}
set optking {
	frozen_dihedral = ("
		2 3 6 7
	")
}

ee = optimize('scf')
oeprop('DIPOLE', 'QUADRUPOLE', 'MULLIKEN_CHARGES')
f=open( 'psi4out.xyz', 'w' )
f.write( "8  " )
f.write( str(ee) + "\n" )
f.write( MOL.save_string_xyz() )
f.close()
--------------------------------------------------------------------------

    Molecular point group: c1
  Charge       = 0
  Multiplicity = 1
  Basis Set: 6-31G*
  Basis Set:
  @DF-RHF Final Energy:  -227.77879786583236
    Total Energy =                       -227.7787978658323311
    Molecular point group: c1
  Basis Set: 6-31G*
  Basis Set:
  Basis Set: 6-31G*
  Basis Set:
  @DF-RHF Final Energy:  -227.77880427788301
    Total Energy =                       -227.7788042778829833
  Basis Set: 6-31G*
  Basis Set:
  Basis Set: 6-31G*
  Basis Set:
  @DF-RHF Final Energy:  -227.77883864044625
    Total Energy =                       -227.7788386404462244
  Basis Set: 6-31G*
  Basis Set:
  Basis Set: 6-31G*
  Basis Set:
  @DF-RHF Final Energy:  -227.77884344683719
    Total Energy =                       -227.7788434468371861
  Basis Set: 6-31G*
  Basis Set:
  Charge       = 0
  Multiplicity = 1
  Basis Set: 6-31G*
  Basis Set:

    Orbital Energies (a.u.)
    -----------------------

    Doubly Occupied:

       1A    -20.616580     2A    -20.558073     3A    -11.382251
       4A    -11.304705     5A     -1.476763     6A     -1.382847
       7A     -0.993757     8A     -0.849168     9A     -0.738382
      10A     -0.686303    11A     -0.681273    12A     -0.606334
      13A     -0.571154    14A     -0.540303    15A     -0.461292
      16A     -0.453667

  @DF-RHF Final Energy:  -227.77884376518477

   => Energetics <=

    Nuclear Repulsion Energy =            121.1953958323235980
    One-Electron Energy =                -551.3427731063281954
    Two-Electron Energy =                 202.3685335088198372
    DFT Exchange-Correlation Energy =       0.0000000000000000
    Empirical Dispersion Energy =           0.0000000000000000
    PCM Polarization Energy =               0.0000000000000000
    EFP Energy =                            0.0000000000000000
    Total Energy =                       -227.7788437651847744
    Molecular point group: c1
  Basis Set: 6-31G*
  Basis Set:

  -Total Gradient:
     Atom            X                  Y                   Z
    ------   -----------------  -----------------  -----------------
       1       -0.000010788538    -0.000008985954    -0.000007640100
       2       -0.000090823086    -0.000007393013     0.001170007349
       3        0.000243063105     0.000097405287    -0.001033152690
       4        0.000011590986    -0.000015666110     0.000011474726
       5       -0.000023902282    -0.000006338182     0.000015389464
       6       -0.000161635123    -0.000176509154    -0.001707636780
       7        0.000024214924     0.000144471911     0.001542770124
       8        0.000008280017    -0.000026984784     0.000008787906

  **** Optimization is complete! (in 5 steps) ****
    Final optimized geometry and variables:
    Molecular point group: c1

    Geometry (in Angstrom), charge = 0, multiplicity = 1:

    H            2.457154304735    -0.658373063263     0.039291249178
    C            1.734632235040     0.132919558074     0.157613243762
    O            0.464364728899    -0.457313682543    -0.013628069056
    H            1.916651935741     0.897217327630    -0.589207155620
    H            1.828963431819     0.560930091180     1.148104102354
    C           -0.585205142766     0.345836082973    -0.091133824041
    O           -1.697075130154    -0.040511545298    -0.062284927533
    H           -0.324792520593     1.400611873843    -0.184952912948

  Mulliken Charges: (a.u.)
   Center  Symbol    Alpha    Beta     Spin     Total
       1     H     0.39629  0.39629  0.00000  0.20742
       2     C     3.10062  3.10062  0.00000 -0.20124
       3     O     4.27701  4.27701  0.00000 -0.55402
       4     H     0.41511  0.41511  0.00000  0.16977
       5     H     0.41133  0.41133  0.00000  0.17735
       6     C     2.72045  2.72045  0.00000  0.55910
       7     O     4.24725  4.24725  0.00000 -0.49449
       8     H     0.43194  0.43194  0.00000  0.13611

   Total alpha = 16.00000, Total beta = 16.00000, Total charge =  0.00000
