  ==> Input File <==

--------------------------------------------------------------------------
set {
	reference rhf
	basis 6-31G*
}

set_num_threads( 4 )
memory 2 gb

molecule MOL {
0 1

H	 -3.407059	 -1.043082	 0.000000
O	 -3.119761	 -0.140267	 0.000000
C	 -1.777559	 -0.059267	 0.000000
C	 -1.049767	 0.189551	 1.159918
C	 -1.127379	 -0.234681	 -1.215139
H	 -1.561470	 0.324316	 2.097633
C	 0.326087	 0.261986	 1.099935
H	 -1.710753	 -0.425452	 -2.095793
C	 0.249152	 -0.159358	 -1.259002
H	 0.900196	 0.453331	 1.987001
C	 0.992014	 0.088603	 -0.109090
H	 0.753491	 -0.295219	 -2.200409
C	 2.464783	 0.166448	 -0.171556
O	 3.174186	 0.374427	 0.763457
H	 2.893326	 0.016284	 -1.168034

	symmetry c1
}
set optking {
	frozen_dihedral = ("
		5 3 2 1
	")
}

ee = optimize('scf')
oeprop('DIPOLE', 'QUADRUPOLE', 'MULLIKEN_CHARGES')
f=open( 'psi4out.xyz', 'w' )
f.write( "15  " )
f.write( str(ee) + "\n" )
f.write( MOL.save_string_xyz() )
f.close()
--------------------------------------------------------------------------

    Molecular point group: c1
  Charge       = 0
  Multiplicity = 1
  Basis Set: 6-31G*
  Basis Set:
  @DF-RHF Final Energy:  -418.28307373807729
    Total Energy =                       -418.2830737380770643
    Molecular point group: c1
  Basis Set: 6-31G*
  Basis Set:
  Basis Set: 6-31G*
  Basis Set:
  @DF-RHF Final Energy:  -418.28422121159372
    Total Energy =                       -418.2842212115941720
  Basis Set: 6-31G*
  Basis Set:
  Basis Set: 6-31G*
  Basis Set:
  @DF-RHF Final Energy:  -418.28411757326546
    Total Energy =                       -418.2841175732647798
  Basis Set: 6-31G*
  Basis Set:
  Basis Set: 6-31G*
  Basis Set:
  @DF-RHF Final Energy:  -418.28414544786261
    Total Energy =                       -418.2841454478622154
  Basis Set: 6-31G*
  Basis Set:
  Basis Set: 6-31G*
  Basis Set:
  @DF-RHF Final Energy:  -418.28431213652289
    Total Energy =                       -418.2843121365224306
  Basis Set: 6-31G*
  Basis Set:
  Charge       = 0
  Multiplicity = 1
  Basis Set: 6-31G*
  Basis Set:

    Orbital Energies (a.u.)
    -----------------------

    Doubly Occupied:

       1A    -20.593531     2A    -20.560915     3A    -11.331472
       4A    -11.312980     5A    -11.260448     6A    -11.253136
       7A    -11.245006     8A    -11.243956     9A    -11.241287
      10A     -1.410725    11A     -1.401916    12A     -1.170641
      13A     -1.041388    14A     -1.036655    15A     -0.888047
      16A     -0.856477    17A     -0.797678    18A     -0.750403
      19A     -0.703743    20A     -0.674432    21A     -0.645169
      22A     -0.631121    23A     -0.617362    24A     -0.606940
      25A     -0.559680    26A     -0.552665    27A     -0.536232
      28A     -0.496308    29A     -0.482298    30A     -0.422067
      31A     -0.354898    32A     -0.340923

  @DF-RHF Final Energy:  -418.28431325456535

   => Energetics <=

    Nuclear Repulsion Energy =            400.7613176331511227
    One-Electron Energy =               -1364.0502612211364521
    Two-Electron Energy =                 545.0046303334199820
    DFT Exchange-Correlation Energy =       0.0000000000000000
    Empirical Dispersion Energy =           0.0000000000000000
    PCM Polarization Energy =               0.0000000000000000
    EFP Energy =                            0.0000000000000000
    Total Energy =                       -418.2843132545654043
    Molecular point group: c1
  Basis Set: 6-31G*
  Basis Set:

  -Total Gradient:
     Atom            X                  Y                   Z
    ------   -----------------  -----------------  -----------------
       1        0.000016726224    -0.000032509024     0.001075234272
       2       -0.000113428229     0.000377995894    -0.001386906636
       3        0.000113413332    -0.001028504855     0.000678445222
       4       -0.000211609245    -0.000046412835    -0.000100970296
       5        0.000151080545     0.000768240283    -0.000231450639
       6        0.000002600003     0.000005664863     0.000001094705
       7        0.000179725934    -0.000065558176    -0.000118438326
       8        0.000003043592     0.000011391687     0.000014340162
       9       -0.000133876033    -0.000093884949    -0.000082394503
      10       -0.000019022210     0.000010206216     0.000003493721
      11       -0.000005399535     0.000068925526     0.000178522037
      12        0.000025275357     0.000014273873     0.000001806271
      13        0.000015403696     0.000037940131    -0.000045768928
      14       -0.000016629991    -0.000015063950     0.000011420596
      15       -0.000007303450    -0.000012704684     0.000001572342

  **** Optimization is complete! (in 6 steps) ****
    Final optimized geometry and variables:
    Molecular point group: c1

    Geometry (in Angstrom), charge = 0, multiplicity = 1:

    H           -3.440081428998    -1.063591488970    -0.003537826783
    O           -3.131103189129    -0.166966221749     0.003148693120
    C           -1.767487568192    -0.128587630011    -0.052832112296
    C           -1.049882749349     0.129759470419     1.108171202255
    C           -1.116192584883    -0.291209078533    -1.264531311200
    H           -1.583361924701     0.266792701309     2.030250962074
    C            0.325989814937     0.213134124444     1.055429404068
    H           -1.692214779888    -0.468419542243    -2.154016222867
    C            0.264576672490    -0.210260432275    -1.308229453221
    H            0.898093772766     0.411552961874     1.942138603262
    C            0.994107867843     0.040253327617    -0.154191837932
    H            0.774603925024    -0.336850570089    -2.247758381590
    C            2.470540673343     0.127053875990    -0.214531493278
    O            3.174727404671     0.332844968763     0.723638104062
    H            2.902121452294    -0.014991217222    -1.210522668393

  Mulliken Charges: (a.u.)
   Center  Symbol    Alpha    Beta     Spin     Total
       1     H     0.26837  0.26837  0.00000  0.46327
       2     O     4.38489  4.38489  0.00000 -0.76978
       3     C     2.80969  2.80969  0.00000  0.38062
       4     C     3.12037  3.12037  0.00000 -0.24075
       5     C     3.12446  3.12446  0.00000 -0.24891
       6     H     0.38744  0.38744  0.00000  0.22513
       7     C     3.08500  3.08500  0.00000 -0.17000
       8     H     0.39034  0.39034  0.00000  0.21931
       9     C     3.09878  3.09878  0.00000 -0.19756
      10     H     0.37496  0.37496  0.00000  0.25009
      11     C     3.06029  3.06029  0.00000 -0.12058
      12     H     0.39006  0.39006  0.00000  0.21987
      13     C     2.83094  2.83094  0.00000  0.33813
      14     O     4.25082  4.25082  0.00000 -0.50163
      15     H     0.42360  0.42360  0.00000  0.15280

   Total alpha = 32.00000, Total beta = 32.00000, Total charge =  0.00000
