  ==> Input File <==

--------------------------------------------------------------------------
set {
	reference rhf
	basis 6-31G*
}

set_num_threads( 4 )
memory 2 gb

molecule MOL {
0 1

H	 -2.386958	 1.544269	 -1.829763
O	 -2.462814	 2.015903	 -1.011436
C	 -1.233099	 1.978096	 -0.347859
C	 -0.793441	 0.596080	 0.058728
H	 -1.346146	 2.598413	 0.533974
H	 -0.452413	 2.437559	 -0.953210
C	 -1.530462	 -0.493172	 -0.025500
H	 0.210870	 0.534304	 0.448631
H	 -1.092586	 -1.461565	 -0.186463
H	 -2.602122	 -0.450675	 0.050101

	symmetry c1
}
set optking {
	frozen_dihedral = ("
		3 4 7 9
	")
}

ee = optimize('scf')
oeprop('DIPOLE', 'QUADRUPOLE', 'MULLIKEN_CHARGES')
f=open( 'psi4out.xyz', 'w' )
f.write( "10  " )
f.write( str(ee) + "\n" )
f.write( MOL.save_string_xyz() )
f.close()
--------------------------------------------------------------------------

    Molecular point group: c1
  Charge       = 0
  Multiplicity = 1
  Basis Set: 6-31G*
  Basis Set:
  @DF-RHF Final Energy:  -191.89704390627639
    Total Energy =                       -191.8970439062763944
    Molecular point group: c1
  Basis Set: 6-31G*
  Basis Set:
  Basis Set: 6-31G*
  Basis Set:
  @DF-RHF Final Energy:  -191.90711949503287
    Total Energy =                       -191.9071194950329584
  Basis Set: 6-31G*
  Basis Set:
  Basis Set: 6-31G*
  Basis Set:
  @DF-RHF Final Energy:  -191.90846307323801
    Total Energy =                       -191.9084630732380106
  Basis Set: 6-31G*
  Basis Set:
  Basis Set: 6-31G*
  Basis Set:
  @DF-RHF Final Energy:  -191.90853517275281
    Total Energy =                       -191.9085351727528632
  Basis Set: 6-31G*
  Basis Set:
  @DF-RHF Final Energy:  -191.90854057221361
    Total Energy =                       -191.9085405722134965
  @DF-RHF Final Energy:  -191.90787798357488
    Total Energy =                       -191.9078779835749629
  @DF-RHF Final Energy:  -191.90853889225849
    Total Energy =                       -191.9085388922583775
  @DF-RHF Final Energy:  -191.90853863475746
    Total Energy =                       -191.9085386347574627
  @DF-RHF Final Energy:  -191.90849126871578
    Total Energy =                       -191.9084912687158067
  @DF-RHF Final Energy:  -191.90853826443100
    Total Energy =                       -191.9085382644309732
  @DF-RHF Final Energy:  -191.90852888562230
    Total Energy =                       -191.9085288856222178
  @DF-RHF Final Energy:  -191.90853783656380
    Total Energy =                       -191.9085378365637666
  @DF-RHF Final Energy:  -191.90853816147560
    Total Energy =                       -191.9085381614757182
  @DF-RHF Final Energy:  -191.90853739651956
    Total Energy =                       -191.9085373965194776
  @DF-RHF Final Energy:  -191.90853703501949
    Total Energy =                       -191.9085370350194637
  @DF-RHF Final Energy:  -191.90853515294862
    Total Energy =                       -191.9085351529486445
  @DF-RHF Final Energy:  -191.90853448173880
    Total Energy =                       -191.9085344817387977
  @DF-RHF Final Energy:  -191.90853526383987
    Total Energy =                       -191.9085352638397239
  @DF-RHF Final Energy:  -191.90853519949542
    Total Energy =                       -191.9085351994954749
  @DF-RHF Final Energy:  -191.90853537783966
    Total Energy =                       -191.9085353778396552
  @DF-RHF Final Energy:  -191.90853427167872
    Total Energy =                       -191.9085342716786329
  @DF-RHF Final Energy:  -191.90853439213080
    Total Energy =                       -191.9085343921308890
  @DF-RHF Final Energy:  -191.90853424381049
    Total Energy =                       -191.9085342438104647
  @DF-RHF Final Energy:  -191.90853405964293
    Total Energy =                       -191.9085340596428750
  @DF-RHF Final Energy:  -191.90853425589341
    Total Energy =                       -191.9085342558935565
  @DF-RHF Final Energy:  -191.90853527662205
    Total Energy =                       -191.9085352766219899
  @DF-RHF Final Energy:  -191.90853502383214
    Total Energy =                       -191.9085350238320871
  @DF-RHF Final Energy:  -191.90853454277212
    Total Energy =                       -191.9085345427720597
  @DF-RHF Final Energy:  -191.90853526036190
    Total Energy =                       -191.9085352603619583
  @DF-RHF Final Energy:  -191.90853534873730
    Total Energy =                       -191.9085353487374164
  @DF-RHF Final Energy:  -191.90853529440207
    Total Energy =                       -191.9085352944020997
  @DF-RHF Final Energy:  -191.90853520338470
    Total Energy =                       -191.9085352033846164
  @DF-RHF Final Energy:  -191.90853448383331
    Total Energy =                       -191.9085344838332503
  @DF-RHF Final Energy:  -191.90853523585037
    Total Energy =                       -191.9085352358504224
  @DF-RHF Final Energy:  -191.90853534516020
    Total Energy =                       -191.9085353451602032
  @DF-RHF Final Energy:  -191.90853535488446
    Total Energy =                       -191.9085353548846058
  Basis Set: 6-31G*
  Basis Set:
  @DF-RHF Final Energy:  -191.90853533778056
    Total Energy =                       -191.9085353377806200
  Basis Set: 6-31G*
  Basis Set:
  Basis Set: 6-31G*
  Basis Set:
  @DF-RHF Final Energy:  -191.90853525890594
    Total Energy =                       -191.9085352589059426
  Basis Set: 6-31G*
  Basis Set:
  Basis Set: 6-31G*
  Basis Set:
  @DF-RHF Final Energy:  -191.90853532414039
    Total Energy =                       -191.9085353241403595
  Basis Set: 6-31G*
  Basis Set:
  Charge       = 0
  Multiplicity = 1
  Basis Set: 6-31G*
  Basis Set:

    Orbital Energies (a.u.)
    -----------------------

    Doubly Occupied:

       1A    -20.561089     2A    -11.280831     3A    -11.234596
       4A    -11.221461     5A     -1.370534     6A     -1.059605
       7A     -0.930667     8A     -0.770471     9A     -0.689833
      10A     -0.660750    11A     -0.617228    12A     -0.573194
      13A     -0.535276    14A     -0.496886    15A     -0.447686
      16A     -0.362176

  @DF-RHF Final Energy:  -191.90853529403824

   => Energetics <=

    Nuclear Repulsion Energy =            119.3451954872989944
    One-Electron Energy =                -496.8828925138889190
    Two-Electron Energy =                 185.6291617325517223
    DFT Exchange-Correlation Energy =       0.0000000000000000
    Empirical Dispersion Energy =           0.0000000000000000
    PCM Polarization Energy =               0.0000000000000000
    EFP Energy =                            0.0000000000000000
    Total Energy =                       -191.9085352940381881
    Molecular point group: c1
  Basis Set: 6-31G*
  Basis Set:

  -Total Gradient:
     Atom            X                  Y                   Z
    ------   -----------------  -----------------  -----------------
       1       -0.000225566521     0.000014347304     0.000110647786
       2        0.000251255124     0.000025103524    -0.000275695935
       3        0.006412245074    -0.002652558510    -0.012031074945
       4       -0.009607213211     0.005010996338     0.012115938848
       5       -0.000143051960     0.000124181499     0.000195709541
       6        0.000090339157    -0.000146481191    -0.000174244631
       7        0.003012546041    -0.004946828092     0.019240216386
       8       -0.000566466010     0.000191336337     0.000059275813
       9        0.001078039430     0.002126535170    -0.019066793412
      10       -0.000302127125     0.000253367619    -0.000173979451

    Molecular point group: c1

    Geometry (in Angstrom), charge = 0, multiplicity = 1:

    H           -0.936190564435     0.392223405665    -1.356191117194
    O           -0.926925514968     0.960722447024    -0.598262499470
    C            0.329978385850     0.897837460549     0.005864696048
    C            0.726980655199    -0.474828009529     0.485047529700
    H            0.308033663461     1.616264096472     0.818035162041
    H            1.110147352375     1.225437539523    -0.680594236424
    C            0.031490552797    -1.585392360150     0.322901880704
    H            1.763878706934    -0.547471398575     0.775929460447
    H            0.503325353249    -2.547900484453     0.238375854214
    H           -0.998196780539    -1.545621408128     0.009359746014

  Mulliken Charges: (a.u.)
   Center  Symbol    Alpha    Beta     Spin     Total
       1     H     0.28111  0.28111  0.00000  0.43779
       2     O     4.36587  4.36587  0.00000 -0.73175
       3     C     3.00156  3.00156  0.00000 -0.00312
       4     C     3.08647  3.08647  0.00000 -0.17295
       5     H     0.40934  0.40934  0.00000  0.18132
       6     H     0.42337  0.42337  0.00000  0.15327
       7     C     3.20030  3.20030  0.00000 -0.40060
       8     H     0.41181  0.41181  0.00000  0.17639
       9     H     0.40940  0.40940  0.00000  0.18119
      10     H     0.41077  0.41077  0.00000  0.17846

   Total alpha = 16.00000, Total beta = 16.00000, Total charge = -0.00000
