  ==> Input File <==

--------------------------------------------------------------------------
set {
	reference rhf
	basis 6-31G*
}

set_num_threads( 4 )
memory 2 gb

molecule MOL {
0 1

H	 -0.821032	 -1.655889	 0.000000
O	 -1.037828	 -0.728600	 0.000000
C	 0.100509	 -0.036935	 0.000000
C	 0.578273	 0.253359	 1.394049
O	 0.643661	 0.293090	 -1.002642
H	 -0.177022	 0.818339	 1.927943
H	 1.500032	 0.813429	 1.351244
H	 0.731741	 -0.677297	 1.927943

	symmetry c1
}
set optking {
	frozen_dihedral = ("
		4 3 2 1
	")
}

ee = optimize('scf')
oeprop('DIPOLE', 'QUADRUPOLE', 'MULLIKEN_CHARGES')
f=open( 'psi4out.xyz', 'w' )
f.write( "8  " )
f.write( str(ee) + "\n" )
f.write( MOL.save_string_xyz() )
f.close()
--------------------------------------------------------------------------

    Molecular point group: c1
  Charge       = 0
  Multiplicity = 1
  Basis Set: 6-31G*
  Basis Set:
  @DF-RHF Final Energy:  -227.78680333451112
    Total Energy =                       -227.7868033345109779
    Molecular point group: c1
  Basis Set: 6-31G*
  Basis Set:
  Basis Set: 6-31G*
  Basis Set:
  @DF-RHF Final Energy:  -227.78827483545149
    Total Energy =                       -227.7882748354513751
  Basis Set: 6-31G*
  Basis Set:
  Basis Set: 6-31G*
  Basis Set:
  @DF-RHF Final Energy:  -227.78808195371948
    Total Energy =                       -227.7880819537195691
  Basis Set: 6-31G*
  Basis Set:
  Basis Set: 6-31G*
  Basis Set:
  @DF-RHF Final Energy:  -227.78843241253509
    Total Energy =                       -227.7884324125351441
  Basis Set: 6-31G*
  Basis Set:
  Basis Set: 6-31G*
  Basis Set:
  @DF-RHF Final Energy:  -227.78843740809342
    Total Energy =                       -227.7884374080934151
  Basis Set: 6-31G*
  Basis Set:
  Charge       = 0
  Multiplicity = 1
  Basis Set: 6-31G*
  Basis Set:

    Orbital Energies (a.u.)
    -----------------------

    Doubly Occupied:

       1A    -20.596085     2A    -20.564594     3A    -11.386328
       4A    -11.243031     5A     -1.462261     6A     -1.369676
       7A     -1.023000     8A     -0.826290     9A     -0.709130
      10A     -0.669463    11A     -0.660655    12A     -0.590879
      13A     -0.577037    14A     -0.506428    15A     -0.503743
      16A     -0.450391

  @DF-RHF Final Energy:  -227.78843777954916

   => Energetics <=

    Nuclear Repulsion Energy =            121.6712552963377192
    One-Electron Energy =                -552.6414079049873180
    Two-Electron Energy =                 203.1817148291003718
    DFT Exchange-Correlation Energy =       0.0000000000000000
    Empirical Dispersion Energy =           0.0000000000000000
    PCM Polarization Energy =               0.0000000000000000
    EFP Energy =                            0.0000000000000000
    Total Energy =                       -227.7884377795492128
    Molecular point group: c1
  Basis Set: 6-31G*
  Basis Set:

  -Total Gradient:
     Atom            X                  Y                   Z
    ------   -----------------  -----------------  -----------------
       1       -0.000042451661    -0.000009115159     0.001947919812
       2        0.000399938020    -0.000416397724    -0.002434737487
       3       -0.001048931278     0.001459574981     0.000490931752
       4        0.000656010374    -0.001059539587     0.000010252007
       5        0.000030949875     0.000020774366    -0.000016634525
       6        0.000003268462    -0.000002817242    -0.000000123506
       7        0.000003406093     0.000002595096     0.000003530503
       8       -0.000002189885     0.000004925269    -0.000001138556

  **** Optimization is complete! (in 6 steps) ****
    Final optimized geometry and variables:
    Molecular point group: c1

    Geometry (in Angstrom), charge = 0, multiplicity = 1:

    H           -0.943924943247    -1.601322928565    -0.121420003205
    O           -1.104796827732    -0.665391979683    -0.122853344751
    C            0.058760858328     0.042964564062    -0.094664919207
    C            0.536907432926     0.349909876462     1.298719178242
    O            0.596164667966     0.392677984299    -1.083736413663
    H           -0.230299060065     0.902021698583     1.829792481012
    H            1.450790242708     0.924018819394     1.261975043260
    H            0.703274945085    -0.574437236512     1.842639757377

  Mulliken Charges: (a.u.)
   Center  Symbol    Alpha    Beta     Spin     Total
       1     H     0.26573  0.26573  0.00000  0.46854
       2     O     4.36465  4.36465  0.00000 -0.72931
       3     C     2.64422  2.64422  0.00000  0.71157
       4     C     3.28480  3.28480  0.00000 -0.56959
       5     O     4.24047  4.24047  0.00000 -0.48095
       6     H     0.39603  0.39603  0.00000  0.20794
       7     H     0.39557  0.39557  0.00000  0.20886
       8     H     0.40853  0.40853  0.00000  0.18295

   Total alpha = 16.00000, Total beta = 16.00000, Total charge = -0.00000
