                              Psi4 1.0.54 Driver

  ==> Input File <==

--------------------------------------------------------------------------
set {
	reference rhf
	basis cc-pvtz
}

set_num_threads( 4 )
memory 2 gb

molecule MOL {
0 1

H	 -3.941973	 0.934228	 -0.390224
C	 -3.240162	 0.342701	 0.161016
C	 -2.105997	 -0.000418	 -0.398703
H	 -3.485368	 0.047206	 1.162193
O	 -1.189946	 -0.765863	 0.237511
H	 -1.846458	 0.297311	 -1.398265
C	 0.026572	 -0.995256	 -0.379403
C	 1.057223	 0.049888	 -0.004615
H	 -0.054361	 -1.010670	 -1.459674
H	 0.397526	 -1.952058	 -0.044198
F	 2.153260	 -0.141477	 -0.711130
F	 0.631140	 1.270217	 -0.251103
F	 1.380826	 -0.009827	 1.264311

	symmetry c1
}
set optking {
	frozen_dihedral = ("
		11 8 7 9
	")
}

ee,wfn = optimize('scf', return_wfn=True)
oeprop( wfn, 'DIPOLE', 'QUADRUPOLE', 'MULLIKEN_CHARGES')
f=open( 'psi4out.xyz', 'w' )
f.write( "13  " )
f.write( str(ee) + "\n" )
f.write( MOL.save_string_xyz() )
f.close()
--------------------------------------------------------------------------

    Molecular point group: c1
  Charge       = 0
  Multiplicity = 1
  Basis Set: CC-PVTZ
  Basis Set:
  @DF-RHF Final Energy:  -527.74181896585242
    Total Energy =                       -527.7418189658524170
    Molecular point group: c1
  Basis Set: CC-PVTZ
  Basis Set:
  Basis Set: CC-PVTZ
  Basis Set:
  @DF-RHF Final Energy:  -527.74184094953353
    Total Energy =                       -527.7418409495337528
  Basis Set: CC-PVTZ
  Basis Set:
  Basis Set: CC-PVTZ
  Basis Set:
  @DF-RHF Final Energy:  -527.74184663460846
    Total Energy =                       -527.7418466346082369
  Basis Set: CC-PVTZ
  Basis Set:
  Charge       = 0
  Multiplicity = 1
  Basis Set: CC-PVTZ
  Basis Set:

    Orbital Energies (a.u.)
    -----------------------

    Doubly Occupied:

       1A    -26.341920     2A    -26.340110     3A    -26.338651
       4A    -20.604375     5A    -11.497978     6A    -11.320045
       7A    -11.298680     8A    -11.213766     9A     -1.750585
      10A     -1.646920    11A     -1.645618    12A     -1.444992
      13A     -1.088201    14A     -1.020633    15A     -0.932394
      16A     -0.844397    17A     -0.839412    18A     -0.827455
      19A     -0.797686    20A     -0.729751    21A     -0.719752
      22A     -0.703899    23A     -0.681575    24A     -0.668277
      25A     -0.661601    26A     -0.651076    27A     -0.640229
      28A     -0.587888    29A     -0.566128    30A     -0.529386
      31A     -0.518347    32A     -0.356637

  @DF-RHF Final Energy:  -527.74184753683596

   => Energetics <=

    Nuclear Repulsion Energy =            413.4679063930302618
    One-Electron Energy =               -1550.8027778605792264
    Two-Electron Energy =                 609.5930239307126612
    DFT Exchange-Correlation Energy =       0.0000000000000000
    Empirical Dispersion Energy =           0.0000000000000000
    PCM Polarization Energy =               0.0000000000000000
    EFP Energy =                            0.0000000000000000
    Total Energy =                       -527.7418475368363033
    Molecular point group: c1
  Basis Set: CC-PVTZ
  Basis Set:

  -Total Gradient:
     Atom            X                  Y                   Z
    ------   -----------------  -----------------  -----------------
       1       -0.000009802782    -0.000022571372    -0.000007736845
       2       -0.000000182976     0.000020371683    -0.000001452755
       3        0.000096996889     0.000098969401     0.000045519338
       4       -0.000000403021     0.000002869003     0.000002202468
       5       -0.000013351009    -0.000104680534    -0.000059679434
       6       -0.000021245329    -0.000027682207    -0.000015954841
       7       -0.001809570348     0.001982002568    -0.000203956482
       8        0.001020204290    -0.001450936385     0.001448210951
       9        0.001323728720    -0.001342352243    -0.000043121185
      10        0.000015266983    -0.000025269942    -0.000030158118
      11       -0.000550395329     0.000928858234    -0.001145075991
      12       -0.000023463888    -0.000063502069    -0.000005932976
      13       -0.000027782213     0.000003923859     0.000017135873

  **** Optimization is complete! (in 4 steps) ****
    Final optimized geometry and variables:
    Molecular point group: c1

    Geometry (in Angstrom), charge = 0, multiplicity = 1:

    H           -3.948447381805     0.920994671591    -0.404246683553
    C           -3.248994340680     0.327978901740     0.148390485843
    C           -2.105452463005     0.000431449451    -0.401476472299
    H           -3.504007907700     0.018759876593     1.142968027514
    O           -1.190859175671    -0.764860465043     0.237115437477
    H           -1.836475699579     0.311685524582    -1.394329285954
    C            0.026506290306    -0.992806914564    -0.376312019203
    C            1.059424422888     0.050746603516    -0.000579071630
    H           -0.044014872762    -1.019931214416    -1.457015574258
    H            0.397809331353    -1.948691077504    -0.037480021432
    F            2.162353847460    -0.153201766230    -0.692771197234
    F            0.643491913893     1.269808572137    -0.268219728497
    F            1.366870084835     0.006029466528     1.273333591949

  Mulliken Charges: (a.u.)
   Center  Symbol    Alpha    Beta     Spin     Total
       1     H     0.42519  0.42519  0.00000  0.14963
       2     C     3.19749  3.19749  0.00000 -0.39498
       3     C     2.95774  2.95774  0.00000  0.08451
       4     H     0.42486  0.42486  0.00000  0.15027
       5     O     4.14445  4.14445  0.00000 -0.28889
       6     H     0.43451  0.43451  0.00000  0.13098
       7     C     3.02077  3.02077  0.00000 -0.04153
       8     C     2.67467  2.67467  0.00000  0.65067
       9     H     0.45506  0.45506  0.00000  0.08987
      10     H     0.43578  0.43578  0.00000  0.12844
      11     F     4.61268  4.61268  0.00000 -0.22536
      12     F     4.60979  4.60979  0.00000 -0.21958
      13     F     4.60701  4.60701  0.00000 -0.21402

   Total alpha = 32.00000, Total beta = 32.00000, Total charge =  0.00000

*** Psi4 exiting successfully. Buy a developer a beer!
