  ==> Input File <==

--------------------------------------------------------------------------
set {
	reference rhf
	basis 6-31G*
}

set_num_threads( 4 )
memory 2 gb

molecule MOL {
0 1

H	 -0.341799	 -1.244830	 0.756851
N	 -0.626943	 -0.667432	 -0.000092
C	 -1.979713	 -0.158776	 0.000050
C	 0.271647	 -0.396258	 -0.977418
H	 -2.520245	 -0.492427	 -0.879443
H	 -1.934741	 0.918111	 -0.004428
H	 -2.517790	 -0.485056	 0.883818
C	 1.632038	 -1.033287	 -0.776130
O	 0.020872	 0.290499	 -1.929096
H	 1.546110	 -2.114655	 -0.735962
H	 2.272644	 -0.756402	 -1.599935
H	 2.078556	 -0.697571	 0.154596

	symmetry c1
}
set optking {
	frozen_dihedral = ("
		4 2 3 5
	")
}

ee = optimize('scf')
oeprop('DIPOLE', 'QUADRUPOLE', 'MULLIKEN_CHARGES')
f=open( 'psi4out.xyz', 'w' )
f.write( "12  " )
f.write( str(ee) + "\n" )
f.write( MOL.save_string_xyz() )
f.close()
--------------------------------------------------------------------------

    Molecular point group: c1
  Charge       = 0
  Multiplicity = 1
  Basis Set: 6-31G*
  Basis Set:
  @DF-RHF Final Energy:  -247.00491485786276
    Total Energy =                       -247.0049148578628433
    Molecular point group: c1
  Basis Set: 6-31G*
  Basis Set:
  Basis Set: 6-31G*
  Basis Set:
  @DF-RHF Final Energy:  -247.00558266558843
    Total Energy =                       -247.0055826655885198
  Basis Set: 6-31G*
  Basis Set:
  Basis Set: 6-31G*
  Basis Set:
  @DF-RHF Final Energy:  -247.00565943955408
    Total Energy =                       -247.0056594395543357
  Basis Set: 6-31G*
  Basis Set:
  Basis Set: 6-31G*
  Basis Set:
  @DF-RHF Final Energy:  -247.00558137153169
    Total Energy =                       -247.0055813715317186
  Basis Set: 6-31G*
  Basis Set:
  Charge       = 0
  Multiplicity = 1
  Basis Set: 6-31G*
  Basis Set:

    Orbital Energies (a.u.)
    -----------------------

    Doubly Occupied:

       1A    -20.516157     2A    -15.580488     3A    -11.340981
       4A    -11.255240     5A    -11.229682     6A     -1.384352
       7A     -1.227151     8A     -1.015205     9A     -0.931592
      10A     -0.787556    11A     -0.688607    12A     -0.646895
      13A     -0.633120    14A     -0.583530    15A     -0.579238
      16A     -0.557502    17A     -0.545726    18A     -0.503365
      19A     -0.412606    20A     -0.385014

  @DF-RHF Final Energy:  -247.00567821129411

   => Energetics <=

    Nuclear Repulsion Energy =            181.5194647163721413
    One-Electron Energy =                -695.4422695544180897
    Two-Electron Energy =                 266.9171266267518945
    DFT Exchange-Correlation Energy =       0.0000000000000000
    Empirical Dispersion Energy =           0.0000000000000000
    PCM Polarization Energy =               0.0000000000000000
    EFP Energy =                            0.0000000000000000
    Total Energy =                       -247.0056782112940823
    Molecular point group: c1
  Basis Set: 6-31G*
  Basis Set:

  -Total Gradient:
     Atom            X                  Y                   Z
    ------   -----------------  -----------------  -----------------
       1       -0.000018392645    -0.000003571402    -0.000007512957
       2       -0.000066198025     0.000115954878     0.000054430219
       3        0.000119551334    -0.000151379770    -0.000006832059
       4       -0.000123086513    -0.000016668596    -0.000135608532
       5       -0.000015299902     0.000037520403    -0.000004049746
       6       -0.000025492988     0.000039917155     0.000006332183
       7       -0.000003432621     0.000007087954     0.000007416984
       8        0.000073877949    -0.000030858413     0.000038013614
       9        0.000050317297    -0.000018973530     0.000074727275
      10       -0.000004474777     0.000006596695    -0.000010454315
      11        0.000016464876    -0.000001016935    -0.000006215945
      12       -0.000003833987     0.000015391556    -0.000010246718

  **** Optimization is complete! (in 5 steps) ****
    Final optimized geometry and variables:
    Molecular point group: c1

    Geometry (in Angstrom), charge = 0, multiplicity = 1:

    H           -0.200570334610    -0.859098690183     1.501247230921
    N           -0.471370480029    -0.278320471165     0.743051430630
    C           -1.818055953463     0.248248061686     0.707305343034
    C            0.419679080545    -0.010478814461    -0.238810735658
    H           -2.344848711728    -0.090519874340    -0.175900446498
    H           -1.811326799236     1.330941346508     0.703595532576
    H           -2.347429182705    -0.096210104777     1.585790781006
    C            1.785801963603    -0.640947948095    -0.059786879945
    O            0.143468614862     0.678606398748    -1.181855424824
    H            1.706197332336    -1.722944108227    -0.023128873126
    H            2.413645352289    -0.357536897878    -0.891287322736
    H            2.243763686290    -0.306945838365     0.865956604391

  Mulliken Charges: (a.u.)
   Center  Symbol    Alpha    Beta     Spin     Total
       1     H     0.30910  0.30910  0.00000  0.38181
       2     N     3.89178  3.89178  0.00000 -0.78356
       3     C     3.13226  3.13226  0.00000 -0.26451
       4     C     2.63247  2.63247  0.00000  0.73506
       5     H     0.40603  0.40603  0.00000  0.18794
       6     H     0.40583  0.40583  0.00000  0.18835
       7     H     0.41858  0.41858  0.00000  0.16283
       8     C     3.29473  3.29473  0.00000 -0.58946
       9     O     4.30142  4.30142  0.00000 -0.60285
      10     H     0.40790  0.40790  0.00000  0.18419
      11     H     0.39198  0.39198  0.00000  0.21605
      12     H     0.40792  0.40792  0.00000  0.18416

   Total alpha = 20.00000, Total beta = 20.00000, Total charge =  0.00000
