                              Psi4 1.0.54 Driver

  ==> Input File <==

--------------------------------------------------------------------------
set {
	reference rhf
	basis cc-pvtz
}

set_num_threads( 4 )
memory 2 gb

molecule MOL {
0 1

O	 1.098067	 0.405753	 -0.975630
C	 1.704209	 0.119472	 -0.000093
C	 1.443000	 0.658802	 1.382851
O	 2.715427	 -0.733672	 0.000025
C	 0.288369	 1.648231	 1.447524
H	 1.267358	 -0.193175	 2.031491
H	 2.366664	 1.109276	 1.731217
C	 0.052380	 2.173455	 2.860488
H	 -0.611901	 1.171484	 1.076714
H	 0.488572	 2.475336	 0.775880
C	 -1.101896	 3.167902	 2.945293
H	 -0.145337	 1.338819	 3.529473
H	 0.959971	 2.647511	 3.227621
C	 -1.338117	 3.692494	 4.357530
H	 -2.009119	 2.695167	 2.579745
H	 -0.904716	 4.002753	 2.278732
H	 -1.572071	 2.883659	 5.041844
H	 -2.163246	 4.394837	 4.382272
H	 -0.459074	 4.201932	 4.738308
C	 4.020999	 -0.192556	 0.000019
H	 4.182809	 0.412891	 -0.879449
H	 4.692590	 -1.035653	 0.000152
H	 4.182726	 0.413087	 0.879368

	symmetry c1
}
set optking {
	frozen_dihedral = ("
		1 2 4 20
	")
}

ee,wfn = optimize('scf', return_wfn=True)
oeprop( wfn, 'DIPOLE', 'QUADRUPOLE', 'MULLIKEN_CHARGES')
f=open( 'psi4out.xyz', 'w' )
f.write( "23  " )
f.write( str(ee) + "\n" )
f.write( MOL.save_string_xyz() )
f.close()
--------------------------------------------------------------------------

    Molecular point group: c1
  Charge       = 0
  Multiplicity = 1
  Basis Set: CC-PVTZ
  Basis Set:
  @DF-RHF Final Energy:  -423.10889300019426
    Total Energy =                       -423.1088930001944846
    Molecular point group: c1
  Basis Set: CC-PVTZ
  Basis Set:
  Basis Set: CC-PVTZ
  Basis Set:
  @DF-RHF Final Energy:  -422.94538829548787
    Total Energy =                       -422.9453882954875326
  Basis Set: CC-PVTZ
  Basis Set:
  Basis Set: CC-PVTZ
  Basis Set:
  @DF-RHF Final Energy:  -423.05986113441770
    Total Energy =                       -423.0598611344174742
  Basis Set: CC-PVTZ
  Basis Set:
  Basis Set: CC-PVTZ
  Basis Set:
  @DF-RHF Final Energy:  -423.10622300092734
    Total Energy =                       -423.1062230009270024
  Basis Set: CC-PVTZ
  Basis Set:
  @DF-RHF Final Energy:  -423.09308493960197
    Total Energy =                       -423.0930849396015674
  @DF-RHF Final Energy:  -423.10844336777990
    Total Energy =                       -423.1084433677795005
  @DF-RHF Final Energy:  -423.11055350303695
    Total Energy =                       -423.1105535030374085
  @DF-RHF Final Energy:  -423.11095437354334
    Total Energy =                       -423.1109543735429952
  Basis Set: CC-PVTZ
  Basis Set:
  @DF-RHF Final Energy:  -423.11098056096029
    Total Energy =                       -423.1109805609597743
  Basis Set: CC-PVTZ
  Basis Set:
  Basis Set: CC-PVTZ
  Basis Set:
  @DF-RHF Final Energy:  -423.11098873816616
    Total Energy =                       -423.1109887381657018
  Basis Set: CC-PVTZ
  Basis Set:
  Basis Set: CC-PVTZ
  Basis Set:
  @DF-RHF Final Energy:  -423.11099088261028
    Total Energy =                       -423.1109908826105084
  Basis Set: CC-PVTZ
  Basis Set:
  Charge       = 0
  Multiplicity = 1
  Basis Set: CC-PVTZ
  Basis Set:

    Orbital Energies (a.u.)
    -----------------------

    Doubly Occupied:

       1A    -20.578294     2A    -20.545126     3A    -11.367676
       4A    -11.289821     5A    -11.238856     6A    -11.220600
       7A    -11.218827     8A    -11.216809     9A    -11.209697
      10A     -1.461280    11A     -1.370042    12A     -1.096674
      13A     -1.042974    14A     -0.981015    15A     -0.945443
      16A     -0.852019    17A     -0.798450    18A     -0.766531
      19A     -0.698473    20A     -0.681166    21A     -0.677430
      22A     -0.651592    23A     -0.621326    24A     -0.607343
      25A     -0.580890    26A     -0.569182    27A     -0.557923
      28A     -0.537416    29A     -0.511512    30A     -0.497983
      31A     -0.487721    32A     -0.482847    33A     -0.471348
      34A     -0.468807    35A     -0.452646    36A     -0.434522

  @DF-RHF Final Energy:  -423.11099112528569

   => Energetics <=

    Nuclear Repulsion Energy =            453.6606845527452947
    One-Electron Energy =               -1475.1628270818000601
    Two-Electron Energy =                 598.3911514037686175
    DFT Exchange-Correlation Energy =       0.0000000000000000
    Empirical Dispersion Energy =           0.0000000000000000
    PCM Polarization Energy =               0.0000000000000000
    EFP Energy =                            0.0000000000000000
    Total Energy =                       -423.1109911252860911
    Molecular point group: c1
  Basis Set: CC-PVTZ
  Basis Set:

  -Total Gradient:
     Atom            X                  Y                   Z
    ------   -----------------  -----------------  -----------------
       1       -0.000842626833    -0.001203135115     0.000134377599
       2        0.001211561190     0.001697455006     0.000412093084
       3       -0.000008195563    -0.000011628046     0.000001477686
       4       -0.000434249829    -0.000240154147    -0.001686207161
       5        0.000002797970    -0.000014972346    -0.000006379907
       6        0.000006680130    -0.000004871557     0.000000350030
       7       -0.000011089835    -0.000004398770    -0.000011442840
       8        0.000007536853     0.000015297303     0.000002851124
       9       -0.000000338646     0.000004687666    -0.000007281999
      10       -0.000002540269     0.000000198774     0.000006747890
      11        0.000009918854     0.000005787002    -0.000005471768
      12        0.000009760566     0.000003548440    -0.000002926445
      13       -0.000003139480     0.000002919772     0.000000834752
      14       -0.000011216046    -0.000013632293     0.000005795195
      15       -0.000000017142     0.000006090095    -0.000002363030
      16        0.000001044564    -0.000002124706     0.000003697247
      17        0.000003013409     0.000003119853     0.000002893181
      18       -0.000002475293    -0.000003167206     0.000000424321
      19       -0.000002345193     0.000001376107    -0.000004081770
      20        0.000040553378    -0.000262571837     0.001159217363
      21        0.000016344115     0.000012181946    -0.000011668627
      22       -0.000002208474     0.000004780888    -0.000000979690
      23        0.000011231578     0.000003213172     0.000008043763

  **** Optimization is complete! (in 12 steps) ****
    Final optimized geometry and variables:
    Molecular point group: c1

    Geometry (in Angstrom), charge = 0, multiplicity = 1:

    O            0.035722721686    -0.311445175124    -2.378744961735
    C            0.710940592581    -0.726874537849    -1.510601934321
    C            0.446386894544    -0.518870324941    -0.040418869273
    O            1.769865217136    -1.524273611386    -1.771768828455
    C           -0.732098772362     0.397520363529     0.256234708566
    H            0.292457029033    -1.506801691805     0.383589427035
    H            1.354427208152    -0.143024478110     0.419977649749
    C           -0.977074769585     0.566011964129     1.752815116051
    H           -1.619909699091    -0.000548398103    -0.220747512950
    H           -0.555194497534     1.365964375383    -0.198890134556
    C           -2.158983034376     1.478422081837     2.067526514612
    H           -1.148506391315    -0.408892891893     2.203645666043
    H           -0.082165667640     0.965352014958     2.225322788626
    C           -2.405704959960     1.644552763096     3.563136746060
    H           -3.053196419956     1.080439517873     1.596446949673
    H           -1.987924420959     2.453287208698     1.619673612967
    H           -2.613935361077     0.689634255968     4.034222608111
    H           -3.250819049979     2.296531667482     3.751081270324
    H           -1.540699014965     2.074056515919     4.057693451907
    C            3.049378991250    -0.936631668023    -1.775925627013
    H            3.107090107077    -0.151480841896    -2.519741736706
    H            3.747788366719    -1.717647568100    -2.028864788952
    H            3.307858076700    -0.534837739188    -0.803117157354

  Mulliken Charges: (a.u.)
   Center  Symbol    Alpha    Beta     Spin     Total
       1     O     4.16773  4.16773  0.00000 -0.33545
       2     C     2.78498  2.78498  0.00000  0.43005
       3     C     3.12504  3.12504  0.00000 -0.25008
       4     O     4.16650  4.16650  0.00000 -0.33300
       5     C     3.08482  3.08482  0.00000 -0.16964
       6     H     0.43768  0.43768  0.00000  0.12464
       7     H     0.44425  0.44425  0.00000  0.11149
       8     C     3.08808  3.08808  0.00000 -0.17615
       9     H     0.44297  0.44297  0.00000  0.11406
      10     H     0.44750  0.44750  0.00000  0.10500
      11     C     3.08446  3.08446  0.00000 -0.16891
      12     H     0.45497  0.45497  0.00000  0.09007
      13     H     0.45640  0.45640  0.00000  0.08721
      14     C     3.15032  3.15032  0.00000 -0.30064
      15     H     0.45246  0.45246  0.00000  0.09508
      16     H     0.45330  0.45330  0.00000  0.09339
      17     H     0.45501  0.45501  0.00000  0.08997
      18     H     0.44734  0.44734  0.00000  0.10531
      19     H     0.45557  0.45557  0.00000  0.08885
      20     C     3.03682  3.03682  0.00000 -0.07363
      21     H     0.45643  0.45643  0.00000  0.08714
      22     H     0.44129  0.44129  0.00000  0.11742
      23     H     0.46608  0.46608  0.00000  0.06784

   Total alpha = 36.00000, Total beta = 36.00000, Total charge =  0.00000

*** Psi4 exiting successfully. Buy a developer a beer!
