                              Psi4 1.0.54 Driver

  ==> Input File <==

--------------------------------------------------------------------------
set {
	reference rhf
	basis cc-pvtz
}

set_num_threads( 4 )
memory 2 gb

molecule MOL {
0 1

O	 3.219313	 0.959291	 -0.614106
C	 2.698710	 0.058177	 -0.050237
C	 1.246364	 -0.005813	 0.348416
O	 3.344101	 -1.038700	 0.312317
C	 0.453207	 1.232821	 -0.049003
H	 0.839270	 -0.907818	 -0.092281
H	 1.216683	 -0.160521	 1.422434
C	 -0.998367	 1.217982	 0.432195
H	 0.481498	 1.345443	 -1.127236
H	 0.951413	 2.105557	 0.354893
C	 -1.882951	 0.151251	 -0.211235
H	 -1.429490	 2.193659	 0.228843
H	 -1.019755	 1.099323	 1.513279
C	 -3.342450	 0.243269	 0.226009
H	 -1.826223	 0.246578	 -1.293162
H	 -1.508033	 -0.839650	 0.027695
C	 -3.619416	 1.402349	 1.179212
H	 -3.633620	 -0.689441	 0.703096
H	 -3.974977	 0.344437	 -0.652934
C	 -5.079077	 1.486552	 1.612891
H	 -2.988249	 1.302521	 2.058065
H	 -3.331530	 2.335627	 0.702797
H	 -5.241246	 2.319036	 2.287914
H	 -5.388086	 0.581120	 2.124571
H	 -5.734079	 1.621368	 0.758488
C	 4.720529	 -1.114346	 0.001449
H	 4.874321	 -1.055557	 -1.065852
H	 5.057824	 -2.067950	 0.373977
H	 5.264321	 -0.313596	 0.480350

	symmetry c1
}
set optking {
	frozen_dihedral = ("
		17 14 11 15
	")
}

ee,wfn = optimize('scf', return_wfn=True)
oeprop( wfn, 'DIPOLE', 'QUADRUPOLE', 'MULLIKEN_CHARGES')
f=open( 'psi4out.xyz', 'w' )
f.write( "29  " )
f.write( str(ee) + "\n" )
f.write( MOL.save_string_xyz() )
f.close()
--------------------------------------------------------------------------

    Molecular point group: c1
  Charge       = 0
  Multiplicity = 1
  Basis Set: CC-PVTZ
  Basis Set:
  @DF-RHF Final Energy:  -501.20925737561856
    Total Energy =                       -501.2092573756178808
    Molecular point group: c1
  Basis Set: CC-PVTZ
  Basis Set:
  Basis Set: CC-PVTZ
  Basis Set:
  @DF-RHF Final Energy:  -501.14931655380826
    Total Energy =                       -501.1493165538084895
  Basis Set: CC-PVTZ
  Basis Set:
  Basis Set: CC-PVTZ
  Basis Set:
  @DF-RHF Final Energy:  -501.20871696216193
    Total Energy =                       -501.2087169621612475
  Basis Set: CC-PVTZ
  Basis Set:
  Basis Set: CC-PVTZ
  Basis Set:
  @DF-RHF Final Energy:  -501.21382944960135
    Total Energy =                       -501.2138294496019171
  Basis Set: CC-PVTZ
  Basis Set:
  @DF-RHF Final Energy:  -501.21441039594947
    Total Energy =                       -501.2144103959492440
  @DF-RHF Final Energy:  -501.21389533960496
    Total Energy =                       -501.2138953396068928
  Basis Set: CC-PVTZ
  Basis Set:
  @DF-RHF Final Energy:  -501.21444518043347
    Total Energy =                       -501.2144451804326764
  Basis Set: CC-PVTZ
  Basis Set:
  Basis Set: CC-PVTZ
  Basis Set:
  @DF-RHF Final Energy:  -501.21443842457904
    Total Energy =                       -501.2144384245791571
  Basis Set: CC-PVTZ
  Basis Set:
  Basis Set: CC-PVTZ
  Basis Set:
  @DF-RHF Final Energy:  -501.21444990540351
    Total Energy =                       -501.2144499054035123
  Basis Set: CC-PVTZ
  Basis Set:
  Charge       = 0
  Multiplicity = 1
  Basis Set: CC-PVTZ
  Basis Set:

    Orbital Energies (a.u.)
    -----------------------

    Doubly Occupied:

       1A    -20.595886     2A    -20.533734     3A    -11.364142
       4A    -11.278183     5A    -11.232746     6A    -11.216802
       7A    -11.215104     8A    -11.214226     9A    -11.213510
      10A    -11.212876    11A    -11.206712    12A     -1.471787
      13A     -1.365384    14A     -1.097211    15A     -1.065407
      16A     -1.018331    17A     -0.976480    18A     -0.929494
      19A     -0.863635    20A     -0.820865    21A     -0.774383
      22A     -0.757862    23A     -0.703087    24A     -0.685168
      25A     -0.675918    26A     -0.648733    27A     -0.628323
      28A     -0.606455    29A     -0.594198    30A     -0.582567
      31A     -0.565280    32A     -0.552588    33A     -0.549716
      34A     -0.525324    35A     -0.520429    36A     -0.499593
      37A     -0.492393    38A     -0.485611    39A     -0.483690
      40A     -0.460539    41A     -0.450965    42A     -0.445725
      43A     -0.441344    44A     -0.439874

  @DF-RHF Final Energy:  -501.21445023912372

   => Energetics <=

    Nuclear Repulsion Energy =            615.3496522565538953
    One-Electron Energy =               -1902.2036519661457987
    Two-Electron Energy =                 785.6395494704681823
    DFT Exchange-Correlation Energy =       0.0000000000000000
    Empirical Dispersion Energy =           0.0000000000000000
    PCM Polarization Energy =               0.0000000000000000
    EFP Energy =                            0.0000000000000000
    Total Energy =                       -501.2144502391236074
    Molecular point group: c1
  Basis Set: CC-PVTZ
  Basis Set:

  -Total Gradient:
     Atom            X                  Y                   Z
    ------   -----------------  -----------------  -----------------
       1       -0.000042756959    -0.000081798228     0.000039199411
       2        0.000085414525     0.000083604491    -0.000012514108
       3       -0.000011678020    -0.000007766490    -0.000015324870
       4       -0.000037044712     0.000011229814    -0.000010284891
       5        0.000002668996     0.000035784450     0.000016602422
       6       -0.000020346525    -0.000011374485     0.000012264483
       7        0.000000217051    -0.000008218822    -0.000006868928
       8        0.000006588864     0.000006036004     0.000014995155
       9        0.000003304686     0.000008971501    -0.000009854519
      10        0.000002100919    -0.000013322374    -0.000012450384
      11        0.000095343774     0.001198124416     0.000352846731
      12       -0.000041211581     0.000003685734     0.000010086550
      13        0.000020048866    -0.000006681665    -0.000033287723
      14       -0.000633657114     0.000382663318    -0.000926838501
      15        0.000089856053    -0.001127099510    -0.000074193390
      16        0.000016774730    -0.000015108462     0.000007703550
      17        0.000434489348    -0.000478603030     0.000715038843
      18        0.000016522114     0.000006255912     0.000011805305
      19        0.000009253775     0.000004181672     0.000005726194
      20       -0.000006289475     0.000043139589    -0.000021587963
      21       -0.000067816808    -0.000017513394    -0.000014853873
      22        0.000017385234     0.000007301498    -0.000021259532
      23        0.000005663112    -0.000024096114    -0.000035240764
      24        0.000015525301     0.000003140795     0.000007677573
      25        0.000012952956     0.000007046415     0.000007705162
      26        0.000015126661    -0.000003562317     0.000006452039
      27        0.000001796740     0.000014498347    -0.000008281723
      28        0.000014179779    -0.000005726951     0.000008889888
      29       -0.000004412279    -0.000014792109    -0.000014152141

  **** Optimization is complete! (in 10 steps) ****
    Final optimized geometry and variables:
    Molecular point group: c1

    Geometry (in Angstrom), charge = 0, multiplicity = 1:

    O            2.716582595540     0.883413192789    -1.723495310089
    C            2.478424709703    -0.027095383828    -1.005765007262
    C            1.203311531028    -0.219062325855    -0.224785012092
    O            3.325274726988    -1.021413818474    -0.792714415727
    C            0.192482500528     0.902596272162    -0.430064480354
    H            0.804480114204    -1.184959883611    -0.509838166596
    H            1.479877460671    -0.308905253727     0.821032295711
    C           -1.063014130133     0.777441780238     0.436252245133
    H           -0.085951254718     0.946676723109    -1.477282493757
    H            0.677826327832     1.845757736973    -0.211135472820
    C           -1.953618952800    -0.412798341764     0.072107685033
    H           -1.626911021067     1.696896934211     0.331321640864
    H           -0.769034499499     0.719023069287     1.480330028895
    C           -3.291319903203    -0.566493073450     0.846620354209
    H           -2.168938361146    -0.359420745437    -0.990647430374
    H           -1.384839142381    -1.326170280984     0.202829206296
    C           -3.655713229747     0.516080776279     1.863874351192
    H           -3.282051529585    -1.517744920416     1.369536450527
    H           -4.102275613573    -0.638395601905     0.129107739237
    C           -4.986473144287     0.226598417833     2.551537364510
    H           -2.879566709129     0.598203103563     2.617027295319
    H           -3.714630710571     1.483758410345     1.376810081207
    H           -5.233656110508     1.001403737632     3.268134782998
    H           -4.955471182044    -0.718429540890     3.083741371102
    H           -5.796118261206     0.171871057598     1.831393204412
    C            4.567331415824    -0.971186658340    -1.464818336697
    H            4.422189537614    -0.969722213231    -2.534963823123
    H            5.104975752732    -1.855528056389    -1.163416674352
    H            5.118091639720    -0.086057453677    -1.182981355645

  Mulliken Charges: (a.u.)
   Center  Symbol    Alpha    Beta     Spin     Total
       1     O     4.19713  4.19713  0.00000 -0.39426
       2     C     2.80535  2.80535  0.00000  0.38929
       3     C     3.10107  3.10107  0.00000 -0.20215
       4     O     4.14721  4.14721  0.00000 -0.29443
       5     C     3.09292  3.09292  0.00000 -0.18584
       6     H     0.43910  0.43910  0.00000  0.12180
       7     H     0.44013  0.44013  0.00000  0.11973
       8     C     3.10804  3.10804  0.00000 -0.21608
       9     H     0.44636  0.44636  0.00000  0.10727
      10     H     0.43925  0.43925  0.00000  0.12149
      11     C     3.10229  3.10229  0.00000 -0.20458
      12     H     0.44148  0.44148  0.00000  0.11704
      13     H     0.45118  0.45118  0.00000  0.09765
      14     C     3.09105  3.09105  0.00000 -0.18211
      15     H     0.44982  0.44982  0.00000  0.10035
      16     H     0.45038  0.45038  0.00000  0.09924
      17     C     3.08847  3.08847  0.00000 -0.17693
      18     H     0.45228  0.45228  0.00000  0.09543
      19     H     0.45060  0.45060  0.00000  0.09879
      20     C     3.15153  3.15153  0.00000 -0.30306
      21     H     0.45210  0.45210  0.00000  0.09580
      22     H     0.45214  0.45214  0.00000  0.09573
      23     H     0.44794  0.44794  0.00000  0.10413
      24     H     0.45528  0.45528  0.00000  0.08944
      25     H     0.45485  0.45485  0.00000  0.09030
      26     C     3.03815  3.03815  0.00000 -0.07630
      27     H     0.45434  0.45434  0.00000  0.09132
      28     H     0.44529  0.44529  0.00000  0.10942
      29     H     0.45424  0.45424  0.00000  0.09151

   Total alpha = 44.00000, Total beta = 44.00000, Total charge = -0.00000

*** Psi4 exiting successfully. Buy a developer a beer!
