  ==> Input File <==

--------------------------------------------------------------------------
set {
	reference rhf
	basis cc-pvtz
}

set_num_threads( 4 )
memory 2 gb

molecule MOL {
0 1

H	 2.413253	 0.529915	 1.172875
O	 1.557416	 0.132006	 1.227156
C	 1.050374	 0.054877	 0.000135
C	 -0.318151	 -0.570512	 0.000144
O	 1.638359	 0.443078	 -0.949361
C	 -1.454884	 0.441630	 -0.000560
H	 -0.371613	 -1.223646	 -0.864985
H	 -0.371920	 -1.222758	 0.865929
C	 -2.822577	 -0.232186	 0.000063
H	 -1.359760	 1.084704	 -0.867077
H	 -1.359641	 1.085996	 0.864983
H	 -2.954352	 -0.858985	 -0.875745
H	 -3.615886	 0.505352	 0.000019
H	 -2.953878	 -0.858359	 0.876394

	symmetry c1
}
set optking {
	frozen_dihedral = ("
		2 3 4 7
	")
}

ee = optimize('scf')
oeprop('DIPOLE', 'QUADRUPOLE', 'MULLIKEN_CHARGES')
f=open( 'psi4out.xyz', 'w' )
f.write( "14  " )
f.write( str(ee) + "\n" )
f.write( MOL.save_string_xyz() )
f.close()
--------------------------------------------------------------------------

    Molecular point group: c1
  Charge       = 0
  Multiplicity = 1
  Basis Set: CC-PVTZ
  Basis Set:
  @DF-RHF Final Energy:  -305.99872764025679
    Total Energy =                       -305.9987276402567886
    Molecular point group: c1
  Basis Set: CC-PVTZ
  Basis Set:
  Basis Set: CC-PVTZ
  Basis Set:
  @DF-RHF Final Energy:  -305.99938599276300
    Total Energy =                       -305.9993859927628819
  Basis Set: CC-PVTZ
  Basis Set:
  Basis Set: CC-PVTZ
  Basis Set:
  @DF-RHF Final Energy:  -305.99848468356180
    Total Energy =                       -305.9984846835616281
  Basis Set: CC-PVTZ
  Basis Set:
  Basis Set: CC-PVTZ
  Basis Set:
  @DF-RHF Final Energy:  -305.99948510335980
    Total Energy =                       -305.9994851033598025
  Basis Set: CC-PVTZ
  Basis Set:
  Basis Set: CC-PVTZ
  Basis Set:
  @DF-RHF Final Energy:  -305.99949020970018
    Total Energy =                       -305.9994902097000704
  Basis Set: CC-PVTZ
  Basis Set:
  Charge       = 0
  Multiplicity = 1
  Basis Set: CC-PVTZ
  Basis Set:

    Orbital Energies (a.u.)
    -----------------------

    Doubly Occupied:

       1A    -20.606014     2A    -20.538221     3A    -11.372935
       4A    -11.237971     5A    -11.233583     6A    -11.218997
       7A     -1.477807     8A     -1.368191     9A     -1.087192
      10A     -0.980726    11A     -0.854959    12A     -0.808072
      13A     -0.706335    14A     -0.689352    15A     -0.646683
      16A     -0.636505    17A     -0.596720    18A     -0.570621
      19A     -0.553337    20A     -0.517404    21A     -0.499458
      22A     -0.489450    23A     -0.474739    24A     -0.442475

  @DF-RHF Final Energy:  -305.99949058514323

   => Energetics <=

    Nuclear Repulsion Energy =            240.7456060781706526
    One-Electron Energy =                -894.2746956558951297
    Two-Electron Energy =                 347.5295989925812705
    DFT Exchange-Correlation Energy =       0.0000000000000000
    Empirical Dispersion Energy =           0.0000000000000000
    PCM Polarization Energy =               0.0000000000000000
    EFP Energy =                            0.0000000000000000
    Total Energy =                       -305.9994905851431781
    Molecular point group: c1
  Basis Set: CC-PVTZ
  Basis Set:

  -Total Gradient:
     Atom            X                  Y                   Z
    ------   -----------------  -----------------  -----------------
       1       -0.000013831593     0.000001000639    -0.000011196326
       2        0.000144423254    -0.000323140933    -0.000004324337
       3       -0.000145983939     0.000359880618     0.000054567665
       4       -0.000150745322     0.000296081470    -0.000262591617
       5       -0.000010079861    -0.000004755098    -0.000000940647
       6        0.000000500700    -0.000007227462     0.000006982921
       7        0.000164299533    -0.000315345835     0.000211810769
       8       -0.000006081947    -0.000007116719     0.000005698416
       9        0.000007872106    -0.000001480537     0.000000360544
      10       -0.000004739887    -0.000006208935    -0.000003827514
      11       -0.000008469453    -0.000004217210     0.000003505012
      12        0.000009219790     0.000002909641     0.000000570352
      13        0.000005976344     0.000007461140    -0.000000815234
      14        0.000007640284     0.000002159221     0.000000199998

  **** Optimization is complete! (in 6 steps) ****
    Final optimized geometry and variables:
    Molecular point group: c1

    Geometry (in Angstrom), charge = 0, multiplicity = 1:

    H            2.449644150443     0.515717713743     1.073235978906
    O            1.623968649452     0.061059847245     1.150367740263
    C            1.065377624497    -0.000248880392    -0.053905889585
    C           -0.283392695553    -0.667397896887    -0.042333291153
    O            1.587433842447     0.452747389479    -1.014175650348
    C           -1.409457734698     0.372937789630    -0.059151154393
    H           -0.341961286418    -1.288998989081    -0.926054568249
    H           -0.367622733484    -1.298230133560     0.832053049552
    C           -2.788650762635    -0.275026256027    -0.077730179710
    H           -1.287545571712     1.007238204101    -0.929041025642
    H           -1.319244201201     1.012182253742     0.813139508530
    H           -2.914940429476    -0.899343595930    -0.955473702782
    H           -3.567832020175     0.477456916636    -0.091098323702
    H           -2.942587820643    -0.896776135697     0.797497817148

  Mulliken Charges: (a.u.)
   Center  Symbol    Alpha    Beta     Spin     Total
       1     H     0.38015  0.38015  0.00000  0.23971
       2     O     4.16176  4.16176  0.00000 -0.32353
       3     C     2.80497  2.80497  0.00000  0.39006
       4     C     3.08754  3.08754  0.00000 -0.17508
       5     O     4.19932  4.19932  0.00000 -0.39864
       6     C     3.09283  3.09283  0.00000 -0.18567
       7     H     0.43980  0.43980  0.00000  0.12040
       8     H     0.44149  0.44149  0.00000  0.11702
       9     C     3.14996  3.14996  0.00000 -0.29992
      10     H     0.44148  0.44148  0.00000  0.11704
      11     H     0.44828  0.44828  0.00000  0.10344
      12     H     0.45282  0.45282  0.00000  0.09435
      13     H     0.44563  0.44563  0.00000  0.10873
      14     H     0.45396  0.45396  0.00000  0.09209

   Total alpha = 24.00000, Total beta = 24.00000, Total charge = -0.00000
