  ==> Input File <==

--------------------------------------------------------------------------
set {
	reference rhf
	basis 6-31G*
}

set_num_threads( 1 )
memory 2 gb

molecule MOL {
0 1

O	 2.700007	 -0.259784	 0.532909
C	 1.705091	 0.115954	 0.001797
C	 0.381791	 -0.609817	 0.001258
O	 1.628478	 1.255643	 -0.673760
C	 -0.823008	 0.326187	 0.001381
H	 0.371250	 -1.265087	 -0.865474
H	 0.370908	 -1.265746	 0.867490
C	 -2.149452	 -0.435131	 -0.000098
H	 -0.770201	 0.977095	 -0.865636
H	 -0.771220	 0.975655	 0.869608
C	 -3.368779	 0.488503	 -0.000883
H	 -2.193746	 -1.087250	 -0.871175
H	 -2.195311	 -1.087803	 0.870418
C	 -4.693822	 -0.272754	 -0.001129
H	 -3.325798	 1.139422	 -0.871284
H	 -3.326423	 1.139959	 0.869145
H	 -4.781274	 -0.907928	 -0.878124
H	 -5.538651	 0.408946	 -0.001420
H	 -4.781694	 -0.907783	 0.875984
C	 2.806001	 2.038399	 -0.749191
H	 3.132196	 2.330334	 0.238685
H	 2.544607	 2.909559	 -1.329388
H	 3.597854	 1.487795	 -1.236334

	symmetry c1
}
set optking {
	frozen_dihedral = ("
		15 11 8 12,
		9 5 8 12,
		9 5 3 6,
		1 2 4 20
	")
}

ee = energy('scf')
oeprop('DIPOLE', 'QUADRUPOLE', 'MULLIKEN_CHARGES')
f=open( 'psi4out.xyz', 'w' )
f.write( "23  " )
f.write( str(ee) + "\n" )
f.write( MOL.save_string_xyz() )
f.close()
--------------------------------------------------------------------------

    Molecular point group: c1

    Geometry (in Angstrom), charge = 0, multiplicity = 1:

       Center              X                  Y                   Z               Mass
    ------------   -----------------  -----------------  -----------------  -----------------
           O          2.871246400402    -0.572082713649     0.637144681622    15.994914619560
           C          1.876330400402    -0.196344713649     0.106032681622    12.000000000000
           C          0.553030400402    -0.922115713649     0.105493681622    12.000000000000
           O          1.799717400402     0.943344286351    -0.569524318378    15.994914619560
           C         -0.651768599598     0.013888286351     0.105616681622    12.000000000000
           H          0.542489400402    -1.577385713649    -0.761238318378     1.007825032070
           H          0.542147400402    -1.578044713649     0.971725681622     1.007825032070
           C         -1.978212599598    -0.747429713649     0.104137681622    12.000000000000
           H         -0.598961599598     0.664796286351    -0.761400318378     1.007825032070
           H         -0.599980599598     0.663356286351     0.973843681622     1.007825032070
           C         -3.197539599598     0.176204286351     0.103352681622    12.000000000000
           H         -2.022506599598    -1.399548713649    -0.766939318378     1.007825032070
           H         -2.024071599598    -1.400101713649     0.974653681622     1.007825032070
           C         -4.522582599598    -0.585052713649     0.103106681622    12.000000000000
           H         -3.154558599598     0.827123286351    -0.767048318378     1.007825032070
           H         -3.155183599598     0.827660286351     0.973380681622     1.007825032070
           H         -4.610034599598    -1.220226713649    -0.773888318378     1.007825032070
           H         -5.367411599598     0.096647286351     0.102815681622     1.007825032070
           H         -4.610454599598    -1.220081713649     0.980219681622     1.007825032070
           C          2.977240400402     1.726100286351    -0.644955318378    12.000000000000
           H          3.303435400402     2.018035286351     0.342920681622     1.007825032070
           H          2.715846400402     2.597260286351    -1.225152318378     1.007825032070
           H          3.769093400402     1.175496286351    -1.132098318378     1.007825032070

  Charge       = 0
  Multiplicity = 1
  Basis Set: 6-31G*
  Basis Set:

    Orbital Energies (a.u.)
    -----------------------

    Doubly Occupied:

       1A    -20.604906     2A    -20.543506     3A    -11.372070
       4A    -11.281266     5A    -11.234910     6A    -11.223142
       7A    -11.219895     8A    -11.218854     9A    -11.211417
      10A     -1.469771    11A     -1.361979    12A     -1.096786
      13A     -1.046050    14A     -0.982452    15A     -0.935085
      16A     -0.847516    17A     -0.797409    18A     -0.774217
      19A     -0.694300    20A     -0.683146    21A     -0.671713
      22A     -0.652404    23A     -0.609424    24A     -0.591337
      25A     -0.577365    26A     -0.566562    27A     -0.551528
      28A     -0.525108    29A     -0.524233    30A     -0.508546
      31A     -0.486746    32A     -0.479112    33A     -0.470253
      34A     -0.467100    35A     -0.454460    36A     -0.425839

  @DF-RHF Final Energy:  -422.97353873791099

   => Energetics <=

    Nuclear Repulsion Energy =            456.8243340724644668
    One-Electron Energy =               -1481.2749779926607516
    Two-Electron Energy =                 601.4771051822839354
    DFT Exchange-Correlation Energy =       0.0000000000000000
    Empirical Dispersion Energy =           0.0000000000000000
    PCM Polarization Energy =               0.0000000000000000
    EFP Energy =                            0.0000000000000000
    Total Energy =                       -422.9735387379124631

  Mulliken Charges: (a.u.)
   Center  Symbol    Alpha    Beta     Spin     Total
       1     O     4.28783  4.28783  0.00000 -0.57566
       2     C     2.60595  2.60595  0.00000  0.78809
       3     C     3.20834  3.20834  0.00000 -0.41669
       4     O     4.30323  4.30323  0.00000 -0.60645
       5     C     3.15730  3.15730  0.00000 -0.31459
       6     H     0.40084  0.40084  0.00000  0.19831
       7     H     0.39847  0.39847  0.00000  0.20306
       8     C     3.15314  3.15314  0.00000 -0.30628
       9     H     0.40662  0.40662  0.00000  0.18676
      10     H     0.41757  0.41757  0.00000  0.16486
      11     C     3.15172  3.15172  0.00000 -0.30345
      12     H     0.42304  0.42304  0.00000  0.15391
      13     H     0.42256  0.42256  0.00000  0.15488
      14     C     3.23966  3.23966  0.00000 -0.47932
      15     H     0.42195  0.42195  0.00000  0.15609
      16     H     0.42203  0.42203  0.00000  0.15594
      17     H     0.42145  0.42145  0.00000  0.15710
      18     H     0.41849  0.41849  0.00000  0.16302
      19     H     0.42119  0.42119  0.00000  0.15761
      20     C     3.09229  3.09229  0.00000 -0.18459
      21     H     0.40860  0.40860  0.00000  0.18280
      22     H     0.40888  0.40888  0.00000  0.18223
      23     H     0.40882  0.40882  0.00000  0.18236

   Total alpha = 36.00000, Total beta = 36.00000, Total charge =  0.00000
