  ==> Input File <==

--------------------------------------------------------------------------
set {
	reference rhf
	basis 6-31G*
}

set_num_threads( 4 )
memory 2 gb

molecule MOL {
0 1

H	 -3.301617	 0.570527	 0.000000
C	 -2.250981	 0.344174	 0.000000
C	 -1.813665	 -0.976045	 0.000000
C	 -1.315303	 1.358057	 0.000000
H	 -2.528860	 -1.779366	 0.000000
C	 -0.467298	 -1.270142	 0.000000
H	 -1.635074	 2.385107	 0.000000
C	 0.047081	 1.078114	 0.000000
H	 -0.115948	 -2.285222	 0.000000
C	 0.472063	 -0.241155	 0.000000
H	 0.749976	 1.888426	 0.000000
O	 1.765256	 -0.628444	 0.000000
C	 2.757418	 0.265058	 -0.415139
H	 2.613300	 0.567277	 -1.447237
H	 3.695069	 -0.263310	 -0.328823
H	 2.786974	 1.147189	 0.215974

	symmetry c1
}
set optking {
	frozen_dihedral = ("
		13 12 10 8
	")
}

ee = optimize('scf')
oeprop('DIPOLE', 'QUADRUPOLE', 'MULLIKEN_CHARGES')
f=open( 'psi4out.xyz', 'w' )
f.write( "16  " )
f.write( str(ee) + "\n" )
f.write( MOL.save_string_xyz() )
f.close()
--------------------------------------------------------------------------

    Molecular point group: c1
  Charge       = 0
  Multiplicity = 1
  Basis Set: 6-31G*
  Basis Set:
  @DF-RHF Final Energy:  -344.58172361680005
    Total Energy =                       -344.5817236167998772
    Molecular point group: c1
  Basis Set: 6-31G*
  Basis Set:
  Basis Set: 6-31G*
  Basis Set:
  @DF-RHF Final Energy:  -344.58205018559966
    Total Energy =                       -344.5820501855997691
  Basis Set: 6-31G*
  Basis Set:
  Basis Set: 6-31G*
  Basis Set:
  @DF-RHF Final Energy:  -344.58224002794708
    Total Energy =                       -344.5822400279467388
  Basis Set: 6-31G*
  Basis Set:
  Basis Set: 6-31G*
  Basis Set:
  @DF-RHF Final Energy:  -344.58224639780912
    Total Energy =                       -344.5822463978091719
  Basis Set: 6-31G*
  Basis Set:
  Charge       = 0
  Multiplicity = 1
  Basis Set: 6-31G*
  Basis Set:

    Orbital Energies (a.u.)
    -----------------------

    Doubly Occupied:

       1A    -20.583416     2A    -11.293086     3A    -11.279522
       4A    -11.232954     5A    -11.231429     6A    -11.224100
       7A    -11.219922     8A    -11.219527     9A     -1.412393
      10A     -1.145901    11A     -1.021178    12A     -1.012820
      13A     -0.940717    14A     -0.830701    15A     -0.804738
      16A     -0.720584    17A     -0.664191    18A     -0.661724
      19A     -0.654225    20A     -0.616236    21A     -0.587345
      22A     -0.576901    23A     -0.525533    24A     -0.517878
      25A     -0.507923    26A     -0.477503    27A     -0.458400
      28A     -0.334570    29A     -0.306202

  @DF-RHF Final Energy:  -344.58224748295555

   => Energetics <=

    Nuclear Repulsion Energy =            348.0670350192804676
    One-Electron Energy =               -1157.1753246527382544
    Two-Electron Energy =                 464.5260421505022350
    DFT Exchange-Correlation Energy =       0.0000000000000000
    Empirical Dispersion Energy =           0.0000000000000000
    PCM Polarization Energy =               0.0000000000000000
    EFP Energy =                            0.0000000000000000
    Total Energy =                       -344.5822474829556086
    Molecular point group: c1
  Basis Set: 6-31G*
  Basis Set:

  -Total Gradient:
     Atom            X                  Y                   Z
    ------   -----------------  -----------------  -----------------
       1       -0.000000050184    -0.000003025849    -0.000001534522
       2        0.000027936149     0.000114151734     0.000013039321
       3        0.000088033282    -0.000062791706    -0.000024166603
       4       -0.000122302438    -0.000028934399     0.000002525549
       5       -0.000000653760     0.000005685647     0.000005032204
       6       -0.000096488343    -0.000030918309    -0.000007986407
       7       -0.000001385552     0.000001373176    -0.000006403179
       8        0.000019106592    -0.000014433635     0.001366152266
       9        0.000009820308    -0.000000846228     0.000006643109
      10        0.000047534221    -0.000154374796    -0.002730327023
      11       -0.000042230117    -0.000008827064     0.000005908872
      12        0.000143932166     0.000618829420     0.002556350637
      13       -0.000094642769    -0.000419663661    -0.001184515169
      14        0.000011727154    -0.000027548058     0.000002810157
      15       -0.000016838702    -0.000014156444    -0.000003161750
      16        0.000026501995     0.000025480171    -0.000000367461

  **** Optimization is complete! (in 5 steps) ****
    Final optimized geometry and variables:
    Molecular point group: c1

    Geometry (in Angstrom), charge = 0, multiplicity = 1:

    H           -3.298259765790     0.579655300558     0.056437807167
    C           -2.247727610634     0.352579062007     0.055234971546
    C           -1.812117202306    -0.967442473283     0.078844505742
    C           -1.311463968026     1.366546085504     0.030918420012
    H           -2.528443025226    -1.769552315670     0.098457720377
    C           -0.465228273147    -1.262855579872     0.073687707408
    H           -1.630778980897     2.393616699905     0.015905700964
    C            0.049804826894     1.084456533914     0.030152960073
    H           -0.114453381054    -2.277992779487     0.090686366363
    C            0.473583378884    -0.235075350346     0.046189598795
    H            0.756334183790     1.891994512162     0.018492923695
    O            1.769853032042    -0.615607142788     0.074027943952
    C            2.761682201725     0.286077176029    -0.328263208966
    H            2.533739380630     0.716056025040    -1.297864971882
    H            3.678496349138    -0.280824036695    -0.394343132123
    H            2.894389523547     1.083918735381     0.394937812265

  Mulliken Charges: (a.u.)
   Center  Symbol    Alpha    Beta     Spin     Total
       1     H     0.40112  0.40112  0.00000  0.19776
       2     C     3.11145  3.11145  0.00000 -0.22290
       3     C     3.09237  3.09237  0.00000 -0.18473
       4     C     3.09156  3.09156  0.00000 -0.18313
       5     H     0.39875  0.39875  0.00000  0.20251
       6     C     3.12504  3.12504  0.00000 -0.25008
       7     H     0.39954  0.39954  0.00000  0.20092
       8     C     3.14191  3.14191  0.00000 -0.28382
       9     H     0.39296  0.39296  0.00000  0.21407
      10     C     2.78441  2.78441  0.00000  0.43119
      11     H     0.39748  0.39748  0.00000  0.20503
      12     O     4.32673  4.32673  0.00000 -0.65346
      13     C     3.09147  3.09147  0.00000 -0.18293
      14     H     0.41910  0.41910  0.00000  0.16180
      15     H     0.40537  0.40537  0.00000  0.18926
      16     H     0.42075  0.42075  0.00000  0.15851

   Total alpha = 29.00000, Total beta = 29.00000, Total charge = -0.00000
