                              Psi4 1.0.54 Driver

  ==> Input File <==

--------------------------------------------------------------------------
set {
	reference rhf
	basis cc-pvtz
}

set_num_threads( 4 )
memory 2 gb

molecule MOL {
0 1

H	 3.889604	 0.356866	 -0.089510
N	 3.091268	 -0.241216	 -0.065538
C	 1.860978	 0.530248	 0.016256
H	 3.192566	 -0.835836	 0.730398
C	 0.644130	 -0.381765	 -0.031064
H	 1.835721	 1.204666	 -0.833114
H	 1.808789	 1.151975	 0.911067
C	 -0.678115	 0.376691	 0.025731
H	 0.693998	 -0.977147	 -0.936845
H	 0.693309	 -1.082142	 0.800523
C	 -1.134927	 0.897695	 -1.334078
H	 -0.583342	 1.213383	 0.714149
H	 -1.450293	 -0.269037	 0.437616
C	 -2.453819	 1.660811	 -1.272018
H	 -0.364628	 1.542671	 -1.747526
H	 -1.234089	 0.063108	 -2.022845
H	 -2.376883	 2.522690	 -0.617431
H	 -2.748779	 2.016411	 -2.252606
H	 -3.253062	 1.031501	 -0.894505

	symmetry c1
}
set optking {
	frozen_dihedral = ("
		12 8 5 9
	")
}

ee,wfn = optimize('scf', return_wfn=True)
oeprop( wfn, 'DIPOLE', 'QUADRUPOLE', 'MULLIKEN_CHARGES')
f=open( 'psi4out.xyz', 'w' )
f.write( "19  " )
f.write( str(ee) + "\n" )
f.write( MOL.save_string_xyz() )
f.close()
--------------------------------------------------------------------------

    Molecular point group: c1
  Charge       = 0
  Multiplicity = 1
  Basis Set: CC-PVTZ
  Basis Set:
  @DF-RHF Final Energy:  -251.44549940298418
    Total Energy =                       -251.4454994029842965
    Molecular point group: c1
  Basis Set: CC-PVTZ
  Basis Set:
  Basis Set: CC-PVTZ
  Basis Set:
  @DF-RHF Final Energy:  -251.44564550810728
    Total Energy =                       -251.4456455081073614
  Basis Set: CC-PVTZ
  Basis Set:
  Basis Set: CC-PVTZ
  Basis Set:
  @DF-RHF Final Energy:  -251.44566963792528
    Total Energy =                       -251.4456696379253344
  Basis Set: CC-PVTZ
  Basis Set:
  Charge       = 0
  Multiplicity = 1
  Basis Set: CC-PVTZ
  Basis Set:

    Orbital Energies (a.u.)
    -----------------------

    Doubly Occupied:

       1A    -15.526418     2A    -11.237778     3A    -11.211383
       4A    -11.210527     5A    -11.207857     6A    -11.205262
       7A     -1.178251     8A     -1.073267     9A     -0.997681
      10A     -0.899876    11A     -0.824433    12A     -0.781070
      13A     -0.662792    14A     -0.636547    15A     -0.622935
      16A     -0.591187    17A     -0.571072    18A     -0.548907
      19A     -0.526363    20A     -0.499855    21A     -0.488439
      22A     -0.464218    23A     -0.455614    24A     -0.447886
      25A     -0.384012

  @DF-RHF Final Energy:  -251.44567014553462

   => Energetics <=

    Nuclear Repulsion Energy =            248.7695647735499733
    One-Electron Energy =                -831.9232104481432089
    Two-Electron Energy =                 331.7079755290587286
    DFT Exchange-Correlation Energy =       0.0000000000000000
    Empirical Dispersion Energy =           0.0000000000000000
    PCM Polarization Energy =               0.0000000000000000
    EFP Energy =                            0.0000000000000000
    Total Energy =                       -251.4456701455345069
    Molecular point group: c1
  Basis Set: CC-PVTZ
  Basis Set:

  -Total Gradient:
     Atom            X                  Y                   Z
    ------   -----------------  -----------------  -----------------
       1        0.000012832598    -0.000007126606     0.000000213876
       2        0.000026242698    -0.000004165184    -0.000004648404
       3       -0.000015702859    -0.000021891937    -0.000008156497
       4        0.000004495211     0.000005441616    -0.000003003978
       5       -0.000914573987    -0.001684825254     0.000908258510
       6        0.000001531733    -0.000000817821     0.000004471179
       7       -0.000018996928     0.000014877025     0.000001124010
       8       -0.000613645625    -0.001128757582     0.001665244565
       9        0.000852930182     0.001621910160    -0.001017168695
      10       -0.000007102633     0.000024361115     0.000003965691
      11       -0.000001307038    -0.000053818852     0.000003828442
      12        0.000653960959     0.001205768785    -0.001547974124
      13        0.000004641236    -0.000002327485    -0.000020612814
      14        0.000021502767     0.000032020910     0.000022475808
      15       -0.000000871245    -0.000001802024    -0.000007264071
      16        0.000000726610    -0.000010687657     0.000000487952
      17       -0.000018804219     0.000002337653     0.000007485303
      18        0.000007686528     0.000010025358    -0.000001506871
      19        0.000004454011    -0.000000522221    -0.000007219883

  **** Optimization is complete! (in 4 steps) ****
    Final optimized geometry and variables:
    Molecular point group: c1

    Geometry (in Angstrom), charge = 0, multiplicity = 1:

    H            3.638562493698    -0.104278655173     0.345792101670
    N            2.840980982112    -0.703586347754     0.364004434747
    C            1.609955611254     0.063740493543     0.466821065014
    H            2.947935974425    -1.312628722220     1.148277209943
    C            0.395581187729    -0.856278003180     0.423317972372
    H            1.580355216289     0.751025045195    -0.370940873322
    H            1.562507891501     0.670612480981     1.372025700890
    C           -0.941850429150    -0.109669419526     0.455239987137
    H            0.465566161388    -1.459035400903    -0.475933269288
    H            0.452177503296    -1.539236215993     1.266605445930
    C           -1.397491331000     0.403958426570    -0.910678642693
    H           -0.869126193930     0.734768048589     1.136816206751
    H           -1.711917789609    -0.762560820134     0.853952860981
    C           -2.711102736742     1.176187713264    -0.847565073980
    H           -0.630230266459     1.040544404079    -1.340620250131
    H           -1.507127939719    -0.438629883005    -1.587457142437
    H           -2.623366773482     2.047440384021    -0.206790187590
    H           -3.013604768313     1.518547442471    -1.830613247987
    H           -3.510122063557     0.557201012382    -0.452810512032

  Mulliken Charges: (a.u.)
   Center  Symbol    Alpha    Beta     Spin     Total
       1     H     0.43015  0.43015  0.00000  0.13970
       2     N     3.68924  3.68924  0.00000 -0.37848
       3     C     3.02378  3.02378  0.00000 -0.04757
       4     H     0.43105  0.43105  0.00000  0.13789
       5     C     3.09089  3.09089  0.00000 -0.18177
       6     H     0.45686  0.45686  0.00000  0.08629
       7     H     0.46853  0.46853  0.00000  0.06294
       8     C     3.10123  3.10123  0.00000 -0.20246
       9     H     0.45046  0.45046  0.00000  0.09908
      10     H     0.45334  0.45334  0.00000  0.09332
      11     C     3.08165  3.08165  0.00000 -0.16330
      12     H     0.45738  0.45738  0.00000  0.08525
      13     H     0.44784  0.44784  0.00000  0.10432
      14     C     3.15016  3.15016  0.00000 -0.30032
      15     H     0.45478  0.45478  0.00000  0.09044
      16     H     0.45362  0.45362  0.00000  0.09277
      17     H     0.45553  0.45553  0.00000  0.08894
      18     H     0.44845  0.44845  0.00000  0.10309
      19     H     0.45505  0.45505  0.00000  0.08989

   Total alpha = 25.00000, Total beta = 25.00000, Total charge = -0.00000

*** Psi4 exiting successfully. Buy a developer a beer!
