  ==> Input File <==

--------------------------------------------------------------------------
set {
	reference rhf
	basis 6-31G*
}

set_num_threads( 1 )
memory 2 gb

molecule MOL {
0 1

H	 -3.261111	 -0.295142	 1.469456
C	 -3.306842	 -0.277400	 0.373456
C	 -2.660244	 0.921717	 -0.272021
O	 -3.838538	 -1.161155	 -0.216482
C	 -3.660668	 2.052885	 -0.547461
H	 -1.846880	 1.254635	 0.362260
H	 -2.231787	 0.585030	 -1.215272
C	 -4.222477	 2.693898	 0.724062
H	 -3.165355	 2.811964	 -1.145581
H	 -4.477621	 1.671845	 -1.158323
C	 -5.209056	 3.826866	 0.434475
H	 -3.398809	 3.074176	 1.324734
H	 -4.714121	 1.937256	 1.332600
C	 -5.756658	 4.476304	 1.708175
H	 -4.715873	 4.574193	 -0.181969
H	 -6.038285	 3.440517	 -0.156708
C	 -6.811994	 5.562280	 1.469444
H	 -4.931862	 4.897322	 2.281019
H	 -6.194791	 3.701035	 2.333242
C	 -6.288865	 6.811781	 0.759018
H	 -7.225218	 5.856235	 2.431101
H	 -7.638779	 5.142194	 0.900344
H	 -5.449962	 7.244516	 1.297767
H	 -5.957563	 6.596276	 -0.251314
H	 -7.063807	 7.569394	 0.692068

	symmetry c1
}
set optking {
	frozen_dihedral = ("
		6 3 5 8,
		3 5 8 12,
		12 8 11 14,
		8 11 14 18,
		20 17 14 18
	")
}

ee = energy('scf')
oeprop('DIPOLE', 'QUADRUPOLE', 'MULLIKEN_CHARGES')
f=open( 'psi4out.xyz', 'w' )
f.write( "25  " )
f.write( str(ee) + "\n" )
f.write( MOL.save_string_xyz() )
f.close()
--------------------------------------------------------------------------

    Molecular point group: c1

    Geometry (in Angstrom), charge = 0, multiplicity = 1:

       Center              X                  Y                   Z               Mass
    ------------   -----------------  -----------------  -----------------  -----------------
           H          1.385492318235    -3.064253043091     0.979889569686     1.007825032070
           C          1.339761318235    -3.046511043091    -0.116110430314    12.000000000000
           C          1.986359318235    -1.847394043091    -0.761587430314    12.000000000000
           O          0.808065318235    -3.930266043091    -0.706048430314    15.994914619560
           C          0.985935318235    -0.716226043091    -1.037027430314    12.000000000000
           H          2.799723318235    -1.514476043091    -0.127306430314     1.007825032070
           H          2.414816318235    -2.184081043091    -1.704838430314     1.007825032070
           C          0.424126318235    -0.075213043091     0.234495569686    12.000000000000
           H          1.481248318235     0.042852956909    -1.635147430314     1.007825032070
           H          0.168982318235    -1.097266043091    -1.647889430314     1.007825032070
           C         -0.562452681765     1.057754956909    -0.055091430314    12.000000000000
           H          1.247794318235     0.305064956909     0.835167569686     1.007825032070
           H         -0.067517681765    -0.831855043091     0.843033569686     1.007825032070
           C         -1.110054681765     1.707192956909     1.218608569686    12.000000000000
           H         -0.069269681765     1.805081956909    -0.671535430314     1.007825032070
           H         -1.391681681765     0.671405956909    -0.646274430314     1.007825032070
           C         -2.165390681765     2.793168956909     0.979877569686    12.000000000000
           H         -0.285258681765     2.128210956909     1.791452569686     1.007825032070
           H         -1.548187681765     0.931923956909     1.843675569686     1.007825032070
           C         -1.642261681765     4.042669956909     0.269451569686    12.000000000000
           H         -2.578614681765     3.087123956909     1.941534569686     1.007825032070
           H         -2.992175681765     2.373082956909     0.410777569686     1.007825032070
           H         -0.803358681765     4.475404956909     0.808200569686     1.007825032070
           H         -1.310959681765     3.827164956909    -0.740880430314     1.007825032070
           H         -2.417203681765     4.800282956909     0.202501569686     1.007825032070

  Charge       = 0
  Multiplicity = 1
  Basis Set: 6-31G*
  Basis Set:

    Orbital Energies (a.u.)
    -----------------------

    Doubly Occupied:

       1A    -20.562363     2A    -11.325570     3A    -11.234356
       4A    -11.233733     5A    -11.226070     6A    -11.220493
       7A    -11.218785     8A    -11.218152     9A    -11.211199
      10A     -1.402216    11A     -1.104011    12A     -1.069375
      13A     -1.013377    14A     -0.943419    15A     -0.877873
      16A     -0.826850    17A     -0.783036    18A     -0.772607
      19A     -0.683043    20A     -0.656043    21A     -0.632483
      22A     -0.621475    23A     -0.597635    24A     -0.590299
      25A     -0.581133    26A     -0.552465    27A     -0.538957
      28A     -0.521412    29A     -0.509614    30A     -0.496953
      31A     -0.490383    32A     -0.480282    33A     -0.465691
      34A     -0.459997    35A     -0.441074    36A     -0.407492

  @DF-RHF Final Energy:  -387.11987390148124

   => Energetics <=

    Nuclear Repulsion Energy =            439.1882572842640684
    One-Electron Energy =               -1394.6765473163341085
    Two-Electron Energy =                 568.3684161305866382
    DFT Exchange-Correlation Energy =       0.0000000000000000
    Empirical Dispersion Energy =           0.0000000000000000
    PCM Polarization Energy =               0.0000000000000000
    EFP Energy =                            0.0000000000000000
    Total Energy =                       -387.1198739014834018

  Mulliken Charges: (a.u.)
   Center  Symbol    Alpha    Beta     Spin     Total
       1     H     0.43077  0.43077  0.00000  0.13846
       2     C     2.83812  2.83812  0.00000  0.32377
       3     C     3.20367  3.20367  0.00000 -0.40735
       4     O     4.23692  4.23692  0.00000 -0.47385
       5     C     3.16117  3.16117  0.00000 -0.32233
       6     H     0.41475  0.41475  0.00000  0.17050
       7     H     0.39978  0.39978  0.00000  0.20044
       8     C     3.15718  3.15718  0.00000 -0.31436
       9     H     0.41400  0.41400  0.00000  0.17200
      10     H     0.40841  0.40841  0.00000  0.18318
      11     C     3.15431  3.15431  0.00000 -0.30862
      12     H     0.42197  0.42197  0.00000  0.15606
      13     H     0.42116  0.42116  0.00000  0.15768
      14     C     3.15310  3.15310  0.00000 -0.30620
      15     H     0.42045  0.42045  0.00000  0.15910
      16     H     0.42105  0.42105  0.00000  0.15790
      17     C     3.15280  3.15280  0.00000 -0.30559
      18     H     0.42414  0.42414  0.00000  0.15173
      19     H     0.42138  0.42138  0.00000  0.15724
      20     C     3.24143  3.24143  0.00000 -0.48286
      21     H     0.42024  0.42024  0.00000  0.15952
      22     H     0.42231  0.42231  0.00000  0.15539
      23     H     0.42233  0.42233  0.00000  0.15535
      24     H     0.42018  0.42018  0.00000  0.15965
      25     H     0.41841  0.41841  0.00000  0.16319

   Total alpha = 36.00000, Total beta = 36.00000, Total charge = -0.00000
