  ==> Input File <==

--------------------------------------------------------------------------
set {
	reference rhf
	basis 6-31G*
}

set_num_threads( 4 )
memory 2 gb

molecule MOL {
0 1

O	 3.225979	 0.970355	 -0.599647
C	 2.701189	 0.057885	 -0.047330
C	 1.245376	 -0.013843	 0.345420
O	 3.347903	 -1.046386	 0.304773
C	 0.455112	 1.231400	 -0.050772
H	 0.838542	 -0.913825	 -0.103701
H	 1.208210	 -0.175333	 1.419774
C	 -0.998893	 1.219485	 0.433193
H	 0.482531	 1.345121	 -1.130325
H	 0.957290	 2.103070	 0.354729
C	 -1.883438	 0.145884	 -0.207175
H	 -1.431207	 2.195402	 0.224832
H	 -1.019646	 1.105716	 1.516076
C	 -3.347647	 0.245583	 0.225435
H	 -1.822183	 0.231698	 -1.291012
H	 -1.510341	 -0.844814	 0.042401
C	 -4.239992	 -0.825570	 -0.404234
H	 -3.732888	 1.230466	 -0.033079
H	 -3.408585	 0.170602	 1.310038
C	 -5.727212	 -0.480459	 -0.335130
H	 -3.951126	 -0.969308	 -1.443242
H	 -4.067313	 -1.777037	 0.094437
H	 -6.333443	 -1.258253	 -0.789144
H	 -5.938444	 0.449458	 -0.855544
H	 -6.055277	 -0.363913	 0.693979
C	 4.728119	 -1.109107	 -0.004993
H	 4.882018	 -1.033965	 -1.071845
H	 5.068212	 -2.067527	 0.355250
H	 5.265056	 -0.311663	 0.488280

	symmetry c1
}
set optking {
	frozen_dihedral = ("
		21 17 14 11
	")
}

ee = optimize('scf')
oeprop('DIPOLE', 'QUADRUPOLE', 'MULLIKEN_CHARGES')
f=open( 'psi4out.xyz', 'w' )
f.write( "29  " )
f.write( str(ee) + "\n" )
f.write( MOL.save_string_xyz() )
f.close()
--------------------------------------------------------------------------

    Molecular point group: c1
  Charge       = 0
  Multiplicity = 1
  Basis Set: 6-31G*
  Basis Set:
  @DF-RHF Final Energy:  -501.04293718835970
    Total Energy =                       -501.0429371883593603
    Molecular point group: c1
  Basis Set: 6-31G*
  Basis Set:
  Basis Set: 6-31G*
  Basis Set:
  @DF-RHF Final Energy:  -501.04302934483781
    Total Energy =                       -501.0430293448370094
  Basis Set: 6-31G*
  Basis Set:
  Basis Set: 6-31G*
  Basis Set:
  @DF-RHF Final Energy:  -501.04308013372508
    Total Energy =                       -501.0430801337248568
  Basis Set: 6-31G*
  Basis Set:
  Charge       = 0
  Multiplicity = 1
  Basis Set: 6-31G*
  Basis Set:

    Orbital Energies (a.u.)
    -----------------------

    Doubly Occupied:

       1A    -20.603361     2A    -20.545183     3A    -11.371996
       4A    -11.280656     5A    -11.234720     6A    -11.219107
       7A    -11.217625     8A    -11.216124     9A    -11.215756
      10A    -11.214398    11A    -11.209290    12A     -1.469056
      13A     -1.362499    14A     -1.097969    15A     -1.066460
      16A     -1.019418    17A     -0.977276    18A     -0.928617
      19A     -0.861704    20A     -0.799618    21A     -0.790659
      22A     -0.763823    23A     -0.700699    24A     -0.682291
      25A     -0.672176    26A     -0.648643    27A     -0.629977
      28A     -0.603983    29A     -0.595322    30A     -0.581010
      31A     -0.567003    32A     -0.550162    33A     -0.531092
      34A     -0.529493    35A     -0.516240    36A     -0.514179
      37A     -0.495152    38A     -0.478256    39A     -0.470015
      40A     -0.462259    41A     -0.457595    42A     -0.455771
      43A     -0.441061    44A     -0.435408

  @DF-RHF Final Energy:  -501.04308096750037

   => Energetics <=

    Nuclear Repulsion Energy =            610.1792746288751914
    One-Electron Energy =               -1891.4785100405954381
    Two-Electron Energy =                 780.2561544442199875
    DFT Exchange-Correlation Energy =       0.0000000000000000
    Empirical Dispersion Energy =           0.0000000000000000
    PCM Polarization Energy =               0.0000000000000000
    EFP Energy =                            0.0000000000000000
    Total Energy =                       -501.0430809675002592
    Molecular point group: c1
  Basis Set: 6-31G*
  Basis Set:

  -Total Gradient:
     Atom            X                  Y                   Z
    ------   -----------------  -----------------  -----------------
       1        0.000030372368     0.000061862913     0.000141910425
       2       -0.000091262364    -0.000174961634    -0.000386294088
       3        0.000014652396     0.000054671252     0.000113018725
       4        0.000030912314     0.000048073755     0.000109838584
       5        0.000011974555     0.000004289616     0.000048229894
       6       -0.000004101008    -0.000007754384    -0.000013965166
       7       -0.000028657846    -0.000000708284     0.000007531174
       8        0.000034105152    -0.000001771014     0.000043968726
       9       -0.000008455370     0.000005411954     0.000010904161
      10        0.000013308106    -0.000000023671     0.000005893277
      11       -0.000449766617     0.001484233768    -0.001950527622
      12        0.000012321046    -0.000011840817    -0.000030161523
      13       -0.000010024694     0.000046871404     0.000011685957
      14        0.001160211295    -0.002556307055     0.002919057368
      15       -0.000049839220    -0.000012325609    -0.000022854929
      16        0.000029194934    -0.000001561391    -0.000000228870
      17       -0.002841941934     0.003380585736    -0.001986752974
      18        0.000060991706     0.000000264041    -0.000015159867
      19       -0.000021254076     0.000033320388     0.000002186097
      20       -0.000043182921    -0.000035695694     0.000017147987
      21        0.002129233988    -0.002329178427     0.000968712117
      22       -0.000008594341     0.000019157764    -0.000019561745
      23       -0.000005954963     0.000008224591    -0.000016568814
      24        0.000040246469     0.000000555805     0.000024824391
      25       -0.000006234902    -0.000017047693     0.000011312446
      26        0.000000444796     0.000000142285     0.000002801382
      27       -0.000003959761     0.000000907665     0.000000991839
      28        0.000000881229     0.000001131119     0.000002203573
      29        0.000004379665    -0.000000528382    -0.000000142526

  **** Optimization is complete! (in 4 steps) ****
    Final optimized geometry and variables:
    Molecular point group: c1

    Geometry (in Angstrom), charge = 0, multiplicity = 1:

    O            3.234236552559     0.950576176626    -0.544801578770
    C            2.702422617248     0.031865744250    -0.009809064099
    C            1.244707105635    -0.038521158399     0.376019442426
    O            3.342516987478    -1.080367153825     0.329078240831
    C            0.462362461462     1.216827855576    -0.003627745418
    H            0.835012347985    -0.929170246923    -0.088836561012
    H            1.202328529458    -0.216725961471     1.447535056709
    C           -0.993649119578     1.204214260244     0.474131768450
    H            0.494790406511     1.347392598647    -1.081132768255
    H            0.967125711829     2.079510338736     0.417584465850
    C           -1.879347078360     0.142228572723    -0.183569544788
    H           -1.421686370228     2.184286049352     0.276298644416
    H           -1.019340356528     1.076950783955     1.555362791080
    C           -3.346171243414     0.244915223684     0.239638839467
    H           -1.815114224016     0.240980694186    -1.265790169855
    H           -1.510018918912    -0.853088334988     0.054877226863
    C           -4.232871779748    -0.844150815226    -0.373898918553
    H           -3.723185473127     1.222954055257    -0.055703475056
    H           -3.423501522787     0.206880700405     1.324428061735
    C           -5.724973476314    -0.530221268536    -0.288607508772
    H           -3.942054905340    -1.011408532179    -1.408714455164
    H           -4.035958847471    -1.786314068574     0.134345565512
    H           -6.322165450531    -1.337127332264    -0.701899700840
    H           -5.966305789596     0.375872833986    -0.836869824891
    H           -6.035305833511    -0.383871536978     0.742348498659
    C            4.723995384096    -1.144637600756     0.025317282233
    H            4.883621401591    -1.054424605103    -1.039528326037
    H            5.058047734924    -2.109777890970     0.373034599426
    H            5.261907286898    -0.356969476554     0.533025759927

  Mulliken Charges: (a.u.)
   Center  Symbol    Alpha    Beta     Spin     Total
       1     O     4.28597  4.28597  0.00000 -0.57194
       2     C     2.60483  2.60483  0.00000  0.79033
       3     C     3.20975  3.20975  0.00000 -0.41949
       4     O     4.30746  4.30746  0.00000 -0.61492
       5     C     3.15376  3.15376  0.00000 -0.30753
       6     H     0.39877  0.39877  0.00000  0.20245
       7     H     0.40122  0.40122  0.00000  0.19756
       8     C     3.15680  3.15680  0.00000 -0.31360
       9     H     0.41312  0.41312  0.00000  0.17375
      10     H     0.40872  0.40872  0.00000  0.18256
      11     C     3.15576  3.15576  0.00000 -0.31152
      12     H     0.41822  0.41822  0.00000  0.16356
      13     H     0.42380  0.42380  0.00000  0.15239
      14     C     3.15065  3.15065  0.00000 -0.30130
      15     H     0.42223  0.42223  0.00000  0.15554
      16     H     0.42371  0.42371  0.00000  0.15258
      17     C     3.15241  3.15241  0.00000 -0.30483
      18     H     0.42371  0.42371  0.00000  0.15259
      19     H     0.42271  0.42271  0.00000  0.15459
      20     C     3.23927  3.23927  0.00000 -0.47855
      21     H     0.42262  0.42262  0.00000  0.15477
      22     H     0.42303  0.42303  0.00000  0.15394
      23     H     0.41938  0.41938  0.00000  0.16125
      24     H     0.42132  0.42132  0.00000  0.15735
      25     H     0.42163  0.42163  0.00000  0.15673
      26     C     3.09240  3.09240  0.00000 -0.18481
      27     H     0.40910  0.40910  0.00000  0.18180
      28     H     0.40852  0.40852  0.00000  0.18297
      29     H     0.40911  0.40911  0.00000  0.18177

   Total alpha = 44.00000, Total beta = 44.00000, Total charge =  0.00000
