  ==> Input File <==

--------------------------------------------------------------------------
set {
	reference rhf
	basis 6-31G*
}

set_num_threads( 4 )
memory 2 gb

molecule MOL {
0 1

H	 -3.407059	 -1.043082	 0.000000
O	 -3.119761	 -0.140267	 0.000000
C	 -1.777559	 -0.059267	 0.000000
C	 -1.049767	 0.189551	 -1.159918
C	 -1.127379	 -0.234681	 1.215139
H	 -1.561470	 0.324316	 -2.097633
C	 0.326087	 0.261986	 -1.099935
H	 -1.710753	 -0.425452	 2.095793
C	 0.249152	 -0.159358	 1.259002
H	 0.900196	 0.453331	 -1.987001
C	 0.992014	 0.088603	 0.109090
H	 0.753491	 -0.295219	 2.200409
C	 2.464783	 0.166448	 0.171556
O	 3.174186	 0.374427	 -0.763457
H	 2.893326	 0.016284	 1.168034

	symmetry c1
}
set optking {
	frozen_dihedral = ("
		5 3 2 1
	")
}

ee = optimize('scf')
oeprop('DIPOLE', 'QUADRUPOLE', 'MULLIKEN_CHARGES')
f=open( 'psi4out.xyz', 'w' )
f.write( "15  " )
f.write( str(ee) + "\n" )
f.write( MOL.save_string_xyz() )
f.close()
--------------------------------------------------------------------------

    Molecular point group: c1
  Charge       = 0
  Multiplicity = 1
  Basis Set: 6-31G*
  Basis Set:
  @DF-RHF Final Energy:  -418.28307373791392
    Total Energy =                       -418.2830737379144921
    Molecular point group: c1
  Basis Set: 6-31G*
  Basis Set:
  Basis Set: 6-31G*
  Basis Set:
  @DF-RHF Final Energy:  -418.28422121204096
    Total Energy =                       -418.2842212120410750
  Basis Set: 6-31G*
  Basis Set:
  Basis Set: 6-31G*
  Basis Set:
  @DF-RHF Final Energy:  -418.28411759619331
    Total Energy =                       -418.2841175961928002
  Basis Set: 6-31G*
  Basis Set:
  Basis Set: 6-31G*
  Basis Set:
  @DF-RHF Final Energy:  -418.28414543075246
    Total Energy =                       -418.2841454307521190
  Basis Set: 6-31G*
  Basis Set:
  Basis Set: 6-31G*
  Basis Set:
  @DF-RHF Final Energy:  -418.28431213563209
    Total Energy =                       -418.2843121356320353
  Basis Set: 6-31G*
  Basis Set:
  Charge       = 0
  Multiplicity = 1
  Basis Set: 6-31G*
  Basis Set:

    Orbital Energies (a.u.)
    -----------------------

    Doubly Occupied:

       1A    -20.593531     2A    -20.560915     3A    -11.331472
       4A    -11.312980     5A    -11.260448     6A    -11.253136
       7A    -11.245006     8A    -11.243956     9A    -11.241287
      10A     -1.410725    11A     -1.401916    12A     -1.170641
      13A     -1.041388    14A     -1.036655    15A     -0.888047
      16A     -0.856477    17A     -0.797678    18A     -0.750403
      19A     -0.703743    20A     -0.674432    21A     -0.645169
      22A     -0.631121    23A     -0.617362    24A     -0.606940
      25A     -0.559680    26A     -0.552665    27A     -0.536232
      28A     -0.496308    29A     -0.482298    30A     -0.422067
      31A     -0.354898    32A     -0.340923

  @DF-RHF Final Energy:  -418.28431325459530

   => Energetics <=

    Nuclear Repulsion Energy =            400.7613257701228804
    One-Electron Energy =               -1364.0502774115811917
    Two-Electron Energy =                 545.0046383868628936
    DFT Exchange-Correlation Energy =       0.0000000000000000
    Empirical Dispersion Energy =           0.0000000000000000
    PCM Polarization Energy =               0.0000000000000000
    EFP Energy =                            0.0000000000000000
    Total Energy =                       -418.2843132545954177
    Molecular point group: c1
  Basis Set: 6-31G*
  Basis Set:

  -Total Gradient:
     Atom            X                  Y                   Z
    ------   -----------------  -----------------  -----------------
       1        0.000016719111    -0.000032553596    -0.001075237474
       2       -0.000113385935     0.000378035001     0.001386877931
       3        0.000113319925    -0.001028514055    -0.000678405632
       4       -0.000211685521    -0.000046415939     0.000100951961
       5        0.000151113369     0.000768234630     0.000231488716
       6        0.000002500431     0.000005684236    -0.000001213472
       7        0.000179707767    -0.000065559866     0.000118404976
       8        0.000003049133     0.000011390401    -0.000014311121
       9       -0.000133940169    -0.000093881166     0.000082245748
      10       -0.000018930403     0.000010242018    -0.000003653763
      11       -0.000005078548     0.000068876880    -0.000177949532
      12        0.000025264354     0.000014272878    -0.000001783123
      13        0.000015132497     0.000037933098     0.000045696168
      14       -0.000016510294    -0.000015030340    -0.000011593051
      15       -0.000007275723    -0.000012714179    -0.000001518332

  **** Optimization is complete! (in 6 steps) ****
    Final optimized geometry and variables:
    Molecular point group: c1

    Geometry (in Angstrom), charge = 0, multiplicity = 1:

    H           -3.440081425241    -1.063591381097     0.003537718913
    O           -3.131103121905    -0.166966156715    -0.003148780942
    C           -1.767487503220    -0.128587658418     0.052832133389
    C           -1.049882696054     0.129759418467    -1.108171139183
    C           -1.116192568814    -0.291209128823     1.264531294892
    H           -1.583361910244     0.266792591804    -2.030250887249
    C            0.325989860760     0.213134157280    -1.055429250098
    H           -1.692214743432    -0.468419617369     2.154016121199
    C            0.264576626540    -0.210260459768     1.308229532246
    H            0.898093868651     0.411552982627    -1.942138419263
    C            0.994107875843     0.040253401602     0.154192055742
    H            0.774603763434    -0.336850593478     2.247758450102
    C            2.470540656360     0.127053910936     0.214531411384
    O            3.174727233250     0.332844918805    -0.723638338680
    H            2.902121625961    -0.014991182137     1.210522467422

  Mulliken Charges: (a.u.)
   Center  Symbol    Alpha    Beta     Spin     Total
       1     H     0.26837  0.26837  0.00000  0.46327
       2     O     4.38489  4.38489  0.00000 -0.76978
       3     C     2.80969  2.80969  0.00000  0.38062
       4     C     3.12037  3.12037  0.00000 -0.24075
       5     C     3.12446  3.12446  0.00000 -0.24891
       6     H     0.38744  0.38744  0.00000  0.22513
       7     C     3.08500  3.08500  0.00000 -0.17000
       8     H     0.39034  0.39034  0.00000  0.21931
       9     C     3.09878  3.09878  0.00000 -0.19756
      10     H     0.37496  0.37496  0.00000  0.25009
      11     C     3.06029  3.06029  0.00000 -0.12058
      12     H     0.39006  0.39006  0.00000  0.21987
      13     C     2.83094  2.83094  0.00000  0.33813
      14     O     4.25082  4.25082  0.00000 -0.50163
      15     H     0.42360  0.42360  0.00000  0.15280

   Total alpha = 32.00000, Total beta = 32.00000, Total charge = -0.00000
