                              Psi4 1.0.54 Driver

  ==> Input File <==

--------------------------------------------------------------------------
set {
	reference rhf
	basis cc-pvtz
}

set_num_threads( 4 )
memory 2 gb

molecule MOL {
0 1

H	 -2.149496	 -2.244167	 0.000000
O	 -2.454378	 -1.354528	 0.000000
C	 -1.430628	 -0.482077	 0.000000
C	 -0.332220	 -0.785175	 0.791393
C	 -1.442629	 0.676985	 -0.746761
H	 -0.342214	 -1.691004	 1.364457
C	 0.744108	 0.071464	 0.830107
H	 -2.285812	 0.923764	 -1.363277
C	 -0.348744	 1.530519	 -0.696509
H	 1.589336	 -0.170266	 1.444512
C	 0.749598	 1.239311	 0.087254
C	 -0.369762	 2.741044	 -1.481044
H	 1.585859	 1.907776	 0.115487
N	 -0.389514	 3.686769	 -2.095778

	symmetry c1
}
set optking {
	frozen_dihedral = ("
		5 3 2 1
	")
}

ee,wfn = optimize('scf', return_wfn=True)
oeprop( wfn, 'DIPOLE', 'QUADRUPOLE', 'MULLIKEN_CHARGES')
f=open( 'psi4out.xyz', 'w' )
f.write( "14  " )
f.write( str(ee) + "\n" )
f.write( MOL.save_string_xyz() )
f.close()
--------------------------------------------------------------------------

    Molecular point group: c1
  Charge       = 0
  Multiplicity = 1
  Basis Set: CC-PVTZ
  Basis Set:
  @DF-RHF Final Energy:  -397.42898780073978
    Total Energy =                       -397.4289878007401740
    Molecular point group: c1
  Basis Set: CC-PVTZ
  Basis Set:
  Basis Set: CC-PVTZ
  Basis Set:
  @DF-RHF Final Energy:  -397.43067251540646
    Total Energy =                       -397.4306725154065134
  Basis Set: CC-PVTZ
  Basis Set:
  Basis Set: CC-PVTZ
  Basis Set:
  @DF-RHF Final Energy:  -397.43080161921625
    Total Energy =                       -397.4308016192160267
  Basis Set: CC-PVTZ
  Basis Set:
  Basis Set: CC-PVTZ
  Basis Set:
  @DF-RHF Final Energy:  -397.43082159812951
    Total Energy =                       -397.4308215981293415
  Basis Set: CC-PVTZ
  Basis Set:
  Basis Set: CC-PVTZ
  Basis Set:
  @DF-RHF Final Energy:  -397.43082582839662
    Total Energy =                       -397.4308258283963369
  Basis Set: CC-PVTZ
  Basis Set:
  Charge       = 0
  Multiplicity = 1
  Basis Set: CC-PVTZ
  Basis Set:

    Orbital Energies (a.u.)
    -----------------------

    Doubly Occupied:

       1A    -20.600823     2A    -15.563853     3A    -11.321330
       4A    -11.291325     5A    -11.267239     6A    -11.261671
       7A    -11.257984     8A    -11.257948     9A    -11.257166
      10A     -1.431741    11A     -1.236859    12A     -1.187036
      13A     -1.066401    14A     -1.043363    15A     -0.900144
      16A     -0.862103    17A     -0.795402    18A     -0.716465
      19A     -0.694564    20A     -0.682014    21A     -0.636629
      22A     -0.624249    23A     -0.580126    24A     -0.567074
      25A     -0.550890    26A     -0.546888    27A     -0.519614
      28A     -0.481273    29A     -0.477668    30A     -0.367117
      31A     -0.347692

  @DF-RHF Final Energy:  -397.43082618965121

   => Energetics <=

    Nuclear Repulsion Energy =            380.2576711463166816
    One-Electron Energy =               -1292.5876882765121536
    Two-Electron Energy =                 514.8991909405439173
    DFT Exchange-Correlation Energy =       0.0000000000000000
    Empirical Dispersion Energy =           0.0000000000000000
    PCM Polarization Energy =               0.0000000000000000
    EFP Energy =                            0.0000000000000000
    Total Energy =                       -397.4308261896516115
    Molecular point group: c1
  Basis Set: CC-PVTZ
  Basis Set:

  -Total Gradient:
     Atom            X                  Y                   Z
    ------   -----------------  -----------------  -----------------
       1        0.000071953090     0.000070633952    -0.002498492720
       2        0.000252991437    -0.000516271888     0.002470586509
       3       -0.001078746577     0.001320793376     0.001399247291
       4       -0.000001026492    -0.000030679623     0.000019033530
       5        0.000776145962    -0.000849207988    -0.001395827807
       6        0.000003576158     0.000001665480    -0.000005390804
       7       -0.000003588034     0.000001478277     0.000031471901
       8       -0.000003898551    -0.000010966303    -0.000000142180
       9       -0.000030739163     0.000024219142     0.000025421856
      10        0.000008012532     0.000007471196    -0.000005326362
      11       -0.000011712785    -0.000010629626    -0.000044777246
      12        0.000034630758     0.000008668387     0.000016695805
      13        0.000005991525    -0.000006679934     0.000003099202
      14       -0.000023589866    -0.000010494449    -0.000015598973

  **** Optimization is complete! (in 6 steps) ****
    Final optimized geometry and variables:
    Molecular point group: c1

    Geometry (in Angstrom), charge = 0, multiplicity = 1:

    H           -1.599539398496    -2.960528318678     0.301685967262
    O           -1.854957686367    -2.055371783778     0.318033111736
    C           -0.774446457130    -1.242792339540     0.368330194502
    C            0.324700889215    -1.532736205015     1.156706631423
    C           -0.798311866934    -0.087587865819    -0.387116126463
    H            0.332550683691    -2.428873711055     1.748286722230
    C            1.400193097974    -0.666334516978     1.189135608150
    H           -1.650393386500     0.126711310267    -0.999648015421
    C            0.279821738858     0.778517564096    -0.334536796284
    H            2.249158758093    -0.898794793380     1.801863394948
    C            1.387494255287     0.496856010000     0.448592330796
    C            0.251752496029     1.988288971925    -1.120297414649
    H            2.215921992384     1.175422176782     0.473957806150
    N            0.232493989171     2.934358284225    -1.734537621035

  Mulliken Charges: (a.u.)
   Center  Symbol    Alpha    Beta     Spin     Total
       1     H     0.38363  0.38363  0.00000  0.23274
       2     O     4.17701  4.17701  0.00000 -0.35402
       3     C     2.85304  2.85304  0.00000  0.29392
       4     C     3.12237  3.12237  0.00000 -0.24473
       5     C     3.12130  3.12130  0.00000 -0.24260
       6     H     0.42174  0.42174  0.00000  0.15651
       7     C     3.05840  3.05840  0.00000 -0.11680
       8     H     0.40781  0.40781  0.00000  0.18438
       9     C     2.92439  2.92439  0.00000  0.15123
      10     H     0.41660  0.41660  0.00000  0.16681
      11     C     3.10113  3.10113  0.00000 -0.20226
      12     C     3.02407  3.02407  0.00000 -0.04814
      13     H     0.41413  0.41413  0.00000  0.17173
      14     N     3.57438  3.57438  0.00000 -0.14875

   Total alpha = 31.00000, Total beta = 31.00000, Total charge = -0.00000

*** Psi4 exiting successfully. Buy a developer a beer!
