  ==> Input File <==

--------------------------------------------------------------------------
set {
	reference rhf
	basis 6-31G*
}

set_num_threads( 4 )
memory 2 gb

molecule MOL {
0 1

H	 2.078046	 2.006865	 -0.324716
O	 1.149570	 1.957350	 -0.148651
C	 0.702312	 0.627605	 -0.264544
C	 -0.714990	 0.596302	 0.266387
H	 1.325058	 -0.040212	 0.324578
H	 0.723440	 0.298025	 -1.301103
O	 -1.405996	 -0.526611	 -0.195820
H	 -1.257453	 1.468809	 -0.075599
H	 -0.688972	 0.618407	 1.353696
H	 -0.890587	 -1.292708	 0.022039

	symmetry c1
}
set optking {
	frozen_dihedral = ("
		5 3 4 7
	")
}

ee = optimize('scf')
oeprop('DIPOLE', 'QUADRUPOLE', 'MULLIKEN_CHARGES')
f=open( 'psi4out.xyz', 'w' )
f.write( "10  " )
f.write( str(ee) + "\n" )
f.write( MOL.save_string_xyz() )
f.close()
--------------------------------------------------------------------------

    Molecular point group: c1
  Charge       = 0
  Multiplicity = 1
  Basis Set: 6-31G*
  Basis Set:
  @DF-RHF Final Energy:  -228.91861328642960
    Total Energy =                       -228.9186132864295757
    Molecular point group: c1
  Basis Set: 6-31G*
  Basis Set:
  Basis Set: 6-31G*
  Basis Set:
  @DF-RHF Final Energy:  -228.91971102914889
    Total Energy =                       -228.9197110291488855
  Basis Set: 6-31G*
  Basis Set:
  Basis Set: 6-31G*
  Basis Set:
  @DF-RHF Final Energy:  -228.91993074155633
    Total Energy =                       -228.9199307415563567
  Basis Set: 6-31G*
  Basis Set:
  Basis Set: 6-31G*
  Basis Set:
  @DF-RHF Final Energy:  -228.92001314588822
    Total Energy =                       -228.9200131458882197
  Basis Set: 6-31G*
  Basis Set:
  Basis Set: 6-31G*
  Basis Set:
  @DF-RHF Final Energy:  -228.92004225275124
    Total Energy =                       -228.9200422527513012
  Basis Set: 6-31G*
  Basis Set:
  Charge       = 0
  Multiplicity = 1
  Basis Set: 6-31G*
  Basis Set:

    Orbital Energies (a.u.)
    -----------------------

    Doubly Occupied:

       1A    -20.560815     2A    -20.559868     3A    -11.271937
       4A    -11.268409     5A     -1.373422     6A     -1.360155
       7A     -0.997139     8A     -0.845239     9A     -0.714819
      10A     -0.698223    11A     -0.632057    12A     -0.608648
      13A     -0.578928    14A     -0.524370    15A     -0.489622
      16A     -0.443901    17A     -0.439649

  @DF-RHF Final Energy:  -228.92004279655038

   => Energetics <=

    Nuclear Repulsion Energy =            131.2236233813612785
    One-Electron Energy =                -573.5529358066604573
    Two-Electron Energy =                 213.4092696287488025
    DFT Exchange-Correlation Energy =       0.0000000000000000
    Empirical Dispersion Energy =           0.0000000000000000
    PCM Polarization Energy =               0.0000000000000000
    EFP Energy =                            0.0000000000000000
    Total Energy =                       -228.9200427965503764
    Molecular point group: c1
  Basis Set: 6-31G*
  Basis Set:

  -Total Gradient:
     Atom            X                  Y                   Z
    ------   -----------------  -----------------  -----------------
       1        0.000001780797     0.000007752609     0.000001135295
       2        0.000002075008     0.000031110840     0.000006873725
       3       -0.001443341519    -0.003343037534    -0.004517667063
       4        0.001642850459    -0.001793429455     0.004253099879
       5        0.000882628855     0.003179896275     0.002901812948
       6       -0.000027467261    -0.000013820778     0.000006557113
       7       -0.001079841306     0.001920002942    -0.002640248933
       8        0.000000276161     0.000012716643     0.000004372576
       9        0.000025168171     0.000008455821    -0.000007013043
      10       -0.000004129364    -0.000009647365    -0.000008922495

  **** Optimization is complete! (in 6 steps) ****
    Final optimized geometry and variables:
    Molecular point group: c1

    Geometry (in Angstrom), charge = 0, multiplicity = 1:

    H            2.094594300024     1.406214420430    -0.257630320175
    O            1.192038691869     1.319081951995     0.013155875196
    C            0.761161346825    -0.004067522172    -0.179326713502
    C           -0.665735048187    -0.085710977220     0.341291714529
    H            1.409837486449    -0.682648993827     0.373755123085
    H            0.770565457555    -0.280700572057    -1.229111860984
    O           -1.347292285081    -1.199759936442    -0.171630765662
    H           -1.199443752810     0.787540283950    -0.006571343764
    H           -0.678295635831    -0.070357816964     1.427286541413
    H           -1.069495256167    -1.984797086465     0.278893854540

  Mulliken Charges: (a.u.)
   Center  Symbol    Alpha    Beta     Spin     Total
       1     H     0.27871  0.27871  0.00000  0.44258
       2     O     4.37255  4.37255  0.00000 -0.74510
       3     C     3.00813  3.00813  0.00000 -0.01626
       4     C     3.00465  3.00465  0.00000 -0.00929
       5     H     0.43539  0.43539  0.00000  0.12922
       6     H     0.42000  0.42000  0.00000  0.16001
       7     O     4.37026  4.37026  0.00000 -0.74052
       8     H     0.40461  0.40461  0.00000  0.19079
       9     H     0.42387  0.42387  0.00000  0.15226
      10     H     0.28184  0.28184  0.00000  0.43632

   Total alpha = 17.00000, Total beta = 17.00000, Total charge =  0.00000
