  ==> Input File <==

--------------------------------------------------------------------------
set {
	reference rhf
	basis 6-31G*
}

set_num_threads( 1 )
memory 2 gb

molecule MOL {
0 1

H	 3.505974	 -1.194106	 -0.777071
O	 2.690500	 -1.319747	 -0.301706
C	 1.941264	 -0.230543	 -0.471107
C	 0.624473	 -0.343591	 0.253101
O	 2.307760	 0.692881	 -1.122247
C	 -0.265902	 0.883932	 0.072916
H	 0.145381	 -1.250801	 -0.100189
H	 0.848468	 -0.515534	 1.302870
C	 -1.728698	 0.646073	 0.462102
H	 -0.209144	 1.219470	 -0.958188
H	 0.135059	 1.692851	 0.673903
C	 -2.482460	 -0.343073	 -0.431425
H	 -2.245265	 1.602650	 0.432430
H	 -1.779332	 0.308348	 1.496285
C	 -3.960546	 -0.461025	 -0.060175
H	 -2.395034	 -0.026811	 -1.468912
H	 -2.024850	 -1.327147	 -0.371646
H	 -4.472726	 -1.168004	 -0.705284
H	 -4.465146	 0.496508	 -0.151489
H	 -4.081218	 -0.800940	 0.964585

	symmetry c1
}
set optking {
	frozen_dihedral = ("
		16 12 9 6,
		12 9 6 10,
		5 3 4 7,
		1 2 3 5
	")
}

ee = energy('scf')
oeprop('DIPOLE', 'QUADRUPOLE', 'MULLIKEN_CHARGES')
f=open( 'psi4out.xyz', 'w' )
f.write( "20  " )
f.write( str(ee) + "\n" )
f.write( MOL.save_string_xyz() )
f.close()
--------------------------------------------------------------------------

    Molecular point group: c1

    Geometry (in Angstrom), charge = 0, multiplicity = 1:

       Center              X                  Y                   Z               Mass
    ------------   -----------------  -----------------  -----------------  -----------------
           H          3.572192070940    -1.115055751346    -0.565748281473     1.007825032070
           O          2.756718070940    -1.240696751346    -0.090383281473    15.994914619560
           C          2.007482070940    -0.151492751346    -0.259784281473    12.000000000000
           C          0.690691070940    -0.264540751346     0.464423718527    12.000000000000
           O          2.373978070940     0.771931248654    -0.910924281473    15.994914619560
           C         -0.199683929060     0.962982248654     0.284238718527    12.000000000000
           H          0.211599070940    -1.171750751346     0.111133718527     1.007825032070
           H          0.914686070940    -0.436483751346     1.514192718527     1.007825032070
           C         -1.662479929060     0.725123248654     0.673424718527    12.000000000000
           H         -0.142925929060     1.298520248654    -0.746865281473     1.007825032070
           H          0.201277070940     1.771901248654     0.885225718527     1.007825032070
           C         -2.416241929060    -0.264022751346    -0.220102281473    12.000000000000
           H         -2.179046929060     1.681700248654     0.643752718527     1.007825032070
           H         -1.713113929060     0.387398248654     1.707607718527     1.007825032070
           C         -3.894327929060    -0.381974751346     0.151147718527    12.000000000000
           H         -2.328815929060     0.052239248654    -1.257589281473     1.007825032070
           H         -1.958631929060    -1.248096751346    -0.160323281473     1.007825032070
           H         -4.406507929060    -1.088953751346    -0.493961281473     1.007825032070
           H         -4.398927929060     0.575558248654     0.059833718527     1.007825032070
           H         -4.014999929060    -0.721889751346     1.175907718527     1.007825032070

  Charge       = 0
  Multiplicity = 1
  Basis Set: 6-31G*
  Basis Set:

    Orbital Energies (a.u.)
    -----------------------

    Doubly Occupied:

       1A    -20.612514     2A    -20.551589     3A    -11.381148
       4A    -11.239702     5A    -11.222232     6A    -11.220502
       7A    -11.219913     8A    -11.212301     9A     -1.474575
      10A     -1.365674    11A     -1.096098    12A     -1.040634
      13A     -0.961101    14A     -0.869027    15A     -0.816018
      16A     -0.776384    17A     -0.699550    18A     -0.690778
      19A     -0.663094    20A     -0.635539    21A     -0.604136
      22A     -0.593924    23A     -0.575906    24A     -0.557317
      25A     -0.535041    26A     -0.514507    27A     -0.494855
      28A     -0.479252    29A     -0.470782    30A     -0.466590
      31A     -0.457098    32A     -0.443776

  @DF-RHF Final Energy:  -383.94751291718370

   => Energetics <=

    Nuclear Repulsion Energy =            377.0628318253151861
    One-Electron Energy =               -1270.1375919404042634
    Two-Electron Energy =                 509.1272471979058309
    DFT Exchange-Correlation Energy =       0.0000000000000000
    Empirical Dispersion Energy =           0.0000000000000000
    PCM Polarization Energy =               0.0000000000000000
    EFP Energy =                            0.0000000000000000
    Total Energy =                       -383.9475129171831895

  Mulliken Charges: (a.u.)
   Center  Symbol    Alpha    Beta     Spin     Total
       1     H     0.26787  0.26787  0.00000  0.46426
       2     O     4.35134  4.35134  0.00000 -0.70268
       3     C     2.62332  2.62332  0.00000  0.75336
       4     C     3.21339  3.21339  0.00000 -0.42679
       5     O     4.27906  4.27906  0.00000 -0.55811
       6     C     3.15603  3.15603  0.00000 -0.31205
       7     H     0.39678  0.39678  0.00000  0.20644
       8     H     0.39788  0.39788  0.00000  0.20425
       9     C     3.15561  3.15561  0.00000 -0.31122
      10     H     0.40574  0.40574  0.00000  0.18852
      11     H     0.41266  0.41266  0.00000  0.17467
      12     C     3.15478  3.15478  0.00000 -0.30956
      13     H     0.41798  0.41798  0.00000  0.16404
      14     H     0.42423  0.42423  0.00000  0.15153
      15     C     3.23909  3.23909  0.00000 -0.47817
      16     H     0.42062  0.42062  0.00000  0.15876
      17     H     0.42341  0.42341  0.00000  0.15319
      18     H     0.41826  0.41826  0.00000  0.16348
      19     H     0.42059  0.42059  0.00000  0.15882
      20     H     0.42137  0.42137  0.00000  0.15725

   Total alpha = 32.00000, Total beta = 32.00000, Total charge =  0.00000
