                              Psi4 1.0.54 Driver

  ==> Input File <==

--------------------------------------------------------------------------
set {
	reference rhf
	basis cc-pvtz
}

set_num_threads( 4 )
memory 2 gb

molecule MOL {
0 1

O	 -2.440701	 -0.934798	 -0.415053
C	 -1.922978	 0.063265	 -0.045005
C	 -2.632749	 1.372204	 0.158357
O	 -0.637375	 0.157174	 0.243149
H	 -2.187724	 2.129143	 -0.474664
H	 -3.677681	 1.257276	 -0.079438
H	 -2.516788	 1.693160	 1.185542
C	 0.162530	 -1.009518	 0.097799
C	 1.587210	 -0.664190	 0.477086
H	 0.096803	 -1.356267	 -0.924704
H	 -0.233803	 -1.785900	 0.736810
C	 2.605292	 -1.751237	 0.143021
H	 1.599165	 -0.471126	 1.546347
H	 1.865355	 0.265204	 -0.010460
C	 4.022669	 -1.379368	 0.565364
H	 2.313165	 -2.675865	 0.633760
H	 2.584550	 -1.948079	 -0.922655
H	 4.723394	 -2.168958	 0.320583
H	 4.081683	 -1.204831	 1.634684
H	 4.355280	 -0.475878	 0.065272

	symmetry c1
}
set optking {
	frozen_dihedral = ("
		12 9 8 10
	")
}

ee,wfn = optimize('scf', return_wfn=True)
oeprop( wfn, 'DIPOLE', 'QUADRUPOLE', 'MULLIKEN_CHARGES')
f=open( 'psi4out.xyz', 'w' )
f.write( "20  " )
f.write( str(ee) + "\n" )
f.write( MOL.save_string_xyz() )
f.close()
--------------------------------------------------------------------------

    Molecular point group: c1
  Charge       = 0
  Multiplicity = 1
  Basis Set: CC-PVTZ
  Basis Set:
  @DF-RHF Final Energy:  -384.08700857887845
    Total Energy =                       -384.0870085788783967
    Molecular point group: c1
  Basis Set: CC-PVTZ
  Basis Set:
  Basis Set: CC-PVTZ
  Basis Set:
  @DF-RHF Final Energy:  -384.08732026309747
    Total Energy =                       -384.0873202630968990
  Basis Set: CC-PVTZ
  Basis Set:
  Basis Set: CC-PVTZ
  Basis Set:
  @DF-RHF Final Energy:  -384.08692137378353
    Total Energy =                       -384.0869213737831842
  Basis Set: CC-PVTZ
  Basis Set:
  Basis Set: CC-PVTZ
  Basis Set:
  @DF-RHF Final Energy:  -384.08738393722149
    Total Energy =                       -384.0873839372212615
  Basis Set: CC-PVTZ
  Basis Set:
  Basis Set: CC-PVTZ
  Basis Set:
  @DF-RHF Final Energy:  -384.08738628989801
    Total Energy =                       -384.0873862898982907
  Basis Set: CC-PVTZ
  Basis Set:
  Basis Set: CC-PVTZ
  Basis Set:
  @DF-RHF Final Energy:  -384.08738769043458
    Total Energy =                       -384.0873876904345821
  Basis Set: CC-PVTZ
  Basis Set:
  Charge       = 0
  Multiplicity = 1
  Basis Set: CC-PVTZ
  Basis Set:

    Orbital Energies (a.u.)
    -----------------------

    Doubly Occupied:

       1A    -20.594436     2A    -20.532488     3A    -11.366424
       4A    -11.279403     5A    -11.231305     6A    -11.223966
       7A    -11.222238     8A    -11.213725     9A     -1.471039
      10A     -1.365119    11A     -1.089069    12A     -1.030662
      13A     -0.981518    14A     -0.882124    15A     -0.808660
      16A     -0.778047    17A     -0.694478    18A     -0.689498
      19A     -0.672082    20A     -0.639447    21A     -0.595306
      22A     -0.594582    23A     -0.571700    24A     -0.561489
      25A     -0.545854    26A     -0.521372    27A     -0.507810
      28A     -0.485474    29A     -0.481870    30A     -0.476729
      31A     -0.455675    32A     -0.440604

  @DF-RHF Final Energy:  -384.08738777652729

   => Energetics <=

    Nuclear Repulsion Energy =            379.5783859744498159
    One-Electron Energy =               -1275.3231595489064603
    Two-Electron Energy =                 511.6573857979294644
    DFT Exchange-Correlation Energy =       0.0000000000000000
    Empirical Dispersion Energy =           0.0000000000000000
    PCM Polarization Energy =               0.0000000000000000
    EFP Energy =                            0.0000000000000000
    Total Energy =                       -384.0873877765271800
    Molecular point group: c1
  Basis Set: CC-PVTZ
  Basis Set:

  -Total Gradient:
     Atom            X                  Y                   Z
    ------   -----------------  -----------------  -----------------
       1       -0.000009129627    -0.000015212674    -0.000008900531
       2        0.000028615829     0.000039071218     0.000021980009
       3       -0.000006146648    -0.000007269011     0.000003301871
       4       -0.000037499327    -0.000007475554    -0.000000576636
       5       -0.000001572574    -0.000004185348     0.000000840266
       6       -0.000005665573     0.000005202285    -0.000001110932
       7        0.000002177645    -0.000000312184    -0.000008269784
       8       -0.000277802765     0.002683925753    -0.001416159223
       9       -0.000227894607    -0.001315678435     0.002065615268
      10        0.000308879507    -0.001957403456     0.000703383223
      11        0.000000308561     0.000006201196     0.000002215873
      12        0.000223986664     0.000577267614    -0.001358794848
      13        0.000002925038    -0.000001506909    -0.000004100965
      14       -0.000004080702    -0.000003142950    -0.000000700412
      15        0.000006501314    -0.000003886149    -0.000001802274
      16       -0.000000939469     0.000001644555     0.000000826263
      17        0.000000968584     0.000003171659     0.000001042725
      18       -0.000001144441     0.000000054068     0.000000061144
      19       -0.000001693515    -0.000000720820     0.000001457845
      20       -0.000000793896     0.000000255143    -0.000000308880

  **** Optimization is complete! (in 7 steps) ****
    Final optimized geometry and variables:
    Molecular point group: c1

    Geometry (in Angstrom), charge = 0, multiplicity = 1:

    O           -2.518356319539    -0.427095057364    -0.542028634217
    C           -2.000400046008     0.580692524195    -0.199894249605
    C           -2.711331771044     1.892068502559    -0.020421413129
    O           -0.711756208673     0.685100592502     0.071458891457
    H           -2.272833675624     2.634851384937    -0.674284266460
    H           -3.758078127989     1.769852655153    -0.246364701854
    H           -2.586783735855     2.236394812058     0.998085267402
    C            0.088423272880    -0.480491216123    -0.053921701596
    C            1.509749438230    -0.122052943850     0.326836258712
    H            0.031911688807    -0.852407612649    -1.068080455270
    H           -0.308994031450    -1.252179059706     0.591637310761
    C            2.492059766514    -1.245380791839     0.007140434822
    H            1.548152967370     0.121945926916     1.383607906172
    H            1.797930319485     0.775114560510    -0.211765426336
    C            3.922583575540    -0.913188322063     0.417238833548
    H            2.178424681889    -2.158065037953     0.506718084163
    H            2.461880769033    -1.454925053709    -1.058019351344
    H            4.597949569466    -1.723889357760     0.170750647642
    H            3.992462856812    -0.736786833871     1.485162212750
    H            4.276762105843    -0.021280649532    -0.088461195716

  Mulliken Charges: (a.u.)
   Center  Symbol    Alpha    Beta     Spin     Total
       1     O     4.19692  4.19692  0.00000 -0.39383
       2     C     2.81061  2.81061  0.00000  0.37878
       3     C     3.13817  3.13817  0.00000 -0.27633
       4     O     4.15011  4.15011  0.00000 -0.30021
       5     H     0.44590  0.44590  0.00000  0.10820
       6     H     0.43816  0.43816  0.00000  0.12368
       7     H     0.44582  0.44582  0.00000  0.10835
       8     C     2.97914  2.97914  0.00000  0.04173
       9     C     3.08115  3.08115  0.00000 -0.16230
      10     H     0.45539  0.45539  0.00000  0.08923
      11     H     0.45352  0.45352  0.00000  0.09296
      12     C     3.09251  3.09251  0.00000 -0.18502
      13     H     0.45142  0.45142  0.00000  0.09716
      14     H     0.45136  0.45136  0.00000  0.09727
      15     C     3.14960  3.14960  0.00000 -0.29921
      16     H     0.45300  0.45300  0.00000  0.09401
      17     H     0.45218  0.45218  0.00000  0.09564
      18     H     0.44703  0.44703  0.00000  0.10593
      19     H     0.45399  0.45399  0.00000  0.09201
      20     H     0.45403  0.45403  0.00000  0.09194

   Total alpha = 32.00000, Total beta = 32.00000, Total charge = -0.00000

*** Psi4 exiting successfully. Buy a developer a beer!
