  ==> Input File <==

--------------------------------------------------------------------------
set {
	reference rhf
	basis 6-31G*
}

set_num_threads( 1 )
memory 2 gb

molecule MOL {
0 1

O	 -2.660041	 1.089815	 -1.063721
C	 -2.582986	 0.013522	 -0.563450
C	 -3.725503	 -0.967326	 -0.501301
O	 -1.481751	 -0.454642	 0.000584
H	 -4.056087	 -1.180799	 -1.510759
H	 -3.442817	 -1.884360	 -0.005745
H	 -4.552870	 -0.504880	 0.023568
C	 -0.334255	 0.388708	 0.000906
C	 0.891947	 -0.504646	 0.000751
H	 -0.365390	 1.025305	 -0.873475
H	 -0.365484	 1.024911	 0.875569
C	 2.191998	 0.301789	 0.000897
H	 0.855148	 -1.151283	 -0.871571
H	 0.855132	 -1.151660	 0.872805
C	 3.441114	 -0.581407	 0.000108
H	 2.215074	 0.954890	 -0.869742
H	 2.215465	 0.953923	 0.872248
C	 4.739576	 0.224112	 -0.001102
H	 3.419457	 -1.233487	 -0.870178
H	 3.420834	 -1.233096	 0.870717
H	 4.804918	 0.861552	 -0.878265
H	 5.606527	 -0.429058	 -0.001824
H	 4.806469	 0.861674	 0.875853

	symmetry c1
}
set optking {
	frozen_dihedral = ("
		13 9 8 10,
		16 12 9 13,
		19 15 12 16,
		1 2 4 8
	")
}

ee = energy('scf')
oeprop('DIPOLE', 'QUADRUPOLE', 'MULLIKEN_CHARGES')
f=open( 'psi4out.xyz', 'w' )
f.write( "23  " )
f.write( str(ee) + "\n" )
f.write( MOL.save_string_xyz() )
f.close()
--------------------------------------------------------------------------

    Molecular point group: c1

    Geometry (in Angstrom), charge = 0, multiplicity = 1:

       Center              X                  Y                   Z               Mass
    ------------   -----------------  -----------------  -----------------  -----------------
           O         -2.696567632456     1.139422900056    -0.823400545215    15.994914619560
           C         -2.619512632456     0.063129900056    -0.323129545215    12.000000000000
           C         -3.762029632456    -0.917718099944    -0.260980545215    12.000000000000
           O         -1.518277632456    -0.405034099944     0.240904454785    15.994914619560
           H         -4.092613632456    -1.131191099944    -1.270438545215     1.007825032070
           H         -3.479343632456    -1.834752099944     0.234575454785     1.007825032070
           H         -4.589396632456    -0.455272099944     0.263888454785     1.007825032070
           C         -0.370781632456     0.438315900056     0.241226454785    12.000000000000
           C          0.855420367544    -0.455038099944     0.241071454785    12.000000000000
           H         -0.401916632456     1.074912900056    -0.633154545215     1.007825032070
           H         -0.402010632456     1.074518900056     1.115889454785     1.007825032070
           C          2.155471367544     0.351396900056     0.241217454785    12.000000000000
           H          0.818621367544    -1.101675099944    -0.631250545215     1.007825032070
           H          0.818605367544    -1.102052099944     1.113125454785     1.007825032070
           C          3.404587367544    -0.531799099944     0.240428454785    12.000000000000
           H          2.178547367544     1.004497900056    -0.629421545215     1.007825032070
           H          2.178938367544     1.003530900056     1.112568454785     1.007825032070
           C          4.703049367544     0.273719900056     0.239218454785    12.000000000000
           H          3.382930367544    -1.183879099944    -0.629857545215     1.007825032070
           H          3.384307367544    -1.183488099944     1.111037454785     1.007825032070
           H          4.768391367544     0.911159900056    -0.637944545215     1.007825032070
           H          5.570000367544    -0.379450099944     0.238496454785     1.007825032070
           H          4.769942367544     0.911281900056     1.116173454785     1.007825032070

  Charge       = 0
  Multiplicity = 1
  Basis Set: 6-31G*
  Basis Set:

    Orbital Energies (a.u.)
    -----------------------

    Doubly Occupied:

       1A    -20.603218     2A    -20.540332     3A    -11.374851
       4A    -11.279414     5A    -11.232771     6A    -11.223632
       7A    -11.223034     8A    -11.221222     9A    -11.212626
      10A     -1.468393    11A     -1.361057    12A     -1.093570
      13A     -1.042074    14A     -1.003352    15A     -0.930637
      16A     -0.842193    17A     -0.801857    18A     -0.774242
      19A     -0.695926    20A     -0.682475    21A     -0.665984
      22A     -0.646827    23A     -0.605594    24A     -0.588012
      25A     -0.582904    26A     -0.568897    27A     -0.555509
      28A     -0.537910    29A     -0.523070    30A     -0.506158
      31A     -0.489645    32A     -0.477615    33A     -0.471106
      34A     -0.468065    35A     -0.448309    36A     -0.434138

  @DF-RHF Final Energy:  -422.97823334478977

   => Energetics <=

    Nuclear Repulsion Energy =            450.5119079740968004
    One-Electron Energy =               -1468.6272177486669079
    Two-Electron Energy =                 595.1370764297820415
    DFT Exchange-Correlation Energy =       0.0000000000000000
    Empirical Dispersion Energy =           0.0000000000000000
    PCM Polarization Energy =               0.0000000000000000
    EFP Energy =                            0.0000000000000000
    Total Energy =                       -422.9782333447880092

  Mulliken Charges: (a.u.)
   Center  Symbol    Alpha    Beta     Spin     Total
       1     O     4.28399  4.28399  0.00000 -0.56798
       2     C     2.61567  2.61567  0.00000  0.76867
       3     C     3.28832  3.28832  0.00000 -0.57664
       4     O     4.31172  4.31172  0.00000 -0.62345
       5     H     0.39751  0.39751  0.00000  0.20499
       6     H     0.39974  0.39974  0.00000  0.20053
       7     H     0.39726  0.39726  0.00000  0.20548
       8     C     3.00200  3.00200  0.00000 -0.00400
       9     C     3.16340  3.16340  0.00000 -0.32680
      10     H     0.39930  0.39930  0.00000  0.20140
      11     H     0.41526  0.41526  0.00000  0.16947
      12     C     3.16041  3.16041  0.00000 -0.32083
      13     H     0.41511  0.41511  0.00000  0.16979
      14     H     0.41465  0.41465  0.00000  0.17071
      15     C     3.15135  3.15135  0.00000 -0.30271
      16     H     0.42021  0.42021  0.00000  0.15959
      17     H     0.42152  0.42152  0.00000  0.15697
      18     C     3.23986  3.23986  0.00000 -0.47972
      19     H     0.42136  0.42136  0.00000  0.15729
      20     H     0.42151  0.42151  0.00000  0.15699
      21     H     0.42072  0.42072  0.00000  0.15856
      22     H     0.41808  0.41808  0.00000  0.16385
      23     H     0.42107  0.42107  0.00000  0.15785

   Total alpha = 36.00000, Total beta = 36.00000, Total charge = -0.00000
