                              Psi4 1.0.54 Driver

  ==> Input File <==

--------------------------------------------------------------------------
set {
	reference rhf
	basis cc-pvtz
}

set_num_threads( 4 )
memory 2 gb

molecule MOL {
0 1

O	 -0.294657	 1.318860	 -0.000872
C	 -0.448701	 0.145766	 -0.000187
C	 -1.780717	 -0.548056	 0.000195
O	 0.550774	 -0.719832	 0.000412
H	 -1.859358	 -1.183215	 -0.872613
H	 -2.570205	 0.185592	 -0.001342
H	 -1.860202	 -1.180292	 0.875064
C	 1.863235	 -0.193988	 0.000410
H	 2.031533	 0.409222	 -0.879273
H	 2.524519	 -1.045097	 0.000793
H	 2.031322	 0.409868	 0.879686

	symmetry c1
}
ee,wfn = energy('scf', return_wfn=True)
oeprop( wfn, 'DIPOLE', 'QUADRUPOLE', 'MULLIKEN_CHARGES')
oeprop( wfn, 'GRID_ESP')
f=open( 'psi4out.xyz', 'w' )
f.write( "11  " )
f.write( str(ee) + "\n" )
f.write( MOL.save_string_xyz() )
f.close()
--------------------------------------------------------------------------

    Molecular point group: c1

    Geometry (in Angstrom), charge = 0, multiplicity = 1:

       Center              X                  Y                   Z               Mass
    ------------   -----------------  -----------------  -----------------  -----------------
           O         -0.294688218910     1.318814982537    -0.000871884574    15.994914619560
           C         -0.448732218910     0.145720982537    -0.000186884574    12.000000000000
           C         -1.780748218910    -0.548101017463     0.000195115426    12.000000000000
           O          0.550742781090    -0.719877017463     0.000412115426    15.994914619560
           H         -1.859389218910    -1.183260017463    -0.872612884574     1.007825032070
           H         -2.570236218910     0.185546982537    -0.001341884574     1.007825032070
           H         -1.860233218910    -1.180337017463     0.875064115426     1.007825032070
           C          1.863203781090    -0.194033017463     0.000410115426    12.000000000000
           H          2.031501781090     0.409176982537    -0.879272884574     1.007825032070
           H          2.524487781090    -1.045142017463     0.000793115426     1.007825032070
           H          2.031290781090     0.409822982537     0.879686115426     1.007825032070

  Charge       = 0
  Multiplicity = 1
  Basis Set: CC-PVTZ
  Basis Set:

    Orbital Energies (a.u.)
    -----------------------

    Doubly Occupied:

       1A    -20.598820     2A    -20.535303     3A    -11.368836
       4A    -11.279956     5A    -11.233250     6A     -1.474365
       7A     -1.367668     8A     -1.037006     9A     -0.953704
      10A     -0.780214    11A     -0.698194    12A     -0.684650
      13A     -0.681198    14A     -0.595619    15A     -0.593705
      16A     -0.561864    17A     -0.526563    18A     -0.525786
      19A     -0.462404    20A     -0.445995

  @DF-RHF Final Energy:  -266.93923958221563

   => Energetics <=

    Nuclear Repulsion Energy =            183.7166223975194157
    One-Electron Energy =                -728.5013335127117671
    Two-Electron Energy =                 277.8454715329766600
    DFT Exchange-Correlation Energy =       0.0000000000000000
    Empirical Dispersion Energy =           0.0000000000000000
    PCM Polarization Energy =               0.0000000000000000
    EFP Energy =                            0.0000000000000000
    Total Energy =                       -266.9392395822156345

  Mulliken Charges: (a.u.)
   Center  Symbol    Alpha    Beta     Spin     Total
       1     O     4.19664  4.19664  0.00000 -0.39328
       2     C     2.80186  2.80186  0.00000  0.39627
       3     C     3.13788  3.13788  0.00000 -0.27576
       4     O     4.14773  4.14773  0.00000 -0.29546
       5     H     0.44543  0.44543  0.00000  0.10914
       6     H     0.43786  0.43786  0.00000  0.12427
       7     H     0.44544  0.44544  0.00000  0.10912
       8     C     3.03350  3.03350  0.00000 -0.06700
       9     H     0.45408  0.45408  0.00000  0.09185
      10     H     0.44549  0.44549  0.00000  0.10901
      11     H     0.45408  0.45408  0.00000  0.09184

   Total alpha = 20.00000, Total beta = 20.00000, Total charge =  0.00000

*** Psi4 exiting successfully. Buy a developer a beer!
