  ==> Input File <==

--------------------------------------------------------------------------
set {
	reference rhf
	basis cc-pvtz
}

set_num_threads( 4 )
memory 2 gb

molecule MOL {
0 1

O	 1.098106	 1.491817	 -0.410348
C	 0.780497	 0.665817	 -1.196420
C	 -0.503367	 -0.123032	 -1.166868
O	 1.532733	 0.321102	 -2.228742
C	 -1.413045	 0.229353	 0.001137
H	 -1.002062	 0.040322	 -2.116658
H	 -0.233791	 -1.174016	 -1.151941
C	 -2.702562	 -0.586401	 0.000228
H	 -1.647714	 1.287286	 -0.034192
H	 -0.879063	 0.071226	 0.931408
C	 -3.953810	 0.284959	 -0.000782
H	 -2.717793	 -1.238567	 -0.869075
H	 -2.719108	 -1.238472	 0.869576
H	 -3.983727	 0.924403	 -0.876454
H	 -4.852989	 -0.320147	 -0.001515
H	 -3.985140	 0.924399	 0.874841
C	 2.771255	 0.984910	 -2.379542
H	 2.622066	 2.047551	 -2.501052
H	 3.225843	 0.569415	 -3.264179
H	 3.402749	 0.813743	 -1.520391

	symmetry c1
}
set optking {
	frozen_dihedral = ("
		9 5 8 12
	")
}

ee = optimize('scf')
oeprop('DIPOLE', 'QUADRUPOLE', 'MULLIKEN_CHARGES')
f=open( 'psi4out.xyz', 'w' )
f.write( "20  " )
f.write( str(ee) + "\n" )
f.write( MOL.save_string_xyz() )
f.close()
--------------------------------------------------------------------------

    Molecular point group: c1
  Charge       = 0
  Multiplicity = 1
  Basis Set: CC-PVTZ
  Basis Set:
  @DF-RHF Final Energy:  -384.07722680115000
    Total Energy =                       -384.0772268011497772
    Molecular point group: c1
  Basis Set: CC-PVTZ
  Basis Set:
  Basis Set: CC-PVTZ
  Basis Set:
  @DF-RHF Final Energy:  -384.07748453295847
    Total Energy =                       -384.0774845329586924
  Basis Set: CC-PVTZ
  Basis Set:
  Basis Set: CC-PVTZ
  Basis Set:
  @DF-RHF Final Energy:  -384.07754611541998
    Total Energy =                       -384.0775461154195227
  Basis Set: CC-PVTZ
  Basis Set:
  Basis Set: CC-PVTZ
  Basis Set:
  @DF-RHF Final Energy:  -384.07733318021735
    Total Energy =                       -384.0773331802171242
  Basis Set: CC-PVTZ
  Basis Set:
  Charge       = 0
  Multiplicity = 1
  Basis Set: CC-PVTZ
  Basis Set:

    Orbital Energies (a.u.)
    -----------------------

    Doubly Occupied:

       1A    -20.596422     2A    -20.534332     3A    -11.364535
       4A    -11.278570     5A    -11.234536     6A    -11.218124
       7A    -11.217025     8A    -11.209788     9A     -1.472318
      10A     -1.365929    11A     -1.087573    12A     -1.024645
      13A     -0.969891    14A     -0.887045    15A     -0.805207
      16A     -0.769522    17A     -0.701628    18A     -0.685939
      19A     -0.676350    20A     -0.636549    21A     -0.603872
      22A     -0.597761    23A     -0.576895    24A     -0.544932
      25A     -0.529417    26A     -0.523830    27A     -0.512151
      28A     -0.476641    29A     -0.474307    30A     -0.466071
      31A     -0.457901    32A     -0.439413

  @DF-RHF Final Energy:  -384.07755347585316

   => Energetics <=

    Nuclear Repulsion Energy =            382.2076629106607015
    One-Electron Energy =               -1280.6921977606996279
    Two-Electron Energy =                 514.4069813741855342
    DFT Exchange-Correlation Energy =       0.0000000000000000
    Empirical Dispersion Energy =           0.0000000000000000
    PCM Polarization Energy =               0.0000000000000000
    EFP Energy =                            0.0000000000000000
    Total Energy =                       -384.0775534758533922
    Molecular point group: c1
  Basis Set: CC-PVTZ
  Basis Set:

  -Total Gradient:
     Atom            X                  Y                   Z
    ------   -----------------  -----------------  -----------------
       1       -0.000047885406     0.000029463200     0.000022127780
       2        0.000044919660    -0.000055743245     0.000051098877
       3        0.000121765237     0.000008543322    -0.000131965010
       4       -0.000068600653    -0.000029771364    -0.000036602480
       5        0.000068932632    -0.000188820859    -0.001129590928
       6        0.000005698631    -0.000001224808    -0.000031639860
       7        0.000031668095    -0.000010537626    -0.000021561909
       8       -0.000507827465     0.000876739034    -0.000467308460
       9        0.000020692889     0.000043916069     0.001159266409
      10        0.000018134953     0.000046664590    -0.000011484195
      11       -0.000113700601     0.000086428382     0.000007066392
      12        0.000482599126    -0.000852355836     0.000630019034
      13       -0.000004842912    -0.000008702955    -0.000046316310
      14       -0.000029132039     0.000029533234    -0.000027758532
      15        0.000029103442     0.000005714847    -0.000001989071
      16       -0.000032139750     0.000018169206     0.000015507469
      17       -0.000009981076     0.000006424469     0.000020753308
      18        0.000000143478     0.000000205421    -0.000000227283
      19       -0.000010268647    -0.000005046248     0.000001060305
      20        0.000000720411     0.000000401164    -0.000000455534

  **** Optimization is complete! (in 5 steps) ****
    Final optimized geometry and variables:
    Molecular point group: c1

    Geometry (in Angstrom), charge = 0, multiplicity = 1:

    O            1.368629225484     1.072655826183     0.523092034892
    C            1.054728085478     0.243656379455    -0.261382510933
    C           -0.229467719944    -0.544821378774    -0.235297265069
    O            1.811415631069    -0.104833223409    -1.289214138351
    C           -1.145097787484    -0.189604028709     0.928540521808
    H           -0.724902255585    -0.383725300945    -1.187314375928
    H            0.039177715561    -1.595955379018    -0.216610218366
    C           -2.451949463292    -1.009642891938     0.935230018042
    H           -1.369135727046     0.869387184776     0.892704666020
    H           -0.605048233936    -0.336882695302     1.855046734095
    C           -3.710125605770    -0.146614615838     0.953975032337
    H           -2.483718700787    -1.666336479595     0.071292856243
    H           -2.463060885086    -1.666557302515     1.798089890300
    H           -3.756983260774     0.494771151904     0.079909707914
    H           -4.605505622368    -0.757588661494     0.966050711357
    H           -3.731408004252     0.491544793108     1.830803935179
    C            3.050445643773     0.558574056796    -1.437117790635
    H            2.901674960125     1.620750022809    -1.563173501924
    H            3.508883829820     0.139888037689    -2.318257280865
    H            3.678294492980     0.390674788905    -0.574646848401

  Mulliken Charges: (a.u.)
   Center  Symbol    Alpha    Beta     Spin     Total
       1     O     4.19667  4.19667  0.00000 -0.39333
       2     C     2.80827  2.80827  0.00000  0.38347
       3     C     3.09968  3.09968  0.00000 -0.19936
       4     O     4.14694  4.14694  0.00000 -0.29389
       5     C     3.08910  3.08910  0.00000 -0.17820
       6     H     0.43956  0.43956  0.00000  0.12087
       7     H     0.43883  0.43883  0.00000  0.12235
       8     C     3.09041  3.09041  0.00000 -0.18081
       9     H     0.44641  0.44641  0.00000  0.10717
      10     H     0.44286  0.44286  0.00000  0.11428
      11     C     3.14640  3.14640  0.00000 -0.29281
      12     H     0.45606  0.45606  0.00000  0.08787
      13     H     0.44935  0.44935  0.00000  0.10131
      14     H     0.45567  0.45567  0.00000  0.08865
      15     H     0.44961  0.44961  0.00000  0.10078
      16     H     0.45252  0.45252  0.00000  0.09496
      17     C     3.03769  3.03769  0.00000 -0.07539
      18     H     0.45433  0.45433  0.00000  0.09134
      19     H     0.44530  0.44530  0.00000  0.10941
      20     H     0.45434  0.45434  0.00000  0.09133

   Total alpha = 32.00000, Total beta = 32.00000, Total charge = -0.00000
