                              Psi4 1.0.54 Driver

  ==> Input File <==

--------------------------------------------------------------------------
set {
	reference rhf
	basis cc-pvtz
}

set_num_threads( 4 )
memory 2 gb

molecule MOL {
0 1

H	 -0.000105	 1.988529	 0.748933
O	 -0.000098	 1.879786	 -0.188206
C	 -0.000014	 0.545691	 -0.532416
C	 1.432723	 0.011765	 -0.576732
C	 -0.794728	 0.332903	 -1.821960
H	 -0.513911	 0.001895	 0.246594
F	 1.986956	 0.160290	 0.601244
F	 1.480822	 -1.259308	 -0.886202
F	 2.163579	 0.673688	 -1.447985
F	 -2.027561	 0.739057	 -1.643016
F	 -0.834138	 -0.925550	 -2.180368
F	 -0.286428	 1.026924	 -2.817622

	symmetry c1
}
set optking {
	frozen_dihedral = ("
		6 3 2 1
	")
}

ee,wfn = optimize('scf', return_wfn=True)
oeprop( wfn, 'DIPOLE', 'QUADRUPOLE', 'MULLIKEN_CHARGES')
f=open( 'psi4out.xyz', 'w' )
f.write( "12  " )
f.write( str(ee) + "\n" )
f.write( MOL.save_string_xyz() )
f.close()
--------------------------------------------------------------------------

    Molecular point group: c1
  Charge       = 0
  Multiplicity = 1
  Basis Set: CC-PVTZ
  Basis Set:
  @DF-RHF Final Energy:  -786.58590968840826
    Total Energy =                       -786.5859096884086057
    Molecular point group: c1
  Basis Set: CC-PVTZ
  Basis Set:
  Basis Set: CC-PVTZ
  Basis Set:
  @DF-RHF Final Energy:  -786.58750592674301
    Total Energy =                       -786.5875059267431197
  Basis Set: CC-PVTZ
  Basis Set:
  Basis Set: CC-PVTZ
  Basis Set:
  @DF-RHF Final Energy:  -786.58780665633424
    Total Energy =                       -786.5878066563342372
  Basis Set: CC-PVTZ
  Basis Set:
  Basis Set: CC-PVTZ
  Basis Set:
  @DF-RHF Final Energy:  -786.58785655696749
    Total Energy =                       -786.5878565569672674
  Basis Set: CC-PVTZ
  Basis Set:
  Basis Set: CC-PVTZ
  Basis Set:
  @DF-RHF Final Energy:  -786.58786648959403
    Total Energy =                       -786.5878664895940346
  Basis Set: CC-PVTZ
  Basis Set:
  Basis Set: CC-PVTZ
  Basis Set:
  @DF-RHF Final Energy:  -786.58786755459676
    Total Energy =                       -786.5878675545967553
  Basis Set: CC-PVTZ
  Basis Set:
  Charge       = 0
  Multiplicity = 1
  Basis Set: CC-PVTZ
  Basis Set:

    Orbital Energies (a.u.)
    -----------------------

    Doubly Occupied:

       1A    -26.353879     2A    -26.353226     3A    -26.351600
       4A    -26.351105     5A    -26.348858     6A    -26.348081
       7A    -20.609671     8A    -11.515684     9A    -11.515630
      10A    -11.351750    11A     -1.767056    12A     -1.761249
      13A     -1.661614    14A     -1.660030    15A     -1.656772
      16A     -1.655905    17A     -1.439595    18A     -1.103502
      19A     -0.997699    20A     -0.939522    21A     -0.868795
      22A     -0.861964    23A     -0.857677    24A     -0.846690
      25A     -0.836047    26A     -0.786570    27A     -0.768703
      28A     -0.733066    29A     -0.727152    30A     -0.723473
      31A     -0.720480    32A     -0.686390    33A     -0.682154
      34A     -0.673915    35A     -0.673090    36A     -0.663710
      37A     -0.658183    38A     -0.629402    39A     -0.622709
      40A     -0.557743    41A     -0.509235

  @DF-RHF Final Energy:  -786.58786800512155

   => Energetics <=

    Nuclear Repulsion Energy =            670.3680062614281496
    One-Electron Energy =               -2428.2525863859013953
    Two-Electron Energy =                 971.2967121193522644
    DFT Exchange-Correlation Energy =       0.0000000000000000
    Empirical Dispersion Energy =           0.0000000000000000
    PCM Polarization Energy =               0.0000000000000000
    EFP Energy =                            0.0000000000000000
    Total Energy =                       -786.5878680051210949
    Molecular point group: c1
  Basis Set: CC-PVTZ
  Basis Set:

  -Total Gradient:
     Atom            X                  Y                   Z
    ------   -----------------  -----------------  -----------------
       1       -0.000883616195    -0.000026544132     0.000024843820
       2        0.001314372514     0.000077989678     0.000095251212
       3       -0.001100307301     0.000077458798    -0.000484510414
       4       -0.000038115081     0.000022344978    -0.000040167860
       5        0.000000278674     0.000030803676    -0.000017363673
       6        0.000693145069    -0.000070951146     0.000346977918
       7        0.000012843400     0.000007954604     0.000043077542
       8        0.000012969850    -0.000050236428    -0.000016971551
       9       -0.000008637098    -0.000013596417     0.000011363038
      10       -0.000031110827    -0.000007912448     0.000016132117
      11        0.000015779562    -0.000034758388    -0.000003040512
      12        0.000012397438    -0.000012552779     0.000024408358

  **** Optimization is complete! (in 7 steps) ****
    Final optimized geometry and variables:
    Molecular point group: c1

    Geometry (in Angstrom), charge = 0, multiplicity = 1:

    H           -0.383150197558     1.732016990165     1.843560889025
    O           -0.381042817212     1.573515677668     0.917073412784
    C           -0.329301224115     0.222538711253     0.642634259109
    C            1.128013199868    -0.237835375137     0.577508627483
    C           -1.122101702481    -0.008300028523    -0.641842632215
    H           -0.801635156547    -0.381422960346     1.408029540035
    F            1.711674445351     0.074623850032     1.716860492571
    F            1.217493486405    -1.538248857481     0.432167368910
    F            1.800159507350     0.330973411162    -0.387169879469
    F           -2.380292220470     0.298031688972    -0.430720949566
    F           -1.073519178257    -1.268412989464    -1.006825269770
    F           -0.687599242623     0.721535158788    -1.634166487039

  Mulliken Charges: (a.u.)
   Center  Symbol    Alpha    Beta     Spin     Total
       1     H     0.38188  0.38188  0.00000  0.23625
       2     O     4.18591  4.18591  0.00000 -0.37181
       3     C     3.00111  3.00111  0.00000 -0.00222
       4     C     2.68074  2.68074  0.00000  0.63853
       5     C     2.67697  2.67697  0.00000  0.64606
       6     H     0.44451  0.44451  0.00000  0.11097
       7     F     4.61156  4.61156  0.00000 -0.22311
       8     F     4.60519  4.60519  0.00000 -0.21038
       9     F     4.60055  4.60055  0.00000 -0.20110
      10     F     4.60512  4.60512  0.00000 -0.21024
      11     F     4.60544  4.60544  0.00000 -0.21088
      12     F     4.60104  4.60104  0.00000 -0.20207

   Total alpha = 41.00000, Total beta = 41.00000, Total charge = -0.00000

*** Psi4 exiting successfully. Buy a developer a beer!
