  ==> Input File <==

--------------------------------------------------------------------------
set {
	reference rhf
	basis 6-31G*
}

set_num_threads( 4 )
memory 2 gb

molecule MOL {
0 1

H	 -1.324020	 1.127159	 0.648870
C	 -0.790252	 0.431209	 0.000000
N	 0.538815	 0.649616	 0.000000
O	 -1.359360	 -0.415312	 -0.623479
C	 1.521968	 -0.411503	 0.000000
H	 0.852804	 1.592852	 0.000000
H	 2.150599	 -0.357004	 -0.881901
H	 0.999455	 -1.354525	 0.000000
H	 2.150599	 -0.357004	 0.881901

	symmetry c1
}
set optking {
	frozen_dihedral = ("
		1 2 3 6
	")
}

ee = optimize('scf')
oeprop('DIPOLE', 'QUADRUPOLE', 'MULLIKEN_CHARGES')
f=open( 'psi4out.xyz', 'w' )
f.write( "9  " )
f.write( str(ee) + "\n" )
f.write( MOL.save_string_xyz() )
f.close()
--------------------------------------------------------------------------

    Molecular point group: c1
  Charge       = 0
  Multiplicity = 1
  Basis Set: 6-31G*
  Basis Set:
  @DF-RHF Final Energy:  -207.94410256225882
    Total Energy =                       -207.9441025622587347
    Molecular point group: c1
  Basis Set: 6-31G*
  Basis Set:
  Basis Set: 6-31G*
  Basis Set:
  @DF-RHF Final Energy:  -207.94935663593446
    Total Energy =                       -207.9493566359344356
  Basis Set: 6-31G*
  Basis Set:
  Basis Set: 6-31G*
  Basis Set:
  @DF-RHF Final Energy:  -207.95419828292000
    Total Energy =                       -207.9541982829200037
  Basis Set: 6-31G*
  Basis Set:
  Basis Set: 6-31G*
  Basis Set:
  @DF-RHF Final Energy:  -207.95643241146610
    Total Energy =                       -207.9564324114660678
  Basis Set: 6-31G*
  Basis Set:
  @DF-RHF Final Energy:  -207.95692851082617
    Total Energy =                       -207.9569285108261170
  @DF-RHF Final Energy:  -207.95722931900207
    Total Energy =                       -207.9572293190018968
  @DF-RHF Final Energy:  -207.95731622146809
    Total Energy =                       -207.9573162214680337
  @DF-RHF Final Energy:  -207.95738481151739
    Total Energy =                       -207.9573848115173575
  @DF-RHF Final Energy:  -207.95356947592592
    Total Energy =                       -207.9535694759258035
  @DF-RHF Final Energy:  -207.95747379226191
    Total Energy =                       -207.9574737922619647
  @DF-RHF Final Energy:  -207.95757807887355
    Total Energy =                       -207.9575780788736097
  @DF-RHF Final Energy:  -207.95453872616733
    Total Energy =                       -207.9545387261673284
  @DF-RHF Final Energy:  -207.95766991860833
    Total Energy =                       -207.9576699186083317
  Basis Set: 6-31G*
  Basis Set:
  @DF-RHF Final Energy:  -207.95775713634043
    Total Energy =                       -207.9577571363404047
  Basis Set: 6-31G*
  Basis Set:
  Basis Set: 6-31G*
  Basis Set:
  @DF-RHF Final Energy:  -207.95780343713130
    Total Energy =                       -207.9578034371314175
  Basis Set: 6-31G*
  Basis Set:
  Basis Set: 6-31G*
  Basis Set:
  @DF-RHF Final Energy:  -207.95780522142167
    Total Energy =                       -207.9578052214216655
  Basis Set: 6-31G*
  Basis Set:
  Charge       = 0
  Multiplicity = 1
  Basis Set: 6-31G*
  Basis Set:

    Orbital Energies (a.u.)
    -----------------------

    Doubly Occupied:

       1A    -20.538822     2A    -15.588330     3A    -11.346671
       4A    -11.257223     5A     -1.399229     6A     -1.234885
       7A     -0.961461     8A     -0.805893     9A     -0.741595
      10A     -0.644894    11A     -0.634623    12A     -0.583791
      13A     -0.552701    14A     -0.533978    15A     -0.432108
      16A     -0.400997

  @DF-RHF Final Energy:  -207.95780543358865

   => Energetics <=

    Nuclear Repulsion Energy =            122.7896942719550992
    One-Electron Energy =                -526.1805953895598122
    Two-Electron Energy =                 195.4330956840159956
    DFT Exchange-Correlation Energy =       0.0000000000000000
    Empirical Dispersion Energy =           0.0000000000000000
    PCM Polarization Energy =               0.0000000000000000
    EFP Energy =                            0.0000000000000000
    Total Energy =                       -207.9578054335887032
    Molecular point group: c1
  Basis Set: 6-31G*
  Basis Set:

  -Total Gradient:
     Atom            X                  Y                   Z
    ------   -----------------  -----------------  -----------------
       1       -0.001827032372    -0.003490912797     0.005291535009
       2        0.003165821735     0.004384081849    -0.008940848919
       3       -0.003768749790     0.000506637711     0.010529004411
       4       -0.000202053588    -0.000098658525    -0.000131318979
       5       -0.000118398247    -0.000028813867    -0.000024932182
       6        0.002476686474    -0.001147766591    -0.006782300995
       7       -0.000014293299    -0.000000883748     0.000044747501
       8        0.000215534977     0.000067134117     0.000002277449
       9        0.000072484111    -0.000190818149     0.000011836705

  **** Optimization is complete! (in 17 steps) ****
    Final optimized geometry and variables:
    Molecular point group: c1

    Geometry (in Angstrom), charge = 0, multiplicity = 1:

    H           -1.434413814377     1.252131693871     0.349418819616
    C           -0.787094783058     0.438480137218     0.019103942388
    N            0.484537498797     0.546573548689     0.499434200975
    O           -1.208395028892    -0.490186666975    -0.598671501708
    C            1.453145467346    -0.467499492198     0.116207195793
    H            0.845223014469     1.476958114405     0.505929478451
    H            1.665381397100    -0.461696947304    -0.948229076314
    H            1.068847896876    -1.441108855492     0.379670543240
    H            2.370182406208    -0.295421725525     0.664121146669

  Mulliken Charges: (a.u.)
   Center  Symbol    Alpha    Beta     Spin     Total
       1     H     0.42233  0.42233  0.00000  0.15534
       2     C     2.75743  2.75743  0.00000  0.48514
       3     N     3.86328  3.86328  0.00000 -0.72655
       4     O     4.27079  4.27079  0.00000 -0.54158
       5     C     3.14732  3.14732  0.00000 -0.29463
       6     H     0.31435  0.31435  0.00000  0.37130
       7     H     0.41325  0.41325  0.00000  0.17350
       8     H     0.39726  0.39726  0.00000  0.20548
       9     H     0.41400  0.41400  0.00000  0.17201

   Total alpha = 16.00000, Total beta = 16.00000, Total charge =  0.00000
