  ==> Input File <==

--------------------------------------------------------------------------
set {
	reference rhf
	basis 6-31G*
}

set_num_threads( 4 )
memory 2 gb

molecule MOL {
0 1

O	 -2.042549	 -1.228399	 -0.269030
C	 -1.653912	 -0.146171	 0.050137
C	 -0.332303	 0.024011	 0.778412
C	 -2.438579	 1.106236	 -0.272369
C	 0.845713	 -0.001731	 -0.208243
H	 -0.323783	 0.953829	 1.340327
H	 -0.235459	 -0.796807	 1.480410
C	 1.827510	 1.149139	 0.016714
H	 0.471315	 0.041029	 -1.229556
H	 1.362365	 -0.951315	 -0.105766
C	 3.004679	 1.120870	 -0.957288
H	 1.301755	 2.096767	 -0.078194
H	 2.200928	 1.106453	 1.037158
H	 2.664948	 1.196381	 -1.986333
H	 3.569210	 0.197958	 -0.862522
H	 3.685323	 1.945869	 -0.772552
H	 -3.277823	 0.863061	 -0.908988
H	 -1.806773	 1.843019	 -0.759671
H	 -2.802853	 1.554979	 0.648059

	symmetry c1
}
set optking {
	frozen_dihedral = ("
		9 5 3 2
	")
}

ee = optimize('scf')
oeprop('DIPOLE', 'QUADRUPOLE', 'MULLIKEN_CHARGES')
f=open( 'psi4out.xyz', 'w' )
f.write( "19  " )
f.write( str(ee) + "\n" )
f.write( MOL.save_string_xyz() )
f.close()
--------------------------------------------------------------------------

    Molecular point group: c1
  Charge       = 0
  Multiplicity = 1
  Basis Set: 6-31G*
  Basis Set:
  @DF-RHF Final Energy:  -309.05965100410828
    Total Energy =                       -309.0596510041082752
    Molecular point group: c1
  Basis Set: 6-31G*
  Basis Set:
  Basis Set: 6-31G*
  Basis Set:
  @DF-RHF Final Energy:  -309.05984823520379
    Total Energy =                       -309.0598482352039014
  Basis Set: 6-31G*
  Basis Set:
  Basis Set: 6-31G*
  Basis Set:
  @DF-RHF Final Energy:  -309.05775320848966
    Total Energy =                       -309.0577532084898849
  Basis Set: 6-31G*
  Basis Set:
  Basis Set: 6-31G*
  Basis Set:
  @DF-RHF Final Energy:  -309.06026328475554
    Total Energy =                       -309.0602632847555356
  Basis Set: 6-31G*
  Basis Set:
  @DF-RHF Final Energy:  -309.06036881037198
    Total Energy =                       -309.0603688103718696
  @DF-RHF Final Energy:  -309.06037441589058
    Total Energy =                       -309.0603744158902941
  Basis Set: 6-31G*
  Basis Set:
  @DF-RHF Final Energy:  -309.06040990617925
    Total Energy =                       -309.0604099061796433
  Basis Set: 6-31G*
  Basis Set:
  Basis Set: 6-31G*
  Basis Set:
  @DF-RHF Final Energy:  -309.06041573497009
    Total Energy =                       -309.0604157349700927
  Basis Set: 6-31G*
  Basis Set:
  Basis Set: 6-31G*
  Basis Set:
  @DF-RHF Final Energy:  -309.06041687338353
    Total Energy =                       -309.0604168733839288
  Basis Set: 6-31G*
  Basis Set:
  Charge       = 0
  Multiplicity = 1
  Basis Set: 6-31G*
  Basis Set:

    Orbital Energies (a.u.)
    -----------------------

    Doubly Occupied:

       1A    -20.547210     2A    -11.324261     3A    -11.233226
       4A    -11.229497     5A    -11.228052     6A    -11.228043
       7A    -11.217197     8A     -1.392738     9A     -1.092283
      10A     -1.029775    11A     -0.982448    12A     -0.893617
      13A     -0.810810    14A     -0.734331    15A     -0.659451
      16A     -0.646522    17A     -0.621498    18A     -0.613322
      19A     -0.584888    20A     -0.575622    21A     -0.552039
      22A     -0.537623    23A     -0.515485    24A     -0.503083
      25A     -0.483590    26A     -0.475120    27A     -0.467742
      28A     -0.396768

  @DF-RHF Final Energy:  -309.06041724723565

   => Energetics <=

    Nuclear Repulsion Energy =            302.4630736578351957
    One-Electron Energy =               -1017.8945008494558806
    Two-Electron Energy =                 406.3710099443853210
    DFT Exchange-Correlation Energy =       0.0000000000000000
    Empirical Dispersion Energy =           0.0000000000000000
    PCM Polarization Energy =               0.0000000000000000
    EFP Energy =                            0.0000000000000000
    Total Energy =                       -309.0604172472354207
    Molecular point group: c1
  Basis Set: 6-31G*
  Basis Set:

  -Total Gradient:
     Atom            X                  Y                   Z
    ------   -----------------  -----------------  -----------------
       1        0.000001960038    -0.000000534163     0.000012874798
       2       -0.000155055010     0.001725170321    -0.000059064720
       3        0.000225804841    -0.002936413891    -0.000065102435
       4       -0.000021862316     0.000006424881     0.000004684851
       5        0.000003890259     0.003566220844     0.000327638235
       6       -0.000008778035     0.000006265059     0.000010156847
       7       -0.000002061324    -0.000002465932     0.000014113158
       8        0.000007729341    -0.000007209218     0.000002649612
       9       -0.000071497501    -0.002365074369    -0.000244435677
      10        0.000007912890     0.000000178977    -0.000000050557
      11        0.000005408815     0.000012930747     0.000002666675
      12        0.000000833585    -0.000009819155    -0.000003596673
      13       -0.000000606129     0.000001422120    -0.000003970862
      14        0.000000679387     0.000001062931     0.000002966889
      15       -0.000007613509     0.000002113588     0.000001840622
      16        0.000012189759     0.000001477448    -0.000006380497
      17        0.000000679335     0.000000142006     0.000001634373
      18       -0.000000821651    -0.000005996898     0.000005009155
      19        0.000001207222     0.000004104704    -0.000003633795

  **** Optimization is complete! (in 10 steps) ****
    Final optimized geometry and variables:
    Molecular point group: c1

    Geometry (in Angstrom), charge = 0, multiplicity = 1:

    O           -2.101318596595    -1.524409045441     0.146463335707
    C           -1.554619526789    -0.468266107151     0.242161906833
    C           -0.194475035087    -0.331347212825     0.898863557323
    C           -2.189487669193     0.799852020633    -0.290191635736
    C            0.947439699251    -0.258787078326    -0.147960304924
    H           -0.189638441727     0.569715423042     1.507098243219
    H           -0.056088069430    -1.177256230900     1.559209077581
    C            1.957701393754     0.856014770903     0.125553456679
    H            0.538760542685    -0.143556340644    -1.149414412462
    H            1.462400029166    -1.214224202650    -0.164141359025
    C            3.103167500372     0.880249544905    -0.884797003792
    H            1.445560451149     1.816042360748     0.117000270212
    H            2.360439075093     0.734493544103     1.128667106564
    H            2.732652595548     1.030417291764    -1.894875570053
    H            3.656778962506    -0.054056136585    -0.871927529453
    H            3.801478855368     1.681797934045    -0.666042787679
    H           -3.028603380711     0.552409181054    -0.925498077057
    H           -1.475308012590     1.404809255326    -0.839268100592
    H           -2.542858807883     1.397975189667     0.545901929369

  Mulliken Charges: (a.u.)
   Center  Symbol    Alpha    Beta     Spin     Total
       1     O     4.26036  4.26036  0.00000 -0.52072
       2     C     2.74054  2.74054  0.00000  0.51891
       3     C     3.20299  3.20299  0.00000 -0.40598
       4     C     3.28926  3.28926  0.00000 -0.57851
       5     C     3.16156  3.16156  0.00000 -0.32312
       6     H     0.41403  0.41403  0.00000  0.17194
       7     H     0.39800  0.39800  0.00000  0.20400
       8     C     3.15431  3.15431  0.00000 -0.30862
       9     H     0.41640  0.41640  0.00000  0.16719
      10     H     0.40972  0.40972  0.00000  0.18056
      11     C     3.24107  3.24107  0.00000 -0.48214
      12     H     0.42276  0.42276  0.00000  0.15448
      13     H     0.41917  0.41917  0.00000  0.16165
      14     H     0.42036  0.42036  0.00000  0.15929
      15     H     0.41912  0.41912  0.00000  0.16176
      16     H     0.41701  0.41701  0.00000  0.16599
      17     H     0.39681  0.39681  0.00000  0.20638
      18     H     0.41062  0.41062  0.00000  0.17876
      19     H     0.40591  0.40591  0.00000  0.18817

   Total alpha = 28.00000, Total beta = 28.00000, Total charge =  0.00000
