                              Psi4 1.0.54 Driver

  ==> Input File <==

--------------------------------------------------------------------------
set {
	reference rhf
	basis cc-pvtz
}

set_num_threads( 4 )
memory 2 gb

molecule MOL {
0 1

H	 -2.465033	 0.142296	 0.857195
O	 -2.313989	 -0.142475	 -0.025864
C	 -0.943808	 -0.065018	 -0.330000
H	 -0.812293	 -0.225641	 -1.398673
C	 -0.231030	 -1.182113	 0.407592
C	 -0.353797	 1.300461	 0.050970
H	 -0.312800	 -0.992012	 1.473041
H	 -0.738841	 -2.119564	 0.220514
C	 1.246176	 -1.268044	 -0.015480
H	 -0.539537	 2.008579	 -0.751815
H	 -0.889989	 1.662858	 0.920677
C	 1.153605	 1.231851	 0.356834
H	 1.823096	 -1.684665	 0.802361
H	 1.352335	 -1.958223	 -0.845114
C	 1.826409	 0.100723	 -0.416008
H	 1.622968	 2.181508	 0.128734
H	 1.301983	 1.066493	 1.419367
H	 2.897299	 0.112407	 -0.249665
H	 1.683458	 0.265621	 -1.480024

	symmetry c1
}
set optking {
	frozen_dihedral = ("
		1 2 3 4
	")
}

ee,wfn = optimize('scf', return_wfn=True)
oeprop( wfn, 'DIPOLE', 'QUADRUPOLE', 'MULLIKEN_CHARGES')
f=open( 'psi4out.xyz', 'w' )
f.write( "19  " )
f.write( str(ee) + "\n" )
f.write( MOL.save_string_xyz() )
f.close()
--------------------------------------------------------------------------

    Molecular point group: c1
  Charge       = 0
  Multiplicity = 1
  Basis Set: CC-PVTZ
  Basis Set:
  @DF-RHF Final Energy:  -309.16139090711005
    Total Energy =                       -309.1613909071098760
    Molecular point group: c1
  Basis Set: CC-PVTZ
  Basis Set:
  Basis Set: CC-PVTZ
  Basis Set:
  @DF-RHF Final Energy:  -309.16289298825723
    Total Energy =                       -309.1628929882574539
  Basis Set: CC-PVTZ
  Basis Set:
  Basis Set: CC-PVTZ
  Basis Set:
  @DF-RHF Final Energy:  -309.16318581650546
    Total Energy =                       -309.1631858165053472
  Basis Set: CC-PVTZ
  Basis Set:
  Basis Set: CC-PVTZ
  Basis Set:
  @DF-RHF Final Energy:  -309.16318994284302
    Total Energy =                       -309.1631899428430756
  Basis Set: CC-PVTZ
  Basis Set:
  Charge       = 0
  Multiplicity = 1
  Basis Set: CC-PVTZ
  Basis Set:

    Orbital Energies (a.u.)
    -----------------------

    Doubly Occupied:

       1A    -20.542806     2A    -11.267331     3A    -11.216854
       4A    -11.215942     5A    -11.215101     6A    -11.214703
       7A    -11.210263     8A     -1.363375     9A     -1.111521
      10A     -1.005273    11A     -0.989717    12A     -0.847594
      13A     -0.841889    14A     -0.753287    15A     -0.674971
      16A     -0.664861    17A     -0.617239    18A     -0.602057
      19A     -0.580437    20A     -0.563585    21A     -0.532154
      22A     -0.521490    23A     -0.502528    24A     -0.492580
      25A     -0.467342    26A     -0.450811    27A     -0.432194
      28A     -0.409555

  @DF-RHF Final Energy:  -309.16319042142021

   => Energetics <=

    Nuclear Repulsion Energy =            331.8311439528319511
    One-Electron Energy =               -1077.3737511323506624
    Two-Electron Energy =                 436.3794167580988415
    DFT Exchange-Correlation Energy =       0.0000000000000000
    Empirical Dispersion Energy =           0.0000000000000000
    PCM Polarization Energy =               0.0000000000000000
    EFP Energy =                            0.0000000000000000
    Total Energy =                       -309.1631904214198130
    Molecular point group: c1
  Basis Set: CC-PVTZ
  Basis Set:

  -Total Gradient:
     Atom            X                  Y                   Z
    ------   -----------------  -----------------  -----------------
       1       -0.000032317324     0.000756489235    -0.000284738780
       2        0.000050299853    -0.000833493839     0.000309561728
       3        0.000025491413    -0.000617246683     0.000114547136
       4       -0.000020472432     0.000662905265    -0.000104586426
       5       -0.000028664152    -0.000007132656    -0.000025298452
       6        0.000038943552    -0.000009820298     0.000015604774
       7        0.000002434006    -0.000003082401    -0.000019328314
       8        0.000001179413    -0.000011150807     0.000009072071
       9       -0.000020914870    -0.000010825332     0.000048504892
      10        0.000013559665     0.000023724528    -0.000007043934
      11        0.000011727525    -0.000005744933    -0.000008504383
      12       -0.000014036404     0.000033911025    -0.000029153023
      13        0.000011814918    -0.000024297689    -0.000000291712
      14       -0.000012297174     0.000004024203     0.000000666996
      15       -0.000011620727     0.000022229331    -0.000028006671
      16        0.000000740380     0.000014141790     0.000014541462
      17       -0.000011215574     0.000000829551    -0.000000974922
      18       -0.000013432167    -0.000003200763     0.000002453799
      19        0.000008780092     0.000007740473    -0.000007026242

  **** Optimization is complete! (in 5 steps) ****
    Final optimized geometry and variables:
    Molecular point group: c1

    Geometry (in Angstrom), charge = 0, multiplicity = 1:

    H           -2.530676407605     0.188495317755     0.790441907989
    O           -2.337347392844    -0.102770806987    -0.082560947425
    C           -0.950623161073    -0.071512773873    -0.301740159468
    H           -0.843385863890    -0.242947517548    -1.366086732683
    C           -0.220014428872    -1.180575185399     0.440537372126
    C           -0.351995575400     1.298362290371     0.044221584005
    H           -0.275035070270    -0.979754385474     1.508403070028
    H           -0.730268939877    -2.121082972499     0.275854681643
    C            1.250612092457    -1.272191133115    -0.007011762614
    H           -0.570323289485     1.991925935761    -0.759654584801
    H           -0.857150331776     1.684641349480     0.925681177657
    C            1.163110463236     1.234913086433     0.311123317525
    H            1.846945851733    -1.663814648204     0.809356955556
    H            1.342357418908    -1.984119275610    -0.819609900784
    C            1.814576162853     0.087897887406    -0.456496745930
    H            1.625435453908     2.179657258220     0.050864985486
    H            1.342986212708     1.090987793757     1.372261752502
    H            2.889943526109     0.104923746443    -0.323119687470
    H            1.638674517833     0.228432379408    -1.518840570863

  Mulliken Charges: (a.u.)
   Center  Symbol    Alpha    Beta     Spin     Total
       1     H     0.39588  0.39588  0.00000  0.20823
       2     O     4.20681  4.20681  0.00000 -0.41363
       3     C     2.93659  2.93659  0.00000  0.12682
       4     H     0.44171  0.44171  0.00000  0.11658
       5     C     3.10325  3.10325  0.00000 -0.20651
       6     C     3.11365  3.11365  0.00000 -0.22730
       7     H     0.46104  0.46104  0.00000  0.07792
       8     H     0.43980  0.43980  0.00000  0.12040
       9     C     3.11271  3.11271  0.00000 -0.22542
      10     H     0.44506  0.44506  0.00000  0.10989
      11     H     0.45571  0.45571  0.00000  0.08859
      12     C     3.10015  3.10015  0.00000 -0.20031
      13     H     0.44770  0.44770  0.00000  0.10460
      14     H     0.44602  0.44602  0.00000  0.10797
      15     C     3.10225  3.10225  0.00000 -0.20449
      16     H     0.44170  0.44170  0.00000  0.11660
      17     H     0.45428  0.45428  0.00000  0.09144
      18     H     0.44264  0.44264  0.00000  0.11472
      19     H     0.45304  0.45304  0.00000  0.09391

   Total alpha = 28.00000, Total beta = 28.00000, Total charge =  0.00000

*** Psi4 exiting successfully. Buy a developer a beer!
