  ==> Input File <==

--------------------------------------------------------------------------
set {
	reference rhf
	basis 6-31G*
}

set_num_threads( 4 )
memory 2 gb

molecule MOL {
0 1

H	 -3.301617	 0.570527	 0.000000
C	 -2.250981	 0.344174	 0.000000
C	 -1.813665	 -0.976045	 0.000000
C	 -1.315303	 1.358057	 0.000000
H	 -2.528860	 -1.779366	 0.000000
C	 -0.467298	 -1.270142	 0.000000
H	 -1.635074	 2.385107	 0.000000
C	 0.047081	 1.078114	 0.000000
H	 -0.115948	 -2.285222	 0.000000
C	 0.472063	 -0.241155	 0.000000
H	 0.749976	 1.888426	 0.000000
O	 1.765256	 -0.628444	 0.000000
C	 2.163435	 -1.718308	 0.780207
H	 1.982488	 -1.539064	 1.834940
H	 3.224586	 -1.834293	 0.617986
H	 1.656088	 -2.628941	 0.479078

	symmetry c1
}
set optking {
	frozen_dihedral = ("
		13 12 10 8
	")
}

ee = optimize('scf')
oeprop('DIPOLE', 'QUADRUPOLE', 'MULLIKEN_CHARGES')
f=open( 'psi4out.xyz', 'w' )
f.write( "16  " )
f.write( str(ee) + "\n" )
f.write( MOL.save_string_xyz() )
f.close()
--------------------------------------------------------------------------

    Molecular point group: c1
  Charge       = 0
  Multiplicity = 1
  Basis Set: 6-31G*
  Basis Set:
  @DF-RHF Final Energy:  -344.57378891495779
    Total Energy =                       -344.5737889149580155
    Molecular point group: c1
  Basis Set: 6-31G*
  Basis Set:
  Basis Set: 6-31G*
  Basis Set:
  @DF-RHF Final Energy:  -344.57808657869521
    Total Energy =                       -344.5780865786950926
  Basis Set: 6-31G*
  Basis Set:
  Basis Set: 6-31G*
  Basis Set:
  @DF-RHF Final Energy:  -344.58060217589957
    Total Energy =                       -344.5806021758995144
  Basis Set: 6-31G*
  Basis Set:
  Basis Set: 6-31G*
  Basis Set:
  @DF-RHF Final Energy:  -344.58085393867975
    Total Energy =                       -344.5808539386796951
  Basis Set: 6-31G*
  Basis Set:
  Basis Set: 6-31G*
  Basis Set:
  @DF-RHF Final Energy:  -344.58087189431001
    Total Energy =                       -344.5808718943101212
  Basis Set: 6-31G*
  Basis Set:
  Charge       = 0
  Multiplicity = 1
  Basis Set: 6-31G*
  Basis Set:

    Orbital Energies (a.u.)
    -----------------------

    Doubly Occupied:

       1A    -20.578223     2A    -11.290383     3A    -11.277956
       4A    -11.233401     5A    -11.231941     6A    -11.225195
       7A    -11.222260     8A    -11.220960     9A     -1.406815
      10A     -1.146557    11A     -1.019602    12A     -1.013543
      13A     -0.938018    14A     -0.832019    15A     -0.805373
      16A     -0.717651    17A     -0.665294    18A     -0.661549
      19A     -0.647906    20A     -0.614874    21A     -0.590102
      22A     -0.580306    23A     -0.527973    24A     -0.512751
      25A     -0.505933    26A     -0.480608    27A     -0.449347
      28A     -0.334773    29A     -0.310881

  @DF-RHF Final Energy:  -344.58087439262999

   => Energetics <=

    Nuclear Repulsion Energy =            347.9856936521150601
    One-Electron Energy =               -1157.0487562826988324
    Two-Electron Energy =                 464.4821882379540057
    DFT Exchange-Correlation Energy =       0.0000000000000000
    Empirical Dispersion Energy =           0.0000000000000000
    PCM Polarization Energy =               0.0000000000000000
    EFP Energy =                            0.0000000000000000
    Total Energy =                       -344.5808743926297666
    Molecular point group: c1
  Basis Set: 6-31G*
  Basis Set:

  -Total Gradient:
     Atom            X                  Y                   Z
    ------   -----------------  -----------------  -----------------
       1       -0.000009130747    -0.000025826630     0.000006125026
       2        0.000085170894     0.000246020357    -0.000043180884
       3        0.000169925626    -0.000193197931     0.000024862358
       4       -0.000197138543    -0.000073978289     0.000038755873
       5       -0.000015119055     0.000011331598     0.000000128106
       6       -0.000213058115    -0.000081375126     0.000032587266
       7        0.000031025782     0.000004495030    -0.000006837659
       8        0.000158994233    -0.000173930991     0.001577831181
       9        0.000030151471    -0.000015029694     0.000003739029
      10        0.000033709005     0.000813788000    -0.001806241767
      11        0.000004846785     0.000018888782    -0.000007726128
      12       -0.000288625687    -0.001530363642    -0.001026585615
      13        0.000191242345     0.000998679358     0.001283353321
      14        0.000028413517    -0.000005716346    -0.000018164578
      15        0.000021204450     0.000018480106     0.000001923288
      16       -0.000031611959    -0.000012264582    -0.000060568819

  **** Optimization is complete! (in 6 steps) ****
    Final optimized geometry and variables:
    Molecular point group: c1

    Geometry (in Angstrom), charge = 0, multiplicity = 1:

    H           -3.199598167717     0.962630055818    -0.102686531714
    C           -2.160562921571     0.687298808340    -0.105125954851
    C           -1.790010357440    -0.645530778382    -0.091311620913
    C           -1.175088604509     1.663885578228    -0.120675833994
    H           -2.543460460306    -1.413083213884    -0.080758081871
    C           -0.451671254410    -1.010492233895    -0.095981166710
    H           -1.448242509967     2.704148391572    -0.127590054556
    C            0.161871593753     1.312551860549    -0.117195443313
    H           -0.180299000000    -2.049572966226    -0.096592772622
    C            0.526384272004    -0.027145150128    -0.112367768434
    H            0.935827791607     2.057449592595    -0.123857044923
    O            1.853571372304    -0.303468390876    -0.137464335082
    C            2.334291761759    -1.356522670466     0.654258760195
    H            1.920329140747    -1.313536554861     1.655849196244
    H            3.407167875909    -1.238909468616     0.702542227349
    H            2.110145943757    -2.323264089881     0.216621029335

  Mulliken Charges: (a.u.)
   Center  Symbol    Alpha    Beta     Spin     Total
       1     H     0.40066  0.40066  0.00000  0.19867
       2     C     3.10946  3.10946  0.00000 -0.21893
       3     C     3.09348  3.09348  0.00000 -0.18696
       4     C     3.09396  3.09396  0.00000 -0.18793
       5     H     0.39911  0.39911  0.00000  0.20177
       6     C     3.13391  3.13391  0.00000 -0.26781
       7     H     0.39857  0.39857  0.00000  0.20286
       8     C     3.12407  3.12407  0.00000 -0.24813
       9     H     0.39725  0.39725  0.00000  0.20550
      10     C     2.78948  2.78948  0.00000  0.42103
      11     H     0.39306  0.39306  0.00000  0.21389
      12     O     4.32988  4.32988  0.00000 -0.65975
      13     C     3.08774  3.08774  0.00000 -0.17548
      14     H     0.41942  0.41942  0.00000  0.16116
      15     H     0.40747  0.40747  0.00000  0.18506
      16     H     0.42247  0.42247  0.00000  0.15505

   Total alpha = 29.00000, Total beta = 29.00000, Total charge =  0.00000
