  ==> Input File <==

--------------------------------------------------------------------------
set {
	reference rhf
	basis 6-31G*
}

set_num_threads( 4 )
memory 2 gb

molecule MOL {
0 1

H	 2.694096	 -0.591518	 -1.007991
O	 1.920007	 -0.972041	 -0.604538
C	 0.951741	 -0.056743	 -0.622498
C	 -0.318135	 -0.576402	 0.000164
O	 1.113519	 1.025921	 -1.083653
C	 -1.454360	 0.441875	 -0.000474
H	 -0.597052	 -1.478799	 -0.537320
H	 -0.076405	 -0.896767	 1.010083
C	 -2.826123	 -0.230780	 0.000056
H	 -1.357605	 1.085198	 -0.868380
H	 -1.357504	 1.086451	 0.866496
H	 -2.959731	 -0.858053	 -0.876869
H	 -3.619374	 0.509403	 -0.000080
H	 -2.959371	 -0.857318	 0.877556

	symmetry c1
}
set optking {
	frozen_dihedral = ("
		7 4 6 10
	")
}

ee = optimize('scf')
oeprop('DIPOLE', 'QUADRUPOLE', 'MULLIKEN_CHARGES')
f=open( 'psi4out.xyz', 'w' )
f.write( "14  " )
f.write( str(ee) + "\n" )
f.write( MOL.save_string_xyz() )
f.close()
--------------------------------------------------------------------------

    Molecular point group: c1
  Charge       = 0
  Multiplicity = 1
  Basis Set: 6-31G*
  Basis Set:
  @DF-RHF Final Energy:  -305.87869946630741
    Total Energy =                       -305.8786994663075802
    Molecular point group: c1
  Basis Set: 6-31G*
  Basis Set:
  Basis Set: 6-31G*
  Basis Set:
  @DF-RHF Final Energy:  -305.87891359328228
    Total Energy =                       -305.8789135932825047
  Basis Set: 6-31G*
  Basis Set:
  Basis Set: 6-31G*
  Basis Set:
  @DF-RHF Final Energy:  -305.87888223513460
    Total Energy =                       -305.8788822351345971
  Basis Set: 6-31G*
  Basis Set:
  Basis Set: 6-31G*
  Basis Set:
  @DF-RHF Final Energy:  -305.87895431384300
    Total Energy =                       -305.8789543138431668
  Basis Set: 6-31G*
  Basis Set:
  Basis Set: 6-31G*
  Basis Set:
  @DF-RHF Final Energy:  -305.87896408571771
    Total Energy =                       -305.8789640857178256
  Basis Set: 6-31G*
  Basis Set:
  Basis Set: 6-31G*
  Basis Set:
  @DF-RHF Final Energy:  -305.87896519839722
    Total Energy =                       -305.8789651983975659
  Basis Set: 6-31G*
  Basis Set:
  Charge       = 0
  Multiplicity = 1
  Basis Set: 6-31G*
  Basis Set:

    Orbital Energies (a.u.)
    -----------------------

    Doubly Occupied:

       1A    -20.613353     2A    -20.552667     3A    -11.382474
       4A    -11.241122     5A    -11.224852     6A    -11.217225
       7A     -1.475609     8A     -1.366639     9A     -1.081826
      10A     -0.980046    11A     -0.857861    12A     -0.791424
      13A     -0.700626    14A     -0.691051    15A     -0.663975
      16A     -0.614412    17A     -0.594981    18A     -0.572267
      19A     -0.547116    20A     -0.504234    21A     -0.491770
      22A     -0.479660    23A     -0.478574    24A     -0.445981

  @DF-RHF Final Energy:  -305.87896535241782

   => Energetics <=

    Nuclear Repulsion Energy =            239.8724003487725156
    One-Electron Energy =                -892.3632455568790647
    Two-Electron Energy =                 346.6118798556885849
    DFT Exchange-Correlation Energy =       0.0000000000000000
    Empirical Dispersion Energy =           0.0000000000000000
    PCM Polarization Energy =               0.0000000000000000
    EFP Energy =                            0.0000000000000000
    Total Energy =                       -305.8789653524179357
    Molecular point group: c1
  Basis Set: 6-31G*
  Basis Set:

  -Total Gradient:
     Atom            X                  Y                   Z
    ------   -----------------  -----------------  -----------------
       1       -0.000021005121     0.000010138244     0.000003401356
       2       -0.000006929831    -0.000029206013     0.000023624272
       3        0.000026461502     0.000004247924    -0.000036060910
       4        0.002133125124     0.002396957278    -0.003481279700
       5       -0.000011481722     0.000019910237     0.000004344679
       6       -0.002892058019    -0.003241277491    -0.001592539715
       7       -0.001286025850    -0.001473088510     0.003135733674
       8       -0.000001128604    -0.000004645548    -0.000009137131
       9       -0.000002103557    -0.000003749092     0.000013274053
      10        0.002065606491     0.002317579823     0.001942363777
      11       -0.000003476056     0.000004446158    -0.000002224657
      12       -0.000001789801     0.000002752139    -0.000004336862
      13        0.000004475502     0.000000428137     0.000003387549
      14       -0.000003670060    -0.000004493285    -0.000000550383

  **** Optimization is complete! (in 7 steps) ****
    Final optimized geometry and variables:
    Molecular point group: c1

    Geometry (in Angstrom), charge = 0, multiplicity = 1:

    H            2.776176667276    -0.518854500309    -0.556705078279
    O            1.989760434501    -0.899924237161    -0.178474205375
    C            1.023363175456     0.016282596820    -0.224040076494
    C           -0.262989430087    -0.507297325606     0.358783826067
    O            1.201749313988     1.100470409691    -0.675367194093
    C           -1.409115581470     0.506729273608     0.363217110492
    H           -0.532651252111    -1.413498320921    -0.176975098517
    H           -0.039074179124    -0.843940400399     1.367628743203
    C           -2.781087142012    -0.160916786906     0.417815669796
    H           -1.323788629239     1.152579229611    -0.502171486989
    H           -1.291446676648     1.163114556077     1.220682233949
    H           -2.953604561252    -0.777093870853    -0.459998912290
    H           -3.571113431691     0.581391361501     0.461688190672
    H           -2.877687610530    -0.797613124547     1.292939781644

  Mulliken Charges: (a.u.)
   Center  Symbol    Alpha    Beta     Spin     Total
       1     H     0.26761  0.26761  0.00000  0.46477
       2     O     4.35030  4.35030  0.00000 -0.70060
       3     C     2.62510  2.62510  0.00000  0.74979
       4     C     3.21167  3.21167  0.00000 -0.42334
       5     O     4.27875  4.27875  0.00000 -0.55749
       6     C     3.15565  3.15565  0.00000 -0.31129
       7     H     0.39801  0.39801  0.00000  0.20398
       8     H     0.39747  0.39747  0.00000  0.20506
       9     C     3.24325  3.24325  0.00000 -0.48649
      10     H     0.40115  0.40115  0.00000  0.19770
      11     H     0.41519  0.41519  0.00000  0.16962
      12     H     0.41990  0.41990  0.00000  0.16019
      13     H     0.41486  0.41486  0.00000  0.17027
      14     H     0.42109  0.42109  0.00000  0.15783

   Total alpha = 24.00000, Total beta = 24.00000, Total charge =  0.00000
