                              Psi4 1.0.54 Driver

  ==> Input File <==

--------------------------------------------------------------------------
set {
	reference rhf
	basis cc-pvtz
}

set_num_threads( 4 )
memory 2 gb

molecule MOL {
0 1

H	 2.614283	 2.028610	 0.296620
O	 3.358864	 1.662087	 -0.142800
C	 3.565468	 0.338079	 0.273842
C	 2.533667	 -0.637565	 -0.272227
H	 4.548038	 0.064914	 -0.086598
H	 3.593945	 0.282242	 1.360360
C	 1.114816	 -0.402372	 0.240993
H	 2.544552	 -0.580764	 -1.356576
H	 2.850574	 -1.642962	 -0.005497
C	 0.234280	 -1.646720	 0.135673
H	 0.661333	 0.409493	 -0.317783
H	 1.156386	 -0.081897	 1.280635
C	 -1.177264	 -1.489622	 0.704108
H	 0.169698	 -1.951105	 -0.906156
H	 0.725921	 -2.462490	 0.658431
C	 -2.078879	 -0.523076	 -0.061804
H	 -1.650682	 -2.467507	 0.716061
H	 -1.112273	 -1.174035	 1.743019
C	 -3.503943	 -0.476180	 0.483544
H	 -2.106710	 -0.813870	 -1.109723
H	 -1.660847	 0.478691	 -0.035065
C	 -4.405824	 0.490670	 -0.276524
H	 -3.934544	 -1.473129	 0.448145
H	 -3.477298	 -0.194026	 1.532706
H	 -4.479028	 0.216440	 -1.323747
H	 -5.409109	 0.497525	 0.133937
H	 -4.022266	 1.504520	 -0.228120

	symmetry c1
}
set optking {
	frozen_dihedral = ("
		10 7 4 8
	")
}

ee,wfn = optimize('scf', return_wfn=True)
oeprop( wfn, 'DIPOLE', 'QUADRUPOLE', 'MULLIKEN_CHARGES')
f=open( 'psi4out.xyz', 'w' )
f.write( "27  " )
f.write( str(ee) + "\n" )
f.write( MOL.save_string_xyz() )
f.close()
--------------------------------------------------------------------------

    Molecular point group: c1
  Charge       = 0
  Multiplicity = 1
  Basis Set: CC-PVTZ
  Basis Set:
  @DF-RHF Final Energy:  -388.42634958455739
    Total Energy =                       -388.4263495845574425
    Molecular point group: c1
  Basis Set: CC-PVTZ
  Basis Set:
  Basis Set: CC-PVTZ
  Basis Set:
  @DF-RHF Final Energy:  -388.42641879688028
    Total Energy =                       -388.4264187968799433
  Basis Set: CC-PVTZ
  Basis Set:
  Basis Set: CC-PVTZ
  Basis Set:
  @DF-RHF Final Energy:  -388.42657777562039
    Total Energy =                       -388.4265777756201032
  Basis Set: CC-PVTZ
  Basis Set:
  Basis Set: CC-PVTZ
  Basis Set:
  @DF-RHF Final Energy:  -388.42657167259432
    Total Energy =                       -388.4265716725935818
  Basis Set: CC-PVTZ
  Basis Set:
  Basis Set: CC-PVTZ
  Basis Set:
  @DF-RHF Final Energy:  -388.42658419136853
    Total Energy =                       -388.4265841913679651
  Basis Set: CC-PVTZ
  Basis Set:
  Charge       = 0
  Multiplicity = 1
  Basis Set: CC-PVTZ
  Basis Set:

    Orbital Energies (a.u.)
    -----------------------

    Doubly Occupied:

       1A    -20.545191     2A    -11.264661     3A    -11.217228
       4A    -11.215390     5A    -11.213989     6A    -11.213549
       7A    -11.213382     8A    -11.211968     9A    -11.207260
      10A     -1.363062    11A     -1.096249    12A     -1.062388
      13A     -1.012556    14A     -0.949434    15A     -0.888680
      16A     -0.821172    17A     -0.801501    18A     -0.779002
      19A     -0.697097    20A     -0.650230    21A     -0.636419
      22A     -0.618675    23A     -0.604597    24A     -0.584233
      25A     -0.579039    26A     -0.554357    27A     -0.542312
      28A     -0.530133    29A     -0.506455    30A     -0.497261
      31A     -0.486128    32A     -0.475060    33A     -0.469571
      34A     -0.461424    35A     -0.450011    36A     -0.442996
      37A     -0.425731

  @DF-RHF Final Energy:  -388.42658495962888

   => Energetics <=

    Nuclear Repulsion Energy =            459.7147540330036577
    One-Electron Energy =               -1437.7059009635588609
    Two-Electron Energy =                 589.5645619709268885
    DFT Exchange-Correlation Energy =       0.0000000000000000
    Empirical Dispersion Energy =           0.0000000000000000
    PCM Polarization Energy =               0.0000000000000000
    EFP Energy =                            0.0000000000000000
    Total Energy =                       -388.4265849596283715
    Molecular point group: c1
  Basis Set: CC-PVTZ
  Basis Set:

  -Total Gradient:
     Atom            X                  Y                   Z
    ------   -----------------  -----------------  -----------------
       1       -0.000017355457     0.000029915912     0.000011009229
       2       -0.000007137528     0.000044928459    -0.000045729083
       3        0.000010338276    -0.000017099286     0.000050008028
       4       -0.000472838760    -0.004190266686     0.000440985105
       5        0.000028654448    -0.000016294452    -0.000012664354
       6        0.000008975587    -0.000018619124     0.000028532079
       7       -0.000856078991     0.001736269386    -0.002820257826
       8        0.000606466090     0.003156359640     0.000258707874
       9       -0.000016903841     0.000003533272    -0.000003743802
      10        0.000717204929    -0.000734125527     0.002095370327
      11       -0.000014384862    -0.000000104845    -0.000026769466
      12        0.000013007781     0.000009179389     0.000029518723
      13       -0.000011403405     0.000001625424    -0.000019450084
      14       -0.000005823252    -0.000012104420     0.000000434308
      15        0.000002840960     0.000007103432     0.000003940619
      16        0.000011116855    -0.000003338673     0.000013576069
      17       -0.000008057619     0.000002972589     0.000000688590
      18        0.000005968836     0.000001423394     0.000000137957
      19       -0.000008990088    -0.000005877880    -0.000004329737
      20        0.000004995462     0.000000925458    -0.000001785253
      21        0.000013520189     0.000007186190    -0.000000247112
      22        0.000002269522    -0.000001884622     0.000001917348
      23       -0.000003760691    -0.000006854616     0.000002092655
      24        0.000001209211     0.000002007490     0.000002216093
      25       -0.000001806568    -0.000001475755    -0.000005500492
      26       -0.000003575153     0.000000665075     0.000002069076
      27        0.000001548075     0.000003950769    -0.000000726870

  **** Optimization is complete! (in 6 steps) ****
    Final optimized geometry and variables:
    Molecular point group: c1

    Geometry (in Angstrom), charge = 0, multiplicity = 1:

    H            2.544341451542     2.235496853412     0.239892276994
    O            3.298966286344     1.925629621748    -0.225785102171
    C            3.570503940086     0.593945645288     0.124127600749
    C            2.538200728995    -0.389313264699    -0.408281861481
    H            4.540950314151     0.369168914447    -0.297668438612
    H            3.656863412216     0.495942583038     1.204610537505
    C            1.131261746187    -0.169004821046     0.153941784115
    H            2.519190627396    -0.290255206992    -1.489140182005
    H            2.878539830479    -1.393988743750    -0.173980603645
    C            0.237677554984    -1.402354477530     0.027348059327
    H            0.674612701449     0.679446814399    -0.342344697638
    H            1.202837755071     0.089812321385     1.209935502860
    C           -1.175182815082    -1.236619919792     0.589773333469
    H            0.174943476930    -1.697275371430    -1.017783587236
    H            0.720550258335    -2.226319735484     0.544469279830
    C           -2.070576554351    -0.272335487496    -0.186144460008
    H           -1.652572309844    -2.212431795517     0.606497917243
    H           -1.112672469495    -0.914569786583     1.626928611444
    C           -3.494579555890    -0.208284360757     0.360113643317
    H           -2.101968042075    -0.576010182948    -1.230208298717
    H           -1.645142562147     0.726477113457    -0.172740130109
    C           -4.390684195827     0.754364768571    -0.411921065429
    H           -3.932119816482    -1.202610822204     0.338810661619
    H           -3.464693194628     0.087928701467     1.405265484821
    H           -4.468104779915     0.465742005506    -1.454937803810
    H           -5.393018925809     0.774661778463     0.000320990640
    H           -3.999367025977     1.765815999618    -0.378842855664

  Mulliken Charges: (a.u.)
   Center  Symbol    Alpha    Beta     Spin     Total
       1     H     0.39178  0.39178  0.00000  0.21645
       2     O     4.20651  4.20651  0.00000 -0.41303
       3     C     2.97753  2.97753  0.00000  0.04493
       4     C     3.08895  3.08895  0.00000 -0.17791
       5     H     0.44969  0.44969  0.00000  0.10063
       6     H     0.47109  0.47109  0.00000  0.05783
       7     C     3.10613  3.10613  0.00000 -0.21227
       8     H     0.45020  0.45020  0.00000  0.09961
       9     H     0.45534  0.45534  0.00000  0.08933
      10     C     3.10026  3.10026  0.00000 -0.20051
      11     H     0.44853  0.44853  0.00000  0.10294
      12     H     0.45587  0.45587  0.00000  0.08826
      13     C     3.09850  3.09850  0.00000 -0.19700
      14     H     0.45186  0.45186  0.00000  0.09628
      15     H     0.44791  0.44791  0.00000  0.10418
      16     C     3.08762  3.08762  0.00000 -0.17525
      17     H     0.44783  0.44783  0.00000  0.10434
      18     H     0.45416  0.45416  0.00000  0.09168
      19     C     3.08412  3.08412  0.00000 -0.16824
      20     H     0.45437  0.45437  0.00000  0.09126
      21     H     0.45474  0.45474  0.00000  0.09052
      22     C     3.14960  3.14960  0.00000 -0.29921
      23     H     0.45387  0.45387  0.00000  0.09226
      24     H     0.45474  0.45474  0.00000  0.09053
      25     H     0.45493  0.45493  0.00000  0.09015
      26     H     0.44832  0.44832  0.00000  0.10336
      27     H     0.45556  0.45556  0.00000  0.08888

   Total alpha = 37.00000, Total beta = 37.00000, Total charge = -0.00000

*** Psi4 exiting successfully. Buy a developer a beer!
