  ==> Input File <==

--------------------------------------------------------------------------
set {
	reference rhf
	basis 6-31G*
}

set_num_threads( 1 )
memory 2 gb

molecule MOL {
0 1

O	 3.830938	 -0.480687	 2.389658
C	 3.024291	 -0.718328	 1.549475
C	 1.526379	 -0.692605	 1.734916
O	 3.347903	 -1.046386	 0.304773
C	 1.103751	 -0.307257	 3.150899
H	 1.125262	 -0.011997	 0.991230
H	 1.151002	 -1.677541	 1.469040
C	 -0.409184	 -0.378370	 3.384279
H	 1.463557	 0.692939	 3.372860
H	 1.602730	 -0.967203	 3.852265
C	 -1.233219	 0.639163	 2.590112
H	 -0.594040	 -0.223193	 4.444690
H	 -0.763690	 -1.383497	 3.160547
C	 -2.722297	 0.601514	 2.939725
H	 -0.844909	 1.638942	 2.778467
H	 -1.118624	 0.462966	 1.522969
C	 -3.556398	 1.610560	 2.148376
H	 -2.846685	 0.790377	 4.004663
H	 -3.108738	 -0.400828	 2.761761
C	 -5.041645	 1.569174	 2.506186
H	 -3.170952	 2.612624	 2.324279
H	 -3.436793	 1.420639	 1.083761
H	 -5.606077	 2.295142	 1.929130
H	 -5.197676	 1.789805	 3.558409
H	 -5.465313	 0.588435	 2.308879
C	 4.728119	 -1.109107	 -0.004993
H	 4.882018	 -1.033965	 -1.071845
H	 5.068212	 -2.067527	 0.355250
H	 5.265056	 -0.311663	 0.488280

	symmetry c1
}
set optking {
	frozen_dihedral = ("
		21 17 14 11,
		17 14 11 15,
		15 11 8 5,
		6 3 5 9,
		11 8 5 9,
		1 2 4 26,
		6 3 2 1
	")
}

ee = energy('scf')
oeprop('DIPOLE', 'QUADRUPOLE', 'MULLIKEN_CHARGES')
f=open( 'psi4out.xyz', 'w' )
f.write( "29  " )
f.write( str(ee) + "\n" )
f.write( MOL.save_string_xyz() )
f.close()
--------------------------------------------------------------------------

    Molecular point group: c1

    Geometry (in Angstrom), charge = 0, multiplicity = 1:

       Center              X                  Y                   Z               Mass
    ------------   -----------------  -----------------  -----------------  -----------------
           O          3.374504646682    -0.445266669083     0.348767997197    15.994914619560
           C          2.567857646682    -0.682907669083    -0.491415002803    12.000000000000
           C          1.069945646682    -0.657184669083    -0.305974002803    12.000000000000
           O          2.891469646682    -1.010965669083    -1.736117002803    15.994914619560
           C          0.647317646682    -0.271836669083     1.110008997197    12.000000000000
           H          0.668828646682     0.023423330917    -1.049660002803     1.007825032070
           H          0.694568646682    -1.642120669083    -0.571850002803     1.007825032070
           C         -0.865617353318    -0.342949669083     1.343388997197    12.000000000000
           H          1.007123646682     0.728359330917     1.331969997197     1.007825032070
           H          1.146296646682    -0.931782669083     1.811374997197     1.007825032070
           C         -1.689652353318     0.674583330917     0.549221997197    12.000000000000
           H         -1.050473353318    -0.187772669083     2.403799997197     1.007825032070
           H         -1.220123353318    -1.348076669083     1.119656997197     1.007825032070
           C         -3.178730353318     0.636934330917     0.898834997197    12.000000000000
           H         -1.301342353318     1.674362330917     0.737576997197     1.007825032070
           H         -1.575057353318     0.498386330917    -0.517921002803     1.007825032070
           C         -4.012831353318     1.645980330917     0.107485997197    12.000000000000
           H         -3.303118353318     0.825797330917     1.963772997197     1.007825032070
           H         -3.565171353318    -0.365407669083     0.720870997197     1.007825032070
           C         -5.498078353318     1.604594330917     0.465295997197    12.000000000000
           H         -3.627385353318     2.648044330917     0.283388997197     1.007825032070
           H         -3.893226353318     1.456059330917    -0.957129002803     1.007825032070
           H         -6.062510353318     2.330562330917    -0.111760002803     1.007825032070
           H         -5.654109353318     1.825225330917     1.517518997197     1.007825032070
           H         -5.921746353318     0.623855330917     0.267988997197     1.007825032070
           C          4.271685646682    -1.073686669083    -2.045883002803    12.000000000000
           H          4.425584646682    -0.998544669083    -3.112735002803     1.007825032070
           H          4.611778646682    -2.032106669083    -1.685640002803     1.007825032070
           H          4.808622646682    -0.276242669083    -1.552610002803     1.007825032070

  Charge       = 0
  Multiplicity = 1
  Basis Set: 6-31G*
  Basis Set:

    Orbital Energies (a.u.)
    -----------------------

    Doubly Occupied:

       1A    -20.602531     2A    -20.544751     3A    -11.372589
       4A    -11.279480     5A    -11.234865     6A    -11.219145
       7A    -11.217661     8A    -11.216004     9A    -11.215857
      10A    -11.214472    11A    -11.209055    12A     -1.468957
      13A     -1.362325    14A     -1.098107    15A     -1.066836
      16A     -1.019410    17A     -0.976788    18A     -0.928341
      19A     -0.861564    20A     -0.799192    21A     -0.790422
      22A     -0.762843    23A     -0.701062    24A     -0.683847
      25A     -0.672056    26A     -0.651199    27A     -0.629405
      28A     -0.605367    29A     -0.595616    30A     -0.580956
      31A     -0.567250    32A     -0.549248    33A     -0.532930
      34A     -0.526999    35A     -0.514853    36A     -0.511422
      37A     -0.496529    38A     -0.477852    39A     -0.470152
      40A     -0.462408    41A     -0.458973    42A     -0.453838
      43A     -0.441479    44A     -0.435535

  @DF-RHF Final Energy:  -501.04203270701828

   => Energetics <=

    Nuclear Repulsion Energy =            610.2836663281871097
    One-Electron Energy =               -1891.6910615679023522
    Two-Electron Energy =                 780.3653625326944621
    DFT Exchange-Correlation Energy =       0.0000000000000000
    Empirical Dispersion Energy =           0.0000000000000000
    PCM Polarization Energy =               0.0000000000000000
    EFP Energy =                            0.0000000000000000
    Total Energy =                       -501.0420327070207804

  Mulliken Charges: (a.u.)
   Center  Symbol    Alpha    Beta     Spin     Total
       1     O     4.28609  4.28609  0.00000 -0.57218
       2     C     2.60465  2.60465  0.00000  0.79069
       3     C     3.20979  3.20979  0.00000 -0.41959
       4     O     4.30816  4.30816  0.00000 -0.61632
       5     C     3.15384  3.15384  0.00000 -0.30768
       6     H     0.39870  0.39870  0.00000  0.20260
       7     H     0.40119  0.40119  0.00000  0.19762
       8     C     3.15663  3.15663  0.00000 -0.31325
       9     H     0.41309  0.41309  0.00000  0.17382
      10     H     0.40871  0.40871  0.00000  0.18258
      11     C     3.15508  3.15508  0.00000 -0.31015
      12     H     0.41821  0.41821  0.00000  0.16357
      13     H     0.42385  0.42385  0.00000  0.15229
      14     C     3.15030  3.15030  0.00000 -0.30060
      15     H     0.42261  0.42261  0.00000  0.15477
      16     H     0.42359  0.42359  0.00000  0.15282
      17     C     3.15146  3.15146  0.00000 -0.30292
      18     H     0.42332  0.42332  0.00000  0.15336
      19     H     0.42397  0.42397  0.00000  0.15207
      20     C     3.23935  3.23935  0.00000 -0.47870
      21     H     0.42280  0.42280  0.00000  0.15439
      22     H     0.42342  0.42342  0.00000  0.15315
      23     H     0.41923  0.41923  0.00000  0.16154
      24     H     0.42155  0.42155  0.00000  0.15691
      25     H     0.42182  0.42182  0.00000  0.15635
      26     C     3.09558  3.09558  0.00000 -0.19116
      27     H     0.40845  0.40845  0.00000  0.18310
      28     H     0.41262  0.41262  0.00000  0.17475
      29     H     0.40192  0.40192  0.00000  0.19615

   Total alpha = 44.00000, Total beta = 44.00000, Total charge =  0.00000
