  ==> Input File <==

--------------------------------------------------------------------------
set {
	reference rhf
	basis cc-pvtz
}

set_num_threads( 4 )
memory 2 gb

molecule MOL {
0 1

H	 -1.666894	 -1.802829	 -0.268802
C	 -1.356192	 -1.204880	 -1.119427
O	 -0.775228	 0.000056	 -0.739966
H	 -2.236248	 -0.958302	 -1.696360
H	 -0.700810	 -1.804234	 -1.743031
C	 0.406133	 -0.000384	 0.036994
C	 1.526415	 -0.003194	 -0.997339
C	 0.498772	 1.259027	 0.900673
C	 0.495883	 -1.257378	 0.904465
H	 1.452279	 0.872071	 -1.630204
H	 1.451276	 -0.881020	 -1.626529
H	 2.497919	 -0.002741	 -0.517601
H	 0.368981	 2.144239	 0.289753
H	 1.470064	 1.313479	 1.377660
H	 -0.248448	 1.271586	 1.684297
H	 0.363971	 -2.144195	 0.296316
H	 1.467114	 -1.312636	 1.381470
H	 -0.251246	 -1.265768	 1.688235

	symmetry c1
}
set optking {
	frozen_dihedral = ("
		2 3 6 7
	")
}

ee = optimize('scf')
oeprop('DIPOLE', 'QUADRUPOLE', 'MULLIKEN_CHARGES')
f=open( 'psi4out.xyz', 'w' )
f.write( "18  " )
f.write( str(ee) + "\n" )
f.write( MOL.save_string_xyz() )
f.close()
--------------------------------------------------------------------------

    Molecular point group: c1
  Charge       = 0
  Multiplicity = 1
  Basis Set: CC-PVTZ
  Basis Set:
  @DF-RHF Final Energy:  -271.26990217219611
    Total Energy =                       -271.2699021721962254
    Molecular point group: c1
  Basis Set: CC-PVTZ
  Basis Set:
  Basis Set: CC-PVTZ
  Basis Set:
  @DF-RHF Final Energy:  -271.27326324660066
    Total Energy =                       -271.2732632466005498
  Basis Set: CC-PVTZ
  Basis Set:
  Basis Set: CC-PVTZ
  Basis Set:
  @DF-RHF Final Energy:  -271.27519654735914
    Total Energy =                       -271.2751965473591440
  Basis Set: CC-PVTZ
  Basis Set:
  Basis Set: CC-PVTZ
  Basis Set:
  @DF-RHF Final Energy:  -271.27526838655319
    Total Energy =                       -271.2752683865529093
  Basis Set: CC-PVTZ
  Basis Set:
  Basis Set: CC-PVTZ
  Basis Set:
  @DF-RHF Final Energy:  -271.27526250000210
    Total Energy =                       -271.2752625000020998
  Basis Set: CC-PVTZ
  Basis Set:
  Basis Set: CC-PVTZ
  Basis Set:
  @DF-RHF Final Energy:  -271.27528406943878
    Total Energy =                       -271.2752840694387260
  Basis Set: CC-PVTZ
  Basis Set:
  Charge       = 0
  Multiplicity = 1
  Basis Set: CC-PVTZ
  Basis Set:

    Orbital Energies (a.u.)
    -----------------------

    Doubly Occupied:

       1A    -20.539449     2A    -11.280231     3A    -11.258999
       4A    -11.210628     5A    -11.204113     6A    -11.201599
       7A     -1.372346     8A     -1.074955     9A     -0.950270
      10A     -0.937374    11A     -0.912606    12A     -0.753047
      13A     -0.657312    14A     -0.647767    15A     -0.639591
      16A     -0.588837    17A     -0.575250    18A     -0.552210
      19A     -0.537006    20A     -0.526320    21A     -0.515300
      22A     -0.491109    23A     -0.486103    24A     -0.442874
      25A     -0.403237

  @DF-RHF Final Energy:  -271.27528410761937

   => Energetics <=

    Nuclear Repulsion Energy =            272.5310522088223593
    One-Electron Energy =                -908.0956058918955023
    Two-Electron Energy =                 364.2892695754536021
    DFT Exchange-Correlation Energy =       0.0000000000000000
    Empirical Dispersion Energy =           0.0000000000000000
    PCM Polarization Energy =               0.0000000000000000
    EFP Energy =                            0.0000000000000000
    Total Energy =                       -271.2752841076195978
    Molecular point group: c1
  Basis Set: CC-PVTZ
  Basis Set:

  -Total Gradient:
     Atom            X                  Y                   Z
    ------   -----------------  -----------------  -----------------
       1        0.000008017708     0.000004334275     0.000020082337
       2       -0.001526995190    -0.000092263104     0.002728566440
       3        0.002381487949     0.001061792594    -0.003979466092
       4       -0.000005243478     0.000008479139    -0.000003149723
       5        0.000008036214     0.000003023537     0.000000475841
       6       -0.000819372242    -0.003553507129     0.001162039792
       7        0.000073943296     0.002597500188     0.000140069735
       8       -0.000050419267     0.000010056564    -0.000048644047
       9       -0.000032081255    -0.000038467273    -0.000006537355
      10       -0.000000760995    -0.000004194924    -0.000007083665
      11       -0.000000719027    -0.000003692182     0.000004125504
      12       -0.000002256032     0.000005894810     0.000001163934
      13       -0.000021982754     0.000044130879     0.000020468130
      14        0.000003359573    -0.000006474719    -0.000035460482
      15        0.000015433740    -0.000025728588    -0.000002069763
      16        0.000000541519    -0.000005227513     0.000014677363
      17       -0.000015115204     0.000008997298    -0.000021087676
      18       -0.000015874557    -0.000014653853     0.000011829730

  **** Optimization is complete! (in 7 steps) ****
    Final optimized geometry and variables:
    Molecular point group: c1

    Geometry (in Angstrom), charge = 0, multiplicity = 1:

    H           -1.910858142515    -1.519883498151    -0.086297011522
    C           -1.549553551891    -0.926904215966    -0.919447076431
    O           -0.914152977718     0.237789436661    -0.505100941577
    H           -2.399844242051    -0.623664770357    -1.513897270913
    H           -0.912103012358    -1.553112676541    -1.538378012711
    C            0.319630920252     0.171679067580     0.188419325926
    C            1.455472960944     0.209144974159    -0.834722069688
    C            0.349406427286     1.439287802526     1.037563601338
    C            0.435636168984    -1.055298658853     1.092026168372
    H            1.367314614267     1.094563231072    -1.451016810835
    H            1.426454775832    -0.658291380593    -1.484630023822
    H            2.422027504139     0.224085022474    -0.344007423796
    H            0.204058960014     2.309112137852     0.409867780550
    H            1.297279780231     1.540237353883     1.553463984828
    H           -0.444815881491     1.419010459803     1.773506772535
    H            0.465304806203    -1.979602915391     0.529106167216
    H            1.352172445039    -0.992396581948     1.665283725708
    H           -0.391677300224    -1.103957169491     1.789770924381

  Mulliken Charges: (a.u.)
   Center  Symbol    Alpha    Beta     Spin     Total
       1     H     0.46696  0.46696  0.00000  0.06608
       2     C     3.04339  3.04339  0.00000 -0.08679
       3     O     4.19425  4.19425  0.00000 -0.38850
       4     H     0.44235  0.44235  0.00000  0.11529
       5     H     0.47029  0.47029  0.00000  0.05942
       6     C     2.87371  2.87371  0.00000  0.25259
       7     C     3.14985  3.14985  0.00000 -0.29969
       8     C     3.14111  3.14111  0.00000 -0.28222
       9     C     3.17364  3.17364  0.00000 -0.34729
      10     H     0.44794  0.44794  0.00000  0.10412
      11     H     0.45041  0.45041  0.00000  0.09919
      12     H     0.45357  0.45357  0.00000  0.09286
      13     H     0.44755  0.44755  0.00000  0.10490
      14     H     0.45941  0.45941  0.00000  0.08118
      15     H     0.45148  0.45148  0.00000  0.09704
      16     H     0.44507  0.44507  0.00000  0.10986
      17     H     0.44403  0.44403  0.00000  0.11193
      18     H     0.44499  0.44499  0.00000  0.11002

   Total alpha = 25.00000, Total beta = 25.00000, Total charge = -0.00000
