                              Psi4 1.0.54 Driver

  ==> Input File <==

--------------------------------------------------------------------------
set {
	reference rhf
	basis cc-pvtz
}

set_num_threads( 4 )
memory 2 gb

molecule MOL {
0 1

O	 1.847685	 1.294399	 -0.000190
C	 1.704209	 0.119472	 -0.000093
C	 0.380337	 -0.600947	 -0.000234
O	 2.715427	 -0.733672	 0.000025
C	 -0.824290	 0.329213	 -0.000115
H	 0.371455	 -1.255476	 -0.865660
H	 0.371410	 -1.255787	 0.864952
C	 -0.941807	 1.126726	 1.295332
H	 -1.725235	 -0.252936	 -0.157195
H	 -0.753177	 1.006011	 -0.844021
C	 -2.144256	 2.066001	 1.313965
H	 -1.010236	 0.442124	 2.137881
H	 -0.033815	 1.705797	 1.448513
C	 -2.262038	 2.862736	 2.608860
H	 -3.051801	 1.488567	 1.162015
H	 -2.076114	 2.751295	 0.473794
H	 -2.366493	 2.204968	 3.465403
H	 -3.124885	 3.518354	 2.589026
H	 -1.383268	 3.477984	 2.771547
C	 4.020999	 -0.192556	 0.000019
H	 4.182809	 0.412891	 -0.879449
H	 4.692590	 -1.035653	 0.000152
H	 4.182726	 0.413087	 0.879368

	symmetry c1
}
set optking {
	frozen_dihedral = ("
		9 5 3 6
	")
}

ee,wfn = optimize('scf', return_wfn=True)
oeprop( wfn, 'DIPOLE', 'QUADRUPOLE', 'MULLIKEN_CHARGES')
f=open( 'psi4out.xyz', 'w' )
f.write( "23  " )
f.write( str(ee) + "\n" )
f.write( MOL.save_string_xyz() )
f.close()
--------------------------------------------------------------------------

    Molecular point group: c1
  Charge       = 0
  Multiplicity = 1
  Basis Set: CC-PVTZ
  Basis Set:
  @DF-RHF Final Energy:  -423.12927787333564
    Total Energy =                       -423.1292778733350133
    Molecular point group: c1
  Basis Set: CC-PVTZ
  Basis Set:
  Basis Set: CC-PVTZ
  Basis Set:
  @DF-RHF Final Energy:  -423.13009432852215
    Total Energy =                       -423.1300943285220910
  Basis Set: CC-PVTZ
  Basis Set:
  Basis Set: CC-PVTZ
  Basis Set:
  @DF-RHF Final Energy:  -423.12768131750391
    Total Energy =                       -423.1276813175032885
  Basis Set: CC-PVTZ
  Basis Set:
  Basis Set: CC-PVTZ
  Basis Set:
  @DF-RHF Final Energy:  -423.13036646908284
    Total Energy =                       -423.1303664690829009
  Basis Set: CC-PVTZ
  Basis Set:
  @DF-RHF Final Energy:  -423.13045137070236
    Total Energy =                       -423.1304513707020760
  Basis Set: CC-PVTZ
  Basis Set:
  @DF-RHF Final Energy:  -423.13048466300745
    Total Energy =                       -423.1304846630068823
  Basis Set: CC-PVTZ
  Basis Set:
  Basis Set: CC-PVTZ
  Basis Set:
  @DF-RHF Final Energy:  -423.13050772312067
    Total Energy =                       -423.1305077231211271
  Basis Set: CC-PVTZ
  Basis Set:
  Basis Set: CC-PVTZ
  Basis Set:
  @DF-RHF Final Energy:  -423.13050887927784
    Total Energy =                       -423.1305088792777269
  Basis Set: CC-PVTZ
  Basis Set:
  Charge       = 0
  Multiplicity = 1
  Basis Set: CC-PVTZ
  Basis Set:

    Orbital Energies (a.u.)
    -----------------------

    Doubly Occupied:

       1A    -20.597382     2A    -20.534261     3A    -11.365324
       4A    -11.279009     5A    -11.234129     6A    -11.218092
       7A    -11.211347     8A    -11.209790     9A    -11.204452
      10A     -1.473100    11A     -1.366284    12A     -1.092244
      13A     -1.042621    14A     -0.987027    15A     -0.931347
      16A     -0.844078    17A     -0.794426    18A     -0.768204
      19A     -0.703423    20A     -0.684102    21A     -0.675487
      22A     -0.641723    23A     -0.613805    24A     -0.600509
      25A     -0.569435    26A     -0.559820    27A     -0.553703
      28A     -0.530890    29A     -0.524373    30A     -0.501174
      31A     -0.492398    32A     -0.467893    33A     -0.465051
      34A     -0.458514    35A     -0.452557    36A     -0.438664

  @DF-RHF Final Energy:  -423.13050945086644

   => Energetics <=

    Nuclear Repulsion Energy =            463.5640357318599740
    One-Electron Energy =               -1495.2158164433035381
    Two-Electron Energy =                 608.5212712605776915
    DFT Exchange-Correlation Energy =       0.0000000000000000
    Empirical Dispersion Energy =           0.0000000000000000
    PCM Polarization Energy =               0.0000000000000000
    EFP Energy =                            0.0000000000000000
    Total Energy =                       -423.1305094508658158
    Molecular point group: c1
  Basis Set: CC-PVTZ
  Basis Set:

  -Total Gradient:
     Atom            X                  Y                   Z
    ------   -----------------  -----------------  -----------------
       1       -0.000009833589    -0.000011103349     0.000003319716
       2        0.000059419841     0.000004295335     0.000004669267
       3       -0.000390468092    -0.000495969743     0.000511564250
       4       -0.000027659163     0.000012976978    -0.000004667254
       5        0.000140234046     0.000225456184    -0.000771173115
       6        0.000287908409     0.000382103258    -0.000299633765
       7       -0.000002137362    -0.000017412048     0.000004144745
       8        0.000006259703    -0.000006259117     0.000000218905
       9       -0.000030305452    -0.000101244985     0.000559039701
      10       -0.000004394523     0.000008918406    -0.000007921340
      11       -0.000011661108    -0.000021304222     0.000001567406
      12       -0.000002862212    -0.000000649761     0.000002641734
      13        0.000010734922     0.000002524801     0.000000770877
      14        0.000006948789     0.000008348477    -0.000003427953
      15       -0.000004288899    -0.000001963613    -0.000001545123
      16        0.000000733875    -0.000001857407     0.000001401069
      17       -0.000002383623    -0.000002164480    -0.000002420474
      18        0.000000065517     0.000004364730    -0.000000763874
      19        0.000003082378     0.000001558431     0.000005081212
      20       -0.000012791598     0.000024618212    -0.000001907606
      21       -0.000003952815    -0.000001002616    -0.000015199626
      22       -0.000008840853    -0.000017636100     0.000003899385
      23       -0.000003808184     0.000003402630     0.000010341861

  **** Optimization is complete! (in 9 steps) ****
    Final optimized geometry and variables:
    Molecular point group: c1

    Geometry (in Angstrom), charge = 0, multiplicity = 1:

    O            1.340953873873     0.558571301482    -0.962214659010
    C            1.156929637562    -0.581951098128    -0.702314575764
    C           -0.190953862978    -1.256518503935    -0.628617226512
    O            2.137975905529    -1.438465429758    -0.473472361638
    C           -1.370188346685    -0.294645897403    -0.539645189466
    H           -0.262107435688    -1.860705118616    -1.528386688553
    H           -0.178240818858    -1.952028083558     0.201596801345
    C           -1.469670693091     0.440543713162     0.795130198351
    H           -2.279636595708    -0.867209349832    -0.694512253354
    H           -1.305673072196     0.423315752559    -1.348232765781
    C           -2.667267813184     1.383593119492     0.865812256582
    H           -1.540984303453    -0.287973944191     1.600432185483
    H           -0.560485682893     1.006737187434     0.965709755217
    C           -2.774501063113     2.114291212690     2.200002948315
    H           -3.580490378007     0.821425914728     0.688720000104
    H           -2.595653263802     2.110825629465     0.062172442813
    H           -2.881202343698     1.414588089156     3.022505033723
    H           -3.632150566029     2.776994357027     2.217012217447
    H           -1.889937490602     2.712990670932     2.389308733492
    C            3.461050987702    -0.949824835989    -0.565528098415
    H            3.659819229669    -0.572033298477    -1.557529975887
    H            4.103334254032    -1.788422520353    -0.350882722706
    H            3.626343853098    -0.160092549770     0.152152597143

  Mulliken Charges: (a.u.)
   Center  Symbol    Alpha    Beta     Spin     Total
       1     O     4.20049  4.20049  0.00000 -0.40098
       2     C     2.80373  2.80373  0.00000  0.39254
       3     C     3.11031  3.11031  0.00000 -0.22062
       4     O     4.14569  4.14569  0.00000 -0.29138
       5     C     3.09136  3.09136  0.00000 -0.18272
       6     H     0.43376  0.43376  0.00000  0.13249
       7     H     0.43763  0.43763  0.00000  0.12474
       8     C     3.08925  3.08925  0.00000 -0.17851
       9     H     0.44690  0.44690  0.00000  0.10621
      10     H     0.44511  0.44511  0.00000  0.10978
      11     C     3.08555  3.08555  0.00000 -0.17110
      12     H     0.45776  0.45776  0.00000  0.08449
      13     H     0.44529  0.44529  0.00000  0.10942
      14     C     3.15006  3.15006  0.00000 -0.30012
      15     H     0.45591  0.45591  0.00000  0.08818
      16     H     0.45208  0.45208  0.00000  0.09584
      17     H     0.45630  0.45630  0.00000  0.08740
      18     H     0.44874  0.44874  0.00000  0.10251
      19     H     0.45366  0.45366  0.00000  0.09268
      20     C     3.03649  3.03649  0.00000 -0.07299
      21     H     0.45442  0.45442  0.00000  0.09116
      22     H     0.44528  0.44528  0.00000  0.10944
      23     H     0.45422  0.45422  0.00000  0.09156

   Total alpha = 36.00000, Total beta = 36.00000, Total charge =  0.00000

*** Psi4 exiting successfully. Buy a developer a beer!
