  ==> Input File <==

--------------------------------------------------------------------------
set {
	reference rhf
	basis 6-31G*
}

set_num_threads( 4 )
memory 2 gb

molecule MOL {
0 1

H	 -2.010887	 -0.298105	 -0.885017
O	 -1.422729	 -0.573567	 -0.196946
C	 -0.731407	 0.539437	 0.309156
C	 0.680193	 0.672443	 -0.251532
H	 -1.319765	 1.404033	 0.030086
H	 -0.700012	 0.506517	 1.397677
C	 1.599139	 -0.492137	 0.118598
H	 0.616402	 0.758534	 -1.332349
H	 1.107032	 1.602637	 0.117369
H	 1.239738	 -1.428634	 -0.297334
H	 2.601428	 -0.335055	 -0.265730
H	 1.674954	 -0.608418	 1.197020

	symmetry c1
}
set optking {
	frozen_dihedral = ("
		1 2 3 4
	")
}

ee = optimize('scf')
oeprop('DIPOLE', 'QUADRUPOLE', 'MULLIKEN_CHARGES')
f=open( 'psi4out.xyz', 'w' )
f.write( "12  " )
f.write( str(ee) + "\n" )
f.write( MOL.save_string_xyz() )
f.close()
--------------------------------------------------------------------------

    Molecular point group: c1
  Charge       = 0
  Multiplicity = 1
  Basis Set: 6-31G*
  Basis Set:
  @DF-RHF Final Energy:  -193.10742448992349
    Total Energy =                       -193.1074244899234884
    Molecular point group: c1
  Basis Set: 6-31G*
  Basis Set:
  Basis Set: 6-31G*
  Basis Set:
  @DF-RHF Final Energy:  -193.10871818759239
    Total Energy =                       -193.1087181875924728
  Basis Set: 6-31G*
  Basis Set:
  Basis Set: 6-31G*
  Basis Set:
  @DF-RHF Final Energy:  -193.10913091822337
    Total Energy =                       -193.1091309182233431
  Basis Set: 6-31G*
  Basis Set:
  Basis Set: 6-31G*
  Basis Set:
  @DF-RHF Final Energy:  -193.10913475511370
    Total Energy =                       -193.1091347551139279
  Basis Set: 6-31G*
  Basis Set:
  Basis Set: 6-31G*
  Basis Set:
  @DF-RHF Final Energy:  -193.10913820125785
    Total Energy =                       -193.1091382012578777
  Basis Set: 6-31G*
  Basis Set:
  Charge       = 0
  Multiplicity = 1
  Basis Set: 6-31G*
  Basis Set:

    Orbital Energies (a.u.)
    -----------------------

    Doubly Occupied:

       1A    -20.552800     2A    -11.268559     3A    -11.215244
       4A    -11.203533     5A     -1.359185     6A     -1.046382
       7A     -0.918510     8A     -0.806469     9A     -0.694003
      10A     -0.638421    11A     -0.606255    12A     -0.564869
      13A     -0.530383    14A     -0.513629    15A     -0.480737
      16A     -0.466394    17A     -0.428136

  @DF-RHF Final Energy:  -193.10913858249825

   => Energetics <=

    Nuclear Repulsion Energy =            133.0303153056822225
    One-Electron Energy =                -525.6918883731996175
    Two-Electron Energy =                 199.5524344850190914
    DFT Exchange-Correlation Energy =       0.0000000000000000
    Empirical Dispersion Energy =           0.0000000000000000
    PCM Polarization Energy =               0.0000000000000000
    EFP Energy =                            0.0000000000000000
    Total Energy =                       -193.1091385824983035
    Molecular point group: c1
  Basis Set: 6-31G*
  Basis Set:

  -Total Gradient:
     Atom            X                  Y                   Z
    ------   -----------------  -----------------  -----------------
       1       -0.001313326633     0.000245443715     0.001152582034
       2        0.001773368667    -0.000512828353    -0.001076659436
       3       -0.000834068602     0.000830505303    -0.000958373955
       4        0.000383991505    -0.000565784034     0.000907746198
       5       -0.000017681116    -0.000029561261    -0.000023712965
       6        0.000015048814     0.000025301360     0.000006128710
       7        0.000009764768     0.000008970768    -0.000006033130
       8       -0.000025924649    -0.000000186397     0.000017691849
       9        0.000029566178     0.000013142057    -0.000006347813
      10       -0.000014131540    -0.000011489535    -0.000026823829
      11       -0.000009048914    -0.000013962597     0.000008139722
      12        0.000002441524     0.000010448975     0.000005662615

  **** Optimization is complete! (in 6 steps) ****
    Final optimized geometry and variables:
    Molecular point group: c1

    Geometry (in Angstrom), charge = 0, multiplicity = 1:

    H           -1.949661297943    -0.384305787125    -0.880803789856
    O           -1.369675422311    -0.614875768966    -0.171030985109
    C           -0.724124745300     0.538307730507     0.315234007140
    C            0.691296553950     0.671845485791    -0.232454581552
    H           -1.303110325138     1.428540669972     0.082089876936
    H           -0.692389119346     0.450952272451     1.396062690387
    C            1.585078191969    -0.510909686678     0.134928919433
    H            0.642619028787     0.772920801586    -1.314643290515
    H            1.122151439922     1.595849996276     0.148633159454
    H            1.168460706537    -1.438365049984    -0.238953091737
    H            2.579752718262    -0.391695548917    -0.283232331687
    H            1.687544918323    -0.601145611784     1.213016657654

  Mulliken Charges: (a.u.)
   Center  Symbol    Alpha    Beta     Spin     Total
       1     H     0.28028  0.28028  0.00000  0.43943
       2     O     4.37065  4.37065  0.00000 -0.74131
       3     C     3.00037  3.00037  0.00000 -0.00074
       4     C     3.15738  3.15738  0.00000 -0.31475
       5     H     0.42892  0.42892  0.00000  0.14216
       6     H     0.41973  0.41973  0.00000  0.16055
       7     C     3.24158  3.24158  0.00000 -0.48315
       8     H     0.42463  0.42463  0.00000  0.15075
       9     H     0.42500  0.42500  0.00000  0.15000
      10     H     0.40734  0.40734  0.00000  0.18532
      11     H     0.42105  0.42105  0.00000  0.15790
      12     H     0.42308  0.42308  0.00000  0.15385

   Total alpha = 17.00000, Total beta = 17.00000, Total charge =  0.00000
