  ==> Input File <==

--------------------------------------------------------------------------
set {
	reference rhf
	basis 6-31G*
}

set_num_threads( 1 )
memory 2 gb

molecule MOL {
0 1

H	 2.709170	 1.682090	 -0.833594
O	 3.327559	 1.228467	 -1.387573
C	 3.557050	 -0.062568	 -0.882979
C	 2.382249	 -1.010100	 -1.099206
H	 4.427444	 -0.433619	 -1.408725
H	 3.813137	 -0.018255	 0.174960
C	 1.107857	 -0.600950	 -0.356649
H	 2.179881	 -1.070776	 -2.165382
H	 2.685184	 -2.004864	 -0.776650
C	 -0.036020	 -1.600401	 -0.550196
H	 0.793946	 0.380758	 -0.700269
H	 1.323450	 -0.506633	 0.707759
C	 -1.309753	 -1.282496	 0.241564
H	 -0.277920	 -1.666905	 -1.609398
H	 0.313988	 -2.587969	 -0.257104
C	 -2.037799	 -0.007733	 -0.193645
H	 -1.993068	 -2.123261	 0.141510
H	 -1.067045	 -1.215492	 1.301017
C	 -3.489788	 0.042957	 0.286558
H	 -2.017067	 0.064384	 -1.280144
H	 -1.513726	 0.868678	 0.179924
C	 -4.216917	 1.317354	 -0.141063
H	 -4.025645	 -0.823308	 -0.095450
H	 -3.513059	 -0.038752	 1.371301
H	 -4.239342	 1.411634	 -1.223113
H	 -5.243387	 1.322503	 0.212445
H	 -3.726170	 2.201406	 0.256408

	symmetry c1
}
set optking {
	frozen_dihedral = ("
		14 10 7 4,
		14 10 13 16,
		10 7 4 8,
		8 4 3 2,
		20 16 19 22,
		4 3 2 1
	")
}

ee = energy('scf')
oeprop('DIPOLE', 'QUADRUPOLE', 'MULLIKEN_CHARGES')
f=open( 'psi4out.xyz', 'w' )
f.write( "27  " )
f.write( str(ee) + "\n" )
f.write( MOL.save_string_xyz() )
f.close()
--------------------------------------------------------------------------

    Molecular point group: c1

    Geometry (in Angstrom), charge = 0, multiplicity = 1:

       Center              X                  Y                   Z               Mass
    ------------   -----------------  -----------------  -----------------  -----------------
           H          2.745570302705     1.861841274864    -0.367980307900     1.007825032070
           O          3.363959302705     1.408218274864    -0.921959307900    15.994914619560
           C          3.593450302705     0.117183274864    -0.417365307900    12.000000000000
           C          2.418649302705    -0.830348725136    -0.633592307900    12.000000000000
           H          4.463844302705    -0.253867725136    -0.943111307900     1.007825032070
           H          3.849537302705     0.161496274864     0.640573692100     1.007825032070
           C          1.144257302705    -0.421198725136     0.108964692100    12.000000000000
           H          2.216281302705    -0.891024725136    -1.699768307900     1.007825032070
           H          2.721584302705    -1.825112725136    -0.311036307900     1.007825032070
           C          0.000380302705    -1.420649725136    -0.084582307900    12.000000000000
           H          0.830346302705     0.560509274864    -0.234655307900     1.007825032070
           H          1.359850302705    -0.326881725136     1.173372692100     1.007825032070
           C         -1.273352697295    -1.102744725136     0.707177692100    12.000000000000
           H         -0.241519697295    -1.487153725136    -1.143784307900     1.007825032070
           H          0.350388302705    -2.408217725136     0.208509692100     1.007825032070
           C         -2.001398697295     0.172018274864     0.271968692100    12.000000000000
           H         -1.956667697295    -1.943509725136     0.607123692100     1.007825032070
           H         -1.030644697295    -1.035740725136     1.766630692100     1.007825032070
           C         -3.453387697295     0.222708274864     0.752171692100    12.000000000000
           H         -1.980666697295     0.244135274864    -0.814530307900     1.007825032070
           H         -1.477325697295     1.048429274864     0.645537692100     1.007825032070
           C         -4.180516697295     1.497105274864     0.324550692100    12.000000000000
           H         -3.989244697295    -0.643556725136     0.370163692100     1.007825032070
           H         -3.476658697295     0.140999274864     1.836914692100     1.007825032070
           H         -4.202941697295     1.591385274864    -0.757499307900     1.007825032070
           H         -5.206986697295     1.502254274864     0.678058692100     1.007825032070
           H         -3.689769697295     2.381157274864     0.722021692100     1.007825032070

  Charge       = 0
  Multiplicity = 1
  Basis Set: 6-31G*
  Basis Set:

    Orbital Energies (a.u.)
    -----------------------

    Doubly Occupied:

       1A    -20.552247     2A    -11.267042     3A    -11.219848
       4A    -11.217301     5A    -11.216183     6A    -11.215434
       7A    -11.215221     8A    -11.214213     9A    -11.209280
      10A     -1.358998    11A     -1.095215    12A     -1.061604
      13A     -1.011482    14A     -0.948499    15A     -0.887861
      16A     -0.820082    17A     -0.801977    18A     -0.777961
      19A     -0.693656    20A     -0.653611    21A     -0.634967
      22A     -0.615099    23A     -0.601091    24A     -0.584092
      25A     -0.579386    26A     -0.552755    27A     -0.539694
      28A     -0.532203    29A     -0.505530    30A     -0.493872
      31A     -0.484682    32A     -0.473575    33A     -0.470743
      34A     -0.459734    35A     -0.452848    36A     -0.441917
      37A     -0.422593

  @DF-RHF Final Energy:  -388.28107449589191

   => Energetics <=

    Nuclear Repulsion Energy =            459.3842399743390956
    One-Electron Energy =               -1436.7656097372985187
    Two-Electron Energy =                 589.1002952670701234
    DFT Exchange-Correlation Energy =       0.0000000000000000
    Empirical Dispersion Energy =           0.0000000000000000
    PCM Polarization Energy =               0.0000000000000000
    EFP Energy =                            0.0000000000000000
    Total Energy =                       -388.2810744958892428

  Mulliken Charges: (a.u.)
   Center  Symbol    Alpha    Beta     Spin     Total
       1     H     0.27990  0.27990  0.00000  0.44020
       2     O     4.37096  4.37096  0.00000 -0.74192
       3     C     2.99734  2.99734  0.00000  0.00532
       4     C     3.16109  3.16109  0.00000 -0.32219
       5     H     0.41445  0.41445  0.00000  0.17109
       6     H     0.43205  0.43205  0.00000  0.13589
       7     C     3.16315  3.16315  0.00000 -0.32630
       8     H     0.41500  0.41500  0.00000  0.17000
       9     H     0.42429  0.42429  0.00000  0.15142
      10     C     3.15246  3.15246  0.00000 -0.30493
      11     H     0.42259  0.42259  0.00000  0.15482
      12     H     0.42547  0.42547  0.00000  0.14906
      13     C     3.15395  3.15395  0.00000 -0.30789
      14     H     0.42153  0.42153  0.00000  0.15693
      15     H     0.42180  0.42180  0.00000  0.15640
      16     C     3.15233  3.15233  0.00000 -0.30467
      17     H     0.42101  0.42101  0.00000  0.15798
      18     H     0.42354  0.42354  0.00000  0.15292
      19     C     3.15189  3.15189  0.00000 -0.30377
      20     H     0.42349  0.42349  0.00000  0.15301
      21     H     0.42372  0.42372  0.00000  0.15257
      22     C     3.23934  3.23934  0.00000 -0.47868
      23     H     0.42267  0.42267  0.00000  0.15466
      24     H     0.42311  0.42311  0.00000  0.15379
      25     H     0.42142  0.42142  0.00000  0.15716
      26     H     0.41922  0.41922  0.00000  0.16156
      27     H     0.42223  0.42223  0.00000  0.15555

   Total alpha = 37.00000, Total beta = 37.00000, Total charge =  0.00000
