                              Psi4 1.0.54 Driver

  ==> Input File <==

--------------------------------------------------------------------------
set {
	reference rhf
	basis cc-pvtz
}

set_num_threads( 4 )
memory 2 gb

molecule MOL {
0 1

O	 -0.312581	 0.304769	 0.864597
C	 0.485107	 0.171416	 -0.000134
C	 1.606966	 -0.836201	 0.000174
O	 0.495593	 0.903454	 -1.100405
C	 2.988788	 -0.202529	 -0.000115
H	 1.465110	 -1.474645	 -0.864821
H	 1.465209	 -1.474077	 0.865596
H	 3.131767	 0.419673	 -0.873407
H	 3.750876	 -0.972315	 0.000098
H	 3.131883	 0.420264	 0.872742
C	 -0.507054	 1.899719	 -1.243384
C	 -0.283146	 2.593524	 -2.566633
H	 -0.437791	 2.591565	 -0.415797
H	 -1.479792	 1.430357	 -1.200910
H	 0.694076	 3.058748	 -2.597878
H	 -1.033542	 3.362420	 -2.707833
H	 -0.353919	 1.890966	 -3.387470

	symmetry c1
}
set optking {
	frozen_dihedral = ("
		4 2 3 6
	")
}

ee,wfn = optimize('scf', return_wfn=True)
oeprop( wfn, 'DIPOLE', 'QUADRUPOLE', 'MULLIKEN_CHARGES')
f=open( 'psi4out.xyz', 'w' )
f.write( "17  " )
f.write( str(ee) + "\n" )
f.write( MOL.save_string_xyz() )
f.close()
--------------------------------------------------------------------------

    Molecular point group: c1
  Charge       = 0
  Multiplicity = 1
  Basis Set: CC-PVTZ
  Basis Set:
  @DF-RHF Final Energy:  -345.03878009448562
    Total Energy =                       -345.0387800944855599
    Molecular point group: c1
  Basis Set: CC-PVTZ
  Basis Set:
  Basis Set: CC-PVTZ
  Basis Set:
  @DF-RHF Final Energy:  -345.03906552227733
    Total Energy =                       -345.0390655222774967
  Basis Set: CC-PVTZ
  Basis Set:
  Basis Set: CC-PVTZ
  Basis Set:
  @DF-RHF Final Energy:  -345.03906916219080
    Total Energy =                       -345.0390691621906853
  Basis Set: CC-PVTZ
  Basis Set:
  Basis Set: CC-PVTZ
  Basis Set:
  @DF-RHF Final Energy:  -345.03904451142739
    Total Energy =                       -345.0390445114272779
  Basis Set: CC-PVTZ
  Basis Set:
  Basis Set: CC-PVTZ
  Basis Set:
  @DF-RHF Final Energy:  -345.03907820012370
    Total Energy =                       -345.0390782001238676
  Basis Set: CC-PVTZ
  Basis Set:
  Charge       = 0
  Multiplicity = 1
  Basis Set: CC-PVTZ
  Basis Set:

    Orbital Energies (a.u.)
    -----------------------

    Doubly Occupied:

       1A    -20.594141     2A    -20.531682     3A    -11.362708
       4A    -11.282804     5A    -11.235042     6A    -11.223370
       7A    -11.220760     8A     -1.470293     9A     -1.363763
      10A     -1.073892    11A     -1.031342    12A     -0.908219
      13A     -0.857634    14A     -0.779589    15A     -0.695282
      16A     -0.682423    17A     -0.673455    18A     -0.621727
      19A     -0.593923    20A     -0.575236    21A     -0.553716
      22A     -0.544305    23A     -0.526315    24A     -0.509645
      25A     -0.505354    26A     -0.497574    27A     -0.455506
      28A     -0.434481

  @DF-RHF Final Energy:  -345.03907827342437

   => Energetics <=

    Nuclear Repulsion Energy =            317.5795480365247840
    One-Electron Energy =               -1099.6288840529527988
    Two-Electron Energy =                 437.0102577430034216
    DFT Exchange-Correlation Energy =       0.0000000000000000
    Empirical Dispersion Energy =           0.0000000000000000
    PCM Polarization Energy =               0.0000000000000000
    EFP Energy =                            0.0000000000000000
    Total Energy =                       -345.0390782734245931
    Molecular point group: c1
  Basis Set: CC-PVTZ
  Basis Set:

  -Total Gradient:
     Atom            X                  Y                   Z
    ------   -----------------  -----------------  -----------------
       1        0.000014636981     0.000006005379    -0.000038665910
       2       -0.000234259090    -0.000273925401    -0.000045828367
       3        0.000272435271     0.000276642238    -0.000154282646
       4        0.000135731381     0.000203214387     0.000103644942
       5       -0.000022988603    -0.000007160748    -0.000008943821
       6       -0.000163946509    -0.000183834876     0.000164081524
       7       -0.000000016830    -0.000007540376     0.000002095073
       8        0.000005672260     0.000005401770    -0.000003169896
       9        0.000002429928    -0.000002487474     0.000001233184
      10       -0.000003832629    -0.000003031131    -0.000000850639
      11       -0.000022388453    -0.000047195146    -0.000032752916
      12        0.000001352482     0.000021694172     0.000003648352
      13        0.000009886440    -0.000000693074     0.000005828986
      14        0.000002868760     0.000010587865     0.000003850019
      15        0.000000747773     0.000000972019    -0.000005511024
      16        0.000002051462     0.000002756695    -0.000003265031
      17       -0.000000380627    -0.000001406301     0.000008888171

  **** Optimization is complete! (in 6 steps) ****
    Final optimized geometry and variables:
    Molecular point group: c1

    Geometry (in Angstrom), charge = 0, multiplicity = 1:

    O           -0.957475532610    -0.416114471639     1.440689808147
    C           -0.151551495498    -0.540850378512     0.581781590771
    C            0.968523878551    -1.549937855889     0.599571478760
    O           -0.136758110946     0.199540100251    -0.513116647906
    C            2.354475127073    -0.904950710918     0.575815995347
    H            0.847531238747    -2.193607850962    -0.264537316715
    H            0.838225659468    -2.150093945084     1.487680513094
    H            2.502188211342    -0.326383351355    -0.325619603388
    H            3.119176563481    -1.670159922966     0.617897964552
    H            2.492620257905    -0.249691018815     1.427933034312
    C           -1.140542848382     1.195019099412    -0.653961745383
    C           -0.911332285529     1.900101202422    -1.970331002201
    H           -1.077204850586     1.880013482001     0.179702778382
    H           -2.112257717619     0.723005485673    -0.620312778041
    H            0.064211420164     2.369459512621    -1.992492334521
    H           -1.663696100136     2.667393797018    -2.109639229462
    H           -0.975069176335     1.203939463568    -2.797179066940

  Mulliken Charges: (a.u.)
   Center  Symbol    Alpha    Beta     Spin     Total
       1     O     4.19908  4.19908  0.00000 -0.39815
       2     C     2.80725  2.80725  0.00000  0.38549
       3     C     3.08427  3.08427  0.00000 -0.16854
       4     O     4.15430  4.15430  0.00000 -0.30861
       5     C     3.15001  3.15001  0.00000 -0.30003
       6     H     0.44791  0.44791  0.00000  0.10419
       7     H     0.43650  0.43650  0.00000  0.12700
       8     H     0.44619  0.44619  0.00000  0.10761
       9     H     0.44775  0.44775  0.00000  0.10451
      10     H     0.44997  0.44997  0.00000  0.10007
      11     C     2.97871  2.97871  0.00000  0.04257
      12     C     3.13369  3.13369  0.00000 -0.26737
      13     H     0.45444  0.45444  0.00000  0.09113
      14     H     0.45302  0.45302  0.00000  0.09396
      15     H     0.45148  0.45148  0.00000  0.09705
      16     H     0.45398  0.45398  0.00000  0.09204
      17     H     0.45145  0.45145  0.00000  0.09709

   Total alpha = 28.00000, Total beta = 28.00000, Total charge = -0.00000

*** Psi4 exiting successfully. Buy a developer a beer!
