  ==> Input File <==

--------------------------------------------------------------------------
set {
	reference rhf
	basis 6-31G*
}

set_num_threads( 4 )
memory 2 gb

molecule MOL {
0 1

O	 -2.439739	 -0.935931	 -0.423848
C	 -1.921153	 0.064240	 -0.045697
C	 -2.624470	 1.379923	 0.150949
O	 -0.632575	 0.154573	 0.251549
H	 -2.168117	 2.136577	 -0.476876
H	 -3.669540	 1.273223	 -0.098610
H	 -2.519365	 1.700893	 1.180846
C	 0.160891	 -1.019931	 0.106212
C	 1.589627	 -0.672828	 0.480843
H	 0.089836	 -1.367806	 -0.916050
H	 -0.238459	 -1.792301	 0.749618
C	 2.223022	 -1.642952	 1.479877
H	 1.582619	 0.330897	 0.900865
H	 2.189269	 -0.629016	 -0.424567
C	 3.650903	 -1.248702	 1.855012
H	 1.610752	 -1.682303	 2.378585
H	 2.220431	 -2.643347	 1.059685
H	 4.077919	 -1.951880	 2.562988
H	 3.680825	 -0.262424	 2.309586
H	 4.294577	 -1.228648	 0.980163

	symmetry c1
}
set optking {
	frozen_dihedral = ("
		12 9 8 10
	")
}

ee = optimize('scf')
oeprop('DIPOLE', 'QUADRUPOLE', 'MULLIKEN_CHARGES')
f=open( 'psi4out.xyz', 'w' )
f.write( "20  " )
f.write( str(ee) + "\n" )
f.write( MOL.save_string_xyz() )
f.close()
--------------------------------------------------------------------------

    Molecular point group: c1
  Charge       = 0
  Multiplicity = 1
  Basis Set: 6-31G*
  Basis Set:
  @DF-RHF Final Energy:  -383.93996206666282
    Total Energy =                       -383.9399620666629289
    Molecular point group: c1
  Basis Set: 6-31G*
  Basis Set:
  Basis Set: 6-31G*
  Basis Set:
  @DF-RHF Final Energy:  -383.94016202059515
    Total Energy =                       -383.9401620205946415
  Basis Set: 6-31G*
  Basis Set:
  Basis Set: 6-31G*
  Basis Set:
  @DF-RHF Final Energy:  -383.93909423009018
    Total Energy =                       -383.9390942300907454
  Basis Set: 6-31G*
  Basis Set:
  Basis Set: 6-31G*
  Basis Set:
  @DF-RHF Final Energy:  -383.94031754495063
    Total Energy =                       -383.9403175449503465
  Basis Set: 6-31G*
  Basis Set:
  Basis Set: 6-31G*
  Basis Set:
  @DF-RHF Final Energy:  -383.94031569555176
    Total Energy =                       -383.9403156955514760
  Basis Set: 6-31G*
  Basis Set:
  Basis Set: 6-31G*
  Basis Set:
  @DF-RHF Final Energy:  -383.94032820332450
    Total Energy =                       -383.9403282033243272
  Basis Set: 6-31G*
  Basis Set:
  Basis Set: 6-31G*
  Basis Set:
  @DF-RHF Final Energy:  -383.94033003117187
    Total Energy =                       -383.9403300311720955
  Basis Set: 6-31G*
  Basis Set:
  Charge       = 0
  Multiplicity = 1
  Basis Set: 6-31G*
  Basis Set:

    Orbital Energies (a.u.)
    -----------------------

    Doubly Occupied:

       1A    -20.600658     2A    -20.543136     3A    -11.373364
       4A    -11.282142     5A    -11.232661     6A    -11.225472
       7A    -11.224117     8A    -11.215227     9A     -1.466717
      10A     -1.360883    11A     -1.085529    12A     -1.028960
      13A     -0.979337    14A     -0.881832    15A     -0.808104
      16A     -0.778310    17A     -0.689430    18A     -0.682399
      19A     -0.667025    20A     -0.635033    21A     -0.598871
      22A     -0.592991    23A     -0.570197    24A     -0.556360
      25A     -0.544678    26A     -0.520294    27A     -0.512266
      28A     -0.482723    29A     -0.480834    30A     -0.474513
      31A     -0.448610    32A     -0.436385

  @DF-RHF Final Energy:  -383.94033007554179

   => Energetics <=

    Nuclear Repulsion Energy =            379.3802022433500838
    One-Electron Energy =               -1274.6829421478153108
    Two-Electron Energy =                 511.3624098289238304
    DFT Exchange-Correlation Energy =       0.0000000000000000
    Empirical Dispersion Energy =           0.0000000000000000
    PCM Polarization Energy =               0.0000000000000000
    EFP Energy =                            0.0000000000000000
    Total Energy =                       -383.9403300755413397
    Molecular point group: c1
  Basis Set: 6-31G*
  Basis Set:

  -Total Gradient:
     Atom            X                  Y                   Z
    ------   -----------------  -----------------  -----------------
       1        0.000007594278     0.000003987752     0.000004867318
       2       -0.000031907556    -0.000003897447    -0.000032952174
       3       -0.000001230216     0.000001201873     0.000010699219
       4        0.000041582015    -0.000043563531    -0.000010013361
       5        0.000000431580    -0.000005894400    -0.000000151189
       6        0.000000317483     0.000000758440     0.000000322244
       7       -0.000002017294     0.000006288170     0.000002442709
       8        0.000238991083    -0.002613700052     0.001550814455
       9        0.000770267360    -0.000759263379    -0.002136409402
      10       -0.000419630597     0.002401525420    -0.000766262514
      11       -0.000015805847    -0.000008173017    -0.000010391651
      12       -0.000617703298     0.001008066300     0.001388183933
      13        0.000011072061    -0.000002748394     0.000001533145
      14        0.000021891919     0.000008456094     0.000004347782
      15        0.000002865530    -0.000003081875    -0.000012603553
      16       -0.000003728088     0.000003855586     0.000002062419
      17        0.000000507698     0.000007489697     0.000003461472
      18        0.000000130982    -0.000004815789    -0.000004700466
      19       -0.000003539969    -0.000004166509     0.000005832854
      20       -0.000000089122     0.000007675059    -0.000001083235

  **** Optimization is complete! (in 8 steps) ****
    Final optimized geometry and variables:
    Molecular point group: c1

    Geometry (in Angstrom), charge = 0, multiplicity = 1:

    O           -2.429665215358    -0.462198168968    -0.902876467094
    C           -1.918845778843     0.545337254516    -0.532462833180
    C           -2.634061066088     1.856413368209    -0.346229582453
    O           -0.633260839546     0.648217084912    -0.229755217440
    H           -2.181855259159     2.612828571908    -0.977254172008
    H           -3.677318266494     1.739131911785    -0.598730954823
    H           -2.535301877543     2.184717808541     0.682022858447
    C            0.170206885855    -0.524046681754    -0.364836687588
    C            1.608534342185    -0.161025022256     0.015815995443
    H            0.092408086304    -0.862546943354    -1.388110828406
    H           -0.236876056842    -1.294059446571     0.276195582319
    C            2.234625363993    -1.147720591646     1.004707531759
    H            1.600449346195     0.828984060161     0.458996866275
    H            2.223184295397    -0.094653710170    -0.877207510015
    C            3.676489088820    -0.791018054120     1.360709212167
    H            1.631596904400    -1.173028847748     1.909291501469
    H            2.204487700526    -2.152880816663     0.588754859167
    H            4.092832480961    -1.501683904675     2.067415483519
    H            3.735935540948     0.196455179781     1.809392619683
    H            4.310203928453    -0.791491922093     0.478478170053

  Mulliken Charges: (a.u.)
   Center  Symbol    Alpha    Beta     Spin     Total
       1     O     4.28407  4.28407  0.00000 -0.56814
       2     C     2.62005  2.62005  0.00000  0.75990
       3     C     3.28148  3.28148  0.00000 -0.56295
       4     O     4.31045  4.31045  0.00000 -0.62090
       5     H     0.40070  0.40070  0.00000  0.19860
       6     H     0.39710  0.39710  0.00000  0.20580
       7     H     0.40086  0.40086  0.00000  0.19828
       8     C     3.00096  3.00096  0.00000 -0.00192
       9     C     3.16969  3.16969  0.00000 -0.33937
      10     H     0.40822  0.40822  0.00000  0.18355
      11     H     0.40787  0.40787  0.00000  0.18426
      12     C     3.15961  3.15961  0.00000 -0.31922
      13     H     0.40566  0.40566  0.00000  0.18868
      14     H     0.41598  0.41598  0.00000  0.16804
      15     C     3.24056  3.24056  0.00000 -0.48113
      16     H     0.41878  0.41878  0.00000  0.16244
      17     H     0.42057  0.42057  0.00000  0.15887
      18     H     0.41701  0.41701  0.00000  0.16599
      19     H     0.42000  0.42000  0.00000  0.16001
      20     H     0.42039  0.42039  0.00000  0.15922

   Total alpha = 32.00000, Total beta = 32.00000, Total charge =  0.00000
