                              Psi4 1.0.54 Driver

  ==> Input File <==

--------------------------------------------------------------------------
set {
	reference rhf
	basis cc-pvtz
}

set_num_threads( 4 )
memory 2 gb

molecule MOL {
0 1

O	 -3.661796	 -0.411950	 0.342034
C	 -2.664672	 0.129869	 0.003507
C	 -2.607402	 1.560214	 -0.460300
O	 -1.481217	 -0.452708	 0.001092
H	 -2.992136	 2.193227	 0.327960
H	 -1.604360	 1.860549	 -0.717876
H	 -3.257948	 1.669994	 -1.317512
C	 -0.332055	 0.384012	 -0.000250
C	 0.892252	 -0.506059	 -0.000295
H	 -0.360822	 1.020205	 -0.874146
H	 -0.359817	 1.021310	 0.872861
C	 2.188199	 0.299473	 -0.001416
H	 0.857046	 -1.152781	 -0.871031
H	 0.857910	 -1.151798	 0.871202
C	 3.437151	 -0.577593	 -0.000991
H	 2.209565	 0.950707	 -0.871712
H	 2.210062	 0.952234	 0.867721
C	 4.732399	 0.226982	 -0.000914
H	 3.417321	 -1.229122	 -0.869998
H	 3.416993	 -1.228707	 0.868337
H	 4.797903	 0.863451	 -0.876963
H	 5.598517	 -0.424436	 -0.000420
H	 4.797415	 0.864118	 0.874691

	symmetry c1
}
set optking {
	frozen_dihedral = ("
		1 2 4 8
	")
}

ee,wfn = optimize('scf', return_wfn=True)
oeprop( wfn, 'DIPOLE', 'QUADRUPOLE', 'MULLIKEN_CHARGES')
f=open( 'psi4out.xyz', 'w' )
f.write( "23  " )
f.write( str(ee) + "\n" )
f.write( MOL.save_string_xyz() )
f.close()
--------------------------------------------------------------------------

    Molecular point group: c1
  Charge       = 0
  Multiplicity = 1
  Basis Set: CC-PVTZ
  Basis Set:
  @DF-RHF Final Energy:  -423.10281231594644
    Total Energy =                       -423.1028123159464940
    Molecular point group: c1
  Basis Set: CC-PVTZ
  Basis Set:
  Basis Set: CC-PVTZ
  Basis Set:
  @DF-RHF Final Energy:  -423.05241961208168
    Total Energy =                       -423.0524196120816214
  Basis Set: CC-PVTZ
  Basis Set:
  Basis Set: CC-PVTZ
  Basis Set:
  @DF-RHF Final Energy:  -423.11077475926839
    Total Energy =                       -423.1107747592679971
  Basis Set: CC-PVTZ
  Basis Set:
  Basis Set: CC-PVTZ
  Basis Set:
  @DF-RHF Final Energy:  -423.11696800545224
    Total Energy =                       -423.1169680054520086
  Basis Set: CC-PVTZ
  Basis Set:
  @DF-RHF Final Energy:  -423.11884457330189
    Total Energy =                       -423.1188445733017716
  @DF-RHF Final Energy:  -423.06293537986664
    Total Energy =                       -423.0629353798663033
  @DF-RHF Final Energy:  -423.11617245030789
    Total Energy =                       -423.1161724503079995
  @DF-RHF Final Energy:  -423.11911547263378
    Total Energy =                       -423.1191154726337800
  @DF-RHF Final Energy:  -423.11856473674453
    Total Energy =                       -423.1185647367444744
  @DF-RHF Final Energy:  -423.11947610351541
    Total Energy =                       -423.1194761035146712
  @DF-RHF Final Energy:  -423.11961381903785
    Total Energy =                       -423.1196138190377951
  @DF-RHF Final Energy:  -423.11745858459597
    Total Energy =                       -423.1174585845960792
  @DF-RHF Final Energy:  -423.12041869428640
    Total Energy =                       -423.1204186942863998
  @DF-RHF Final Energy:  -423.11951491353602
    Total Energy =                       -423.1195149135360225
  @DF-RHF Final Energy:  -423.12073548652887
    Total Energy =                       -423.1207354865287016
  @DF-RHF Final Energy:  -423.12138194301315
    Total Energy =                       -423.1213819430132617
  Basis Set: CC-PVTZ
  Basis Set:
  @DF-RHF Final Energy:  -423.12147985776289
    Total Energy =                       -423.1214798577630063
  Basis Set: CC-PVTZ
  Basis Set:
  Basis Set: CC-PVTZ
  Basis Set:
  @DF-RHF Final Energy:  -423.12149512444529
    Total Energy =                       -423.1214951244451186
  Basis Set: CC-PVTZ
  Basis Set:
  Basis Set: CC-PVTZ
  Basis Set:
  @DF-RHF Final Energy:  -423.12149631695945
    Total Energy =                       -423.1214963169589964
  Basis Set: CC-PVTZ
  Basis Set:
  Charge       = 0
  Multiplicity = 1
  Basis Set: CC-PVTZ
  Basis Set:

    Orbital Energies (a.u.)
    -----------------------

    Doubly Occupied:

       1A    -20.590814     2A    -20.527806     3A    -11.367596
       4A    -11.294038     5A    -11.239550     6A    -11.227403
       7A    -11.226781     8A    -11.223101     9A    -11.214318
      10A     -1.464203    11A     -1.366713    12A     -1.098966
      13A     -1.037508    14A     -1.015796    15A     -0.944153
      16A     -0.848895    17A     -0.807997    18A     -0.779864
      19A     -0.701608    20A     -0.697195    21A     -0.662845
      22A     -0.651748    23A     -0.612374    24A     -0.596591
      25A     -0.582785    26A     -0.574368    27A     -0.569729
      28A     -0.543025    29A     -0.530999    30A     -0.506149
      31A     -0.499736    32A     -0.482750    33A     -0.476013
      34A     -0.474692    35A     -0.447911    36A     -0.432967

  @DF-RHF Final Energy:  -423.12149641720697

   => Energetics <=

    Nuclear Repulsion Energy =            450.4382102738450726
    One-Electron Energy =               -1468.4814296157555873
    Two-Electron Energy =                 594.9217229247036585
    DFT Exchange-Correlation Energy =       0.0000000000000000
    Empirical Dispersion Energy =           0.0000000000000000
    PCM Polarization Energy =               0.0000000000000000
    EFP Energy =                            0.0000000000000000
    Total Energy =                       -423.1214964172069131
    Molecular point group: c1
  Basis Set: CC-PVTZ
  Basis Set:

  -Total Gradient:
     Atom            X                  Y                   Z
    ------   -----------------  -----------------  -----------------
       1        0.000247064155     0.001510362182     0.001533855462
       2       -0.000391429124    -0.001710098558    -0.001231319129
       3       -0.000021027049    -0.000017686567     0.000041129708
       4        0.000144102208    -0.000628617070    -0.001967939395
       5        0.000027726217     0.000044979529     0.000010789132
       6        0.000010481082    -0.000020858948    -0.000055178987
       7        0.000021424964    -0.000006545994    -0.000000113551
       8       -0.000040663109     0.000812135465     0.001680914132
       9        0.000000356857     0.000010317864     0.000000165530
      10       -0.000001457872     0.000019920912    -0.000031304166
      11        0.000010495797    -0.000004985768     0.000005967771
      12       -0.000001462794    -0.000001363400     0.000005576897
      13       -0.000003063561    -0.000011679954    -0.000004968925
      14        0.000005909870    -0.000001476484     0.000010892043
      15       -0.000005544181     0.000002266378    -0.000000657757
      16       -0.000004891015     0.000000786547    -0.000007402590
      17       -0.000000165215     0.000011809396     0.000004733685
      18       -0.000003822296    -0.000002593395     0.000001832139
      19        0.000000547476    -0.000010007540    -0.000003540110
      20        0.000003646474    -0.000001326053     0.000008746744
      21       -0.000000610191     0.000000554263    -0.000008295421
      22        0.000003079132    -0.000005187680     0.000001861616
      23       -0.000000697833     0.000009294876     0.000004255176

  **** Optimization is complete! (in 20 steps) ****
    Final optimized geometry and variables:
    Molecular point group: c1

    Geometry (in Angstrom), charge = 0, multiplicity = 1:

    O           -3.590750766532    -0.572001068457     0.613595420519
    C           -2.720010888504    -0.081091434331    -0.011290310945
    C           -2.966309864345     0.972596365190    -1.063022530805
    O           -1.465746085651    -0.476164880065     0.189644529662
    H           -2.480473005894     1.904386716757    -0.803124545603
    H           -2.578005015205     0.650378414490    -2.021182026133
    H           -4.028886806024     1.131963815400    -1.136983409267
    C           -0.347609847553     0.302446449464    -0.183754784442
    C            0.898542510781    -0.438885197336     0.254197083045
    H           -0.335544596922     0.457721393375    -1.256082992689
    H           -0.399132152022     1.271577897356     0.299817277011
    C            2.176391417189     0.317680223941    -0.095598663233
    H            0.901893177484    -1.416520340350    -0.215773989234
    H            0.842923279717    -0.606376289546     1.324068271601
    C            3.441478064763    -0.416321216394     0.340385107020
    H            2.216259047250     0.489297997720    -1.168854023719
    H            2.156641566779     1.300373459352     0.369944473917
    C            4.719857603331     0.338055134884    -0.008086596249
    H            3.463412540897    -1.397926095172    -0.124168320637
    H            3.403960060960    -0.587467077404     1.412296522161
    H            4.803114027578     0.494674122109    -1.078445702969
    H            5.597543645866    -0.209512054965     0.314624719661
    H            4.743209507187     1.311475415139     0.470432883444

  Mulliken Charges: (a.u.)
   Center  Symbol    Alpha    Beta     Spin     Total
       1     O     4.18043  4.18043  0.00000 -0.36086
       2     C     2.82163  2.82163  0.00000  0.35675
       3     C     3.16782  3.16782  0.00000 -0.33564
       4     O     4.12825  4.12825  0.00000 -0.25651
       5     H     0.44747  0.44747  0.00000  0.10505
       6     H     0.44465  0.44465  0.00000  0.11071
       7     H     0.42605  0.42605  0.00000  0.14791
       8     C     2.98485  2.98485  0.00000  0.03030
       9     C     3.08151  3.08151  0.00000 -0.16302
      10     H     0.46171  0.46171  0.00000  0.07658
      11     H     0.45984  0.45984  0.00000  0.08032
      12     C     3.09929  3.09929  0.00000 -0.19857
      13     H     0.44699  0.44699  0.00000  0.10602
      14     H     0.44502  0.44502  0.00000  0.10997
      15     C     3.08590  3.08590  0.00000 -0.17181
      16     H     0.45462  0.45462  0.00000  0.09077
      17     H     0.45398  0.45398  0.00000  0.09204
      18     C     3.14942  3.14942  0.00000 -0.29883
      19     H     0.45227  0.45227  0.00000  0.09546
      20     H     0.45179  0.45179  0.00000  0.09643
      21     H     0.45503  0.45503  0.00000  0.08993
      22     H     0.44671  0.44671  0.00000  0.10659
      23     H     0.45478  0.45478  0.00000  0.09043

   Total alpha = 36.00000, Total beta = 36.00000, Total charge =  0.00000

*** Psi4 exiting successfully. Buy a developer a beer!
