  ==> Input File <==

--------------------------------------------------------------------------
set {
	reference rhf
	basis 6-31G*
}

set_num_threads( 1 )
memory 2 gb

molecule MOL {
0 1

H	 -0.000158	 1.970498	 0.756846
O	 -0.000074	 1.880206	 -0.189275
C	 -0.000015	 0.544847	 -0.545111
C	 -1.278788	 -0.123820	 -0.051541
C	 1.278802	 -0.123718	 -0.051505
H	 -0.000001	 0.490777	 -1.623619
F	 -2.075353	 -0.361844	 -1.071528
F	 -1.041544	 -1.267243	 0.555631
F	 -1.926607	 0.664448	 0.791407
F	 2.323327	 0.466644	 -0.591854
F	 1.326242	 -1.401483	 -0.363667
F	 1.388946	 -0.015632	 1.262939

	symmetry c1
}
set optking {
	frozen_dihedral = ("
		6 3 2 1
	")
}

ee = energy('scf')
oeprop('DIPOLE', 'QUADRUPOLE', 'MULLIKEN_CHARGES')
f=open( 'psi4out.xyz', 'w' )
f.write( "12  " )
f.write( str(ee) + "\n" )
f.write( MOL.save_string_xyz() )
f.close()
--------------------------------------------------------------------------

    Molecular point group: c1

    Geometry (in Angstrom), charge = 0, multiplicity = 1:

       Center              X                  Y                   Z               Mass
    ------------   -----------------  -----------------  -----------------  -----------------
           H          0.000414252014     1.972057842086     0.760442263439     1.007825032070
           O          0.000498252014     1.881765842086    -0.185678736561    15.994914619560
           C          0.000557252014     0.546406842086    -0.541514736561    12.000000000000
           C         -1.278215747986    -0.122260157914    -0.047944736561    12.000000000000
           C          1.279374252014    -0.122158157914    -0.047908736561    12.000000000000
           H          0.000571252014     0.492336842086    -1.620022736561     1.007825032070
           F         -2.074780747986    -0.360284157914    -1.067931736561    18.998403224000
           F         -1.040971747986    -1.265683157914     0.559227263439    18.998403224000
           F         -1.926034747986     0.666007842086     0.795003263439    18.998403224000
           F          2.323899252014     0.468203842086    -0.588257736561    18.998403224000
           F          1.326814252014    -1.399923157914    -0.360070736561    18.998403224000
           F          1.389518252014    -0.014072157914     1.266535263439    18.998403224000

  Charge       = 0
  Multiplicity = 1
  Basis Set: 6-31G*
  Basis Set:

    Orbital Energies (a.u.)
    -----------------------

    Doubly Occupied:

       1A    -26.363089     2A    -26.362281     3A    -26.361379
       4A    -26.360140     5A    -26.359474     6A    -26.357471
       7A    -20.613670     8A    -11.526183     9A    -11.524693
      10A    -11.347269    11A     -1.765278    12A     -1.758420
      13A     -1.661766    14A     -1.658917    15A     -1.657464
      16A     -1.654542    17A     -1.433078    18A     -1.101425
      19A     -0.997331    20A     -0.937107    21A     -0.866698
      22A     -0.861009    23A     -0.851223    24A     -0.845847
      25A     -0.834799    26A     -0.813203    27A     -0.735122
      28A     -0.731690    29A     -0.726527    30A     -0.723473
      31A     -0.687886    32A     -0.686395    33A     -0.681577
      34A     -0.677290    35A     -0.668692    36A     -0.662088
      37A     -0.656869    38A     -0.648550    39A     -0.617218
      40A     -0.549850    41A     -0.505025

  @DF-RHF Final Energy:  -786.27150333666839

   => Energetics <=

    Nuclear Repulsion Energy =            671.0739091863871408
    One-Electron Energy =               -2429.0268714679259574
    Two-Electron Energy =                 971.6814589448705419
    DFT Exchange-Correlation Energy =       0.0000000000000000
    Empirical Dispersion Energy =           0.0000000000000000
    PCM Polarization Energy =               0.0000000000000000
    EFP Energy =                            0.0000000000000000
    Total Energy =                       -786.2715033366683883

  Mulliken Charges: (a.u.)
   Center  Symbol    Alpha    Beta     Spin     Total
       1     H     0.26665  0.26665  0.00000  0.46670
       2     O     4.36014  4.36014  0.00000 -0.72027
       3     C     3.07521  3.07521  0.00000 -0.15041
       4     C     2.42621  2.42621  0.00000  1.14759
       5     C     2.43791  2.43791  0.00000  1.12419
       6     H     0.37010  0.37010  0.00000  0.25981
       7     F     4.67733  4.67733  0.00000 -0.35466
       8     F     4.67404  4.67404  0.00000 -0.34808
       9     F     4.67906  4.67906  0.00000 -0.35812
      10     F     4.67517  4.67517  0.00000 -0.35034
      11     F     4.67542  4.67542  0.00000 -0.35083
      12     F     4.68278  4.68278  0.00000 -0.36556

   Total alpha = 41.00000, Total beta = 41.00000, Total charge =  0.00000
