  ==> Input File <==

--------------------------------------------------------------------------
set {
	reference rhf
	basis 6-31G*
}

set_num_threads( 1 )
memory 2 gb

molecule MOL {
0 1

O	 -2.042549	 -1.228399	 -0.269030
C	 -1.653912	 -0.146171	 0.050137
C	 -0.332303	 0.024011	 0.778412
C	 -2.438579	 1.106236	 -0.272369
C	 0.845713	 -0.001731	 -0.208243
H	 -0.323783	 0.953829	 1.340327
H	 -0.235459	 -0.796807	 1.480410
C	 0.902376	 -1.294089	 -1.024105
H	 1.782013	 0.121606	 0.333249
H	 0.757362	 0.850682	 -0.875122
C	 2.067626	 -1.318642	 -2.012435
H	 0.981492	 -2.144176	 -0.349925
H	 -0.033243	 -1.417267	 -1.564486
H	 3.020604	 -1.231425	 -1.498355
H	 1.997807	 -0.498178	 -2.720535
H	 2.081046	 -2.244519	 -2.578649
H	 -3.277823	 0.863061	 -0.908988
H	 -1.806773	 1.843019	 -0.759671
H	 -2.802853	 1.554979	 0.648059

	symmetry c1
}
set optking {
	frozen_dihedral = ("
		11 8 5 9,
		5 3 2 4
	")
}

ee = energy('scf')
oeprop('DIPOLE', 'QUADRUPOLE', 'MULLIKEN_CHARGES')
f=open( 'psi4out.xyz', 'w' )
f.write( "19  " )
f.write( str(ee) + "\n" )
f.write( MOL.save_string_xyz() )
f.close()
--------------------------------------------------------------------------

    Molecular point group: c1

    Geometry (in Angstrom), charge = 0, multiplicity = 1:

       Center              X                  Y                   Z               Mass
    ------------   -----------------  -----------------  -----------------  -----------------
           O         -1.664662557452    -0.815018630281     0.171362457540    15.994914619560
           C         -1.276025557452     0.267209369719     0.490529457540    12.000000000000
           C          0.045583442548     0.437391369719     1.218804457540    12.000000000000
           C         -2.060692557452     1.519616369719     0.168023457540    12.000000000000
           C          1.223599442548     0.411649369719     0.232149457540    12.000000000000
           H          0.054103442548     1.367209369719     1.780719457540     1.007825032070
           H          0.142427442548    -0.383426630281     1.920802457540     1.007825032070
           C          1.280262442548    -0.880708630281    -0.583712542460    12.000000000000
           H          2.159899442548     0.534986369719     0.773641457540     1.007825032070
           H          1.135248442548     1.264062369719    -0.434729542460     1.007825032070
           C          2.445512442548    -0.905261630281    -1.572042542460    12.000000000000
           H          1.359378442548    -1.730795630281     0.090467457540     1.007825032070
           H          0.344643442548    -1.003886630281    -1.124093542460     1.007825032070
           H          3.398490442548    -0.818044630281    -1.057962542460     1.007825032070
           H          2.375693442548    -0.084797630281    -2.280142542460     1.007825032070
           H          2.458932442548    -1.831138630281    -2.138256542460     1.007825032070
           H         -2.899936557452     1.276441369719    -0.468595542460     1.007825032070
           H         -1.428886557452     2.256399369719    -0.319278542460     1.007825032070
           H         -2.424966557452     1.968359369719     1.088451457540     1.007825032070

  Charge       = 0
  Multiplicity = 1
  Basis Set: 6-31G*
  Basis Set:

    Orbital Energies (a.u.)
    -----------------------

    Doubly Occupied:

       1A    -20.549029     2A    -11.325900     3A    -11.230110
       4A    -11.229537     5A    -11.229468     6A    -11.211858
       7A    -11.207851     8A     -1.395872     9A     -1.088621
      10A     -1.026491    11A     -0.982045    12A     -0.886200
      13A     -0.804018    14A     -0.732578    15A     -0.661068
      16A     -0.644752    17A     -0.620813    18A     -0.606274
      19A     -0.581890    20A     -0.573957    21A     -0.552822
      22A     -0.539858    23A     -0.515443    24A     -0.492739
      25A     -0.480519    26A     -0.466262    27A     -0.458823
      28A     -0.397141

  @DF-RHF Final Energy:  -309.06225157537386

   => Energetics <=

    Nuclear Repulsion Energy =            310.2659158339792498
    One-Electron Energy =               -1033.6724781525147137
    Two-Electron Energy =                 414.3443107431608610
    DFT Exchange-Correlation Energy =       0.0000000000000000
    Empirical Dispersion Energy =           0.0000000000000000
    PCM Polarization Energy =               0.0000000000000000
    EFP Energy =                            0.0000000000000000
    Total Energy =                       -309.0622515753745461

  Mulliken Charges: (a.u.)
   Center  Symbol    Alpha    Beta     Spin     Total
       1     O     4.26097  4.26097  0.00000 -0.52195
       2     C     2.73978  2.73978  0.00000  0.52044
       3     C     3.19990  3.19990  0.00000 -0.39980
       4     C     3.28882  3.28882  0.00000 -0.57764
       5     C     3.16268  3.16268  0.00000 -0.32536
       6     H     0.41478  0.41478  0.00000  0.17044
       7     H     0.40106  0.40106  0.00000  0.19789
       8     C     3.15513  3.15513  0.00000 -0.31026
       9     H     0.41437  0.41437  0.00000  0.17126
      10     H     0.42145  0.42145  0.00000  0.15709
      11     C     3.24016  3.24016  0.00000 -0.48032
      12     H     0.41897  0.41897  0.00000  0.16207
      13     H     0.40507  0.40507  0.00000  0.18985
      14     H     0.42378  0.42378  0.00000  0.15245
      15     H     0.42348  0.42348  0.00000  0.15305
      16     H     0.41687  0.41687  0.00000  0.16626
      17     H     0.39710  0.39710  0.00000  0.20581
      18     H     0.40943  0.40943  0.00000  0.18115
      19     H     0.40620  0.40620  0.00000  0.18759

   Total alpha = 28.00000, Total beta = 28.00000, Total charge =  0.00000
