                              Psi4 1.0.54 Driver

  ==> Input File <==

--------------------------------------------------------------------------
set {
	reference rhf
	basis cc-pvtz
}

set_num_threads( 4 )
memory 2 gb

molecule MOL {
0 1

H	 -3.268214	 -0.875720	 0.463107
C	 -2.806015	 0.000007	 0.024886
N	 -1.391133	 0.000016	 0.301321
H	 -3.029448	 0.000055	 -1.045738
H	 -3.268126	 0.875758	 0.463150
C	 -0.895506	 1.317817	 0.634981
C	 -0.620010	 -0.582589	 -0.775467
H	 -1.030211	 2.016719	 -0.195826
H	 -1.457499	 1.700566	 1.478635
C	 0.576354	 1.261146	 0.998894
H	 -0.980872	 -1.587209	 -0.961498
H	 -0.735932	 -0.013234	 -1.702422
C	 0.851849	 -0.639261	 -0.411555
H	 0.937215	 2.265766	 1.184924
H	 0.692275	 0.691791	 1.925848
N	 1.347476	 0.678541	 -0.077895
H	 1.413842	 -1.022009	 -1.255209
H	 0.986555	 -1.338162	 0.419252
C	 2.762358	 0.678550	 0.198540
H	 3.103140	 1.689915	 0.381766
H	 3.305624	 0.292933	 -0.655113
H	 3.024917	 0.070566	 1.068929

	symmetry c1
}
set optking {
	frozen_dihedral = ("
		6 3 2 4
	")
}

ee,wfn = optimize('scf', return_wfn=True)
oeprop( wfn, 'DIPOLE', 'QUADRUPOLE', 'MULLIKEN_CHARGES')
f=open( 'psi4out.xyz', 'w' )
f.write( "22  " )
f.write( str(ee) + "\n" )
f.write( MOL.save_string_xyz() )
f.close()
--------------------------------------------------------------------------

    Molecular point group: c1
  Charge       = 0
  Multiplicity = 1
  Basis Set: CC-PVTZ
  Basis Set:
  @DF-RHF Final Energy:  -344.34618551827083
    Total Energy =                       -344.3461855182703175
    Molecular point group: c1
  Basis Set: CC-PVTZ
  Basis Set:
  Basis Set: CC-PVTZ
  Basis Set:
  @DF-RHF Final Energy:  -344.34669082170956
    Total Energy =                       -344.3466908217097853
  Basis Set: CC-PVTZ
  Basis Set:
  Basis Set: CC-PVTZ
  Basis Set:
  @DF-RHF Final Energy:  -344.34679048951875
    Total Energy =                       -344.3467904895186393
  Basis Set: CC-PVTZ
  Basis Set:
  Charge       = 0
  Multiplicity = 1
  Basis Set: CC-PVTZ
  Basis Set:

    Orbital Energies (a.u.)
    -----------------------

    Doubly Occupied:

       1A    -15.537375     2A    -15.534122     3A    -11.237487
       4A    -11.237433     5A    -11.236629     6A    -11.236530
       7A    -11.234208     8A    -11.234029     9A     -1.255813
      10A     -1.204231    11A     -1.026035    12A     -0.992268
      13A     -0.912660    14A     -0.868388    15A     -0.836367
      16A     -0.753918    17A     -0.666208    18A     -0.637324
      19A     -0.632398    20A     -0.626454    21A     -0.620933
      22A     -0.580613    23A     -0.551400    24A     -0.549032
      25A     -0.543294    26A     -0.518359    27A     -0.497884
      28A     -0.489398    29A     -0.467402    30A     -0.457020
      31A     -0.351257    32A     -0.341234

  @DF-RHF Final Energy:  -344.34679678507746

   => Energetics <=

    Nuclear Repulsion Energy =            421.5470998756933341
    One-Electron Energy =               -1302.0523881900257948
    Two-Electron Energy =                 536.1584915292544338
    DFT Exchange-Correlation Energy =       0.0000000000000000
    Empirical Dispersion Energy =           0.0000000000000000
    PCM Polarization Energy =               0.0000000000000000
    EFP Energy =                            0.0000000000000000
    Total Energy =                       -344.3467967850780269
    Molecular point group: c1
  Basis Set: CC-PVTZ
  Basis Set:

  -Total Gradient:
     Atom            X                  Y                   Z
    ------   -----------------  -----------------  -----------------
       1        0.000056472058    -0.000013767115     0.000013432154
       2       -0.000706824760     0.005666599620     0.001354922810
       3        0.000831325716    -0.000395628699    -0.004682782265
       4        0.000182856146    -0.004612249913    -0.000049457195
       5        0.000053421115     0.000001299827     0.000037563775
       6       -0.000533261202    -0.000593560938     0.003372331393
       7        0.000074146785     0.000039142547    -0.000103315868
       8        0.000008235596    -0.000069002168     0.000041267203
       9       -0.000005282656    -0.000058197761    -0.000021553615
      10        0.000031812373    -0.000001010859    -0.000035838984
      11       -0.000011688384     0.000036441658     0.000047513764
      12       -0.000012811862    -0.000016664652     0.000048102593
      13        0.000028318567    -0.000007521655     0.000004308176
      14        0.000072020923     0.000033247233     0.000018071435
      15       -0.000031394646     0.000009234605    -0.000025197906
      16       -0.000034709543     0.000000557180     0.000007390955
      17        0.000074487136    -0.000005368532    -0.000011884812
      18       -0.000010409740     0.000012409205    -0.000014539497
      19       -0.000033660443    -0.000024540770     0.000006575340
      20       -0.000022029117     0.000000086071    -0.000002343548
      21       -0.000008427083    -0.000003106086    -0.000006088952
      22       -0.000002596977     0.000001601199     0.000001523044

  **** Optimization is complete! (in 4 steps) ****
    Final optimized geometry and variables:
    Molecular point group: c1

    Geometry (in Angstrom), charge = 0, multiplicity = 1:

    H           -3.224524697459    -1.251422140883     0.294232275239
    C           -2.798779799956    -0.335465369116    -0.103443967698
    N           -1.374103534283    -0.294341840139     0.145579919214
    H           -3.037071074174    -0.317861893604    -1.167140208284
    H           -3.296800172060     0.495662423103     0.376487107960
    C           -0.864814899911     1.009499412258     0.504678172110
    C           -0.594461887418    -0.917040652301    -0.897100678551
    H           -0.968953598855     1.728915361445    -0.313464523540
    H           -1.430551994838     1.387090485316     1.347316768736
    C            0.599697260993     0.918212883118     0.892506889498
    H           -0.971103466364    -1.919578392537    -1.065586047008
    H           -0.682055975178    -0.370743358787    -1.841094044393
    C            0.868819604740    -0.993430421386    -0.503396653517
    H            0.980483049398     1.913857220001     1.087720811898
    H            0.686150400952     0.343716571478     1.819707953304
    N            1.377055480324     0.319810568073    -0.171102456403
    H            1.442117323019    -1.392209545722    -1.332079680754
    H            0.976669672218    -1.686319114148     0.336446483355
    C            2.787654748404     0.301940189666     0.125244223882
    H            3.139887041071     1.309662007433     0.307053811947
    H            3.337516437810    -0.096689175904    -0.718208279311
    H            3.029665734535    -0.304061578637     1.003093363571

  Mulliken Charges: (a.u.)
   Center  Symbol    Alpha    Beta     Spin     Total
       1     H     0.45066  0.45066  0.00000  0.09868
       2     C     3.09538  3.09538  0.00000 -0.19076
       3     N     3.61423  3.61423  0.00000 -0.22846
       4     H     0.46613  0.46613  0.00000  0.06774
       5     H     0.45541  0.45541  0.00000  0.08919
       6     C     3.03378  3.03378  0.00000 -0.06756
       7     C     3.03462  3.03462  0.00000 -0.06924
       8     H     0.46965  0.46965  0.00000  0.06070
       9     H     0.45407  0.45407  0.00000  0.09185
      10     C     3.03634  3.03634  0.00000 -0.07267
      11     H     0.45393  0.45393  0.00000  0.09213
      12     H     0.46832  0.46832  0.00000  0.06336
      13     C     3.03675  3.03675  0.00000 -0.07349
      14     H     0.45405  0.45405  0.00000  0.09190
      15     H     0.46868  0.46868  0.00000  0.06264
      16     N     3.61305  3.61305  0.00000 -0.22610
      17     H     0.45402  0.45402  0.00000  0.09196
      18     H     0.46851  0.46851  0.00000  0.06298
      19     C     3.09830  3.09830  0.00000 -0.19660
      20     H     0.45195  0.45195  0.00000  0.09609
      21     H     0.45196  0.45196  0.00000  0.09608
      22     H     0.47022  0.47022  0.00000  0.05957

   Total alpha = 32.00000, Total beta = 32.00000, Total charge = -0.00000

*** Psi4 exiting successfully. Buy a developer a beer!
