  ==> Input File <==

--------------------------------------------------------------------------
set {
	reference rhf
	basis 6-31G*
}

set_num_threads( 1 )
memory 2 gb

molecule MOL {
0 1

H	 2.591676	 2.013956	 0.335017
O	 3.341076	 1.666752	 -0.126416
C	 3.569581	 0.339145	 0.272707
C	 3.847065	 0.199498	 1.765433
H	 2.669478	 -0.204463	 0.015844
H	 4.385547	 -0.096663	 -0.302663
C	 5.129679	 0.895199	 2.227783
H	 2.997418	 0.599076	 2.312977
H	 3.905997	 -0.861711	 2.001504
C	 5.408339	 0.691023	 3.719587
H	 5.056216	 1.957976	 2.014537
H	 5.974438	 0.517291	 1.651668
C	 6.726283	 1.295841	 4.217141
H	 4.582776	 1.102409	 4.297560
H	 5.419982	 -0.377045	 3.926460
C	 6.789971	 2.825110	 4.175217
H	 6.885904	 0.970257	 5.242973
H	 7.551733	 0.884394	 3.638193
C	 8.079995	 3.384776	 4.778582
H	 5.935911	 3.234858	 4.712618
H	 6.701265	 3.175436	 3.149690
C	 8.148965	 4.910802	 4.732174
H	 8.169178	 3.051066	 5.810169
H	 8.934792	 2.968930	 4.249169
H	 7.324649	 5.357381	 5.281076
H	 9.073278	 5.276636	 5.168576
H	 8.099472	 5.275014	 3.709792

	symmetry c1
}
set optking {
	frozen_dihedral = ("
		14 10 7 4,
		14 10 13 16,
		10 7 4 8,
		8 4 3 2,
		10 13 16 20,
		20 16 19 22
	")
}

ee = energy('scf')
oeprop('DIPOLE', 'QUADRUPOLE', 'MULLIKEN_CHARGES')
f=open( 'psi4out.xyz', 'w' )
f.write( "27  " )
f.write( str(ee) + "\n" )
f.write( MOL.save_string_xyz() )
f.close()
--------------------------------------------------------------------------

    Molecular point group: c1

    Geometry (in Angstrom), charge = 0, multiplicity = 1:

       Center              X                  Y                   Z               Mass
    ------------   -----------------  -----------------  -----------------  -----------------
           H         -3.040364937305     0.198361776256    -2.479769118031     1.007825032070
           O         -2.290964937305    -0.148842223744    -2.941202118031    15.994914619560
           C         -2.062459937305    -1.476449223744    -2.542079118031    12.000000000000
           C         -1.784975937305    -1.616096223744    -1.049353118031    12.000000000000
           H         -2.962562937305    -2.020057223744    -2.798942118031     1.007825032070
           H         -1.246493937305    -1.912257223744    -3.117449118031     1.007825032070
           C         -0.502361937305    -0.920395223744    -0.587003118031    12.000000000000
           H         -2.634622937305    -1.216518223744    -0.501809118031     1.007825032070
           H         -1.726043937305    -2.677305223744    -0.813282118031     1.007825032070
           C         -0.223701937305    -1.124571223744     0.904800881969    12.000000000000
           H         -0.575824937305     0.142381776256    -0.800249118031     1.007825032070
           H          0.342397062695    -1.298303223744    -1.163118118031     1.007825032070
           C          1.094242062695    -0.519753223744     1.402354881969    12.000000000000
           H         -1.049264937305    -0.713185223744     1.482773881969     1.007825032070
           H         -0.212058937305    -2.192639223744     1.111673881969     1.007825032070
           C          1.157930062695     1.009515776256     1.360430881969    12.000000000000
           H          1.253863062695    -0.845337223744     2.428186881969     1.007825032070
           H          1.919692062695    -0.931200223744     0.823406881969     1.007825032070
           C          2.447954062695     1.569181776256     1.963795881969    12.000000000000
           H          0.303870062695     1.419263776256     1.897831881969     1.007825032070
           H          1.069224062695     1.359841776256     0.334903881969     1.007825032070
           C          2.516924062695     3.095207776256     1.917387881969    12.000000000000
           H          2.537137062695     1.235471776256     2.995382881969     1.007825032070
           H          3.302751062695     1.153335776256     1.434382881969     1.007825032070
           H          1.692608062695     3.541786776256     2.466289881969     1.007825032070
           H          3.441237062695     3.461041776256     2.353789881969     1.007825032070
           H          2.467431062695     3.459419776256     0.895005881969     1.007825032070

  Charge       = 0
  Multiplicity = 1
  Basis Set: 6-31G*
  Basis Set:

    Orbital Energies (a.u.)
    -----------------------

    Doubly Occupied:

       1A    -20.551401     2A    -11.268032     3A    -11.218078
       4A    -11.213420     5A    -11.212992     6A    -11.212263
       7A    -11.212077     8A    -11.210540     9A    -11.206607
      10A     -1.359251    11A     -1.091585    12A     -1.058953
      13A     -1.009748    14A     -0.945262    15A     -0.883898
      16A     -0.820800    17A     -0.800831    18A     -0.774884
      19A     -0.677015    20A     -0.652389    21A     -0.641418
      22A     -0.615405    23A     -0.605626    24A     -0.584837
      25A     -0.571010    26A     -0.557743    27A     -0.536545
      28A     -0.519411    29A     -0.511544    30A     -0.488990
      31A     -0.478317    32A     -0.472938    33A     -0.464132
      34A     -0.456685    35A     -0.453129    36A     -0.440224
      37A     -0.418492

  @DF-RHF Final Energy:  -388.28032950858324

   => Energetics <=

    Nuclear Repulsion Energy =            459.1689390872829790
    One-Electron Energy =               -1436.5055655993949131
    Two-Electron Energy =                 589.0562970035273338
    DFT Exchange-Correlation Energy =       0.0000000000000000
    Empirical Dispersion Energy =           0.0000000000000000
    PCM Polarization Energy =               0.0000000000000000
    EFP Energy =                            0.0000000000000000
    Total Energy =                       -388.2803295085846003

  Mulliken Charges: (a.u.)
   Center  Symbol    Alpha    Beta     Spin     Total
       1     H     0.28238  0.28238  0.00000  0.43524
       2     O     4.37018  4.37018  0.00000 -0.74037
       3     C     2.99429  2.99429  0.00000  0.01142
       4     C     3.16893  3.16893  0.00000 -0.33787
       5     H     0.42852  0.42852  0.00000  0.14297
       6     H     0.41624  0.41624  0.00000  0.16752
       7     C     3.15383  3.15383  0.00000 -0.30765
       8     H     0.42790  0.42790  0.00000  0.14421
       9     H     0.42234  0.42234  0.00000  0.15531
      10     C     3.15295  3.15295  0.00000 -0.30590
      11     H     0.41165  0.41165  0.00000  0.17669
      12     H     0.42392  0.42392  0.00000  0.15215
      13     C     3.15281  3.15281  0.00000 -0.30563
      14     H     0.42513  0.42513  0.00000  0.14974
      15     H     0.42352  0.42352  0.00000  0.15297
      16     C     3.15322  3.15322  0.00000 -0.30644
      17     H     0.42242  0.42242  0.00000  0.15517
      18     H     0.42375  0.42375  0.00000  0.15249
      19     C     3.15109  3.15109  0.00000 -0.30217
      20     H     0.42542  0.42542  0.00000  0.14915
      21     H     0.42024  0.42024  0.00000  0.15952
      22     C     3.23920  3.23920  0.00000 -0.47839
      23     H     0.42371  0.42371  0.00000  0.15259
      24     H     0.42303  0.42303  0.00000  0.15395
      25     H     0.42227  0.42227  0.00000  0.15546
      26     H     0.41975  0.41975  0.00000  0.16049
      27     H     0.42132  0.42132  0.00000  0.15736

   Total alpha = 37.00000, Total beta = 37.00000, Total charge = -0.00000
