  ==> Input File <==

--------------------------------------------------------------------------
set {
	reference rhf
	basis cc-pvtz
}

set_num_threads( 4 )
memory 2 gb

molecule MOL {
0 1

H	 3.062882	 -1.243848	 -0.772056
O	 2.157179	 -1.492060	 -0.811029
C	 1.356045	 -0.487588	 -0.405213
C	 1.856289	 0.737908	 0.007819
C	 -0.005763	 -0.710028	 -0.409579
H	 2.917414	 0.909479	 0.010590
C	 0.995107	 1.736699	 0.414927
H	 -0.395213	 -1.655424	 -0.728010
C	 -0.861704	 0.296439	 0.000000
H	 1.393549	 2.680779	 0.732386
C	 -0.368499	 1.522231	 0.413528
C	 -2.330689	 0.069587	 0.000000
H	 -1.040619	 2.297002	 0.729554
O	 -2.848621	 -0.993976	 0.000000
H	 -2.934306	 0.982410	 0.000000

	symmetry c1
}
set optking {
	frozen_dihedral = ("
		11 9 12 14
	")
}

ee = optimize('scf')
oeprop('DIPOLE', 'QUADRUPOLE', 'MULLIKEN_CHARGES')
f=open( 'psi4out.xyz', 'w' )
f.write( "15  " )
f.write( str(ee) + "\n" )
f.write( MOL.save_string_xyz() )
f.close()
--------------------------------------------------------------------------

    Molecular point group: c1
  Charge       = 0
  Multiplicity = 1
  Basis Set: CC-PVTZ
  Basis Set:
  @DF-RHF Final Energy:  -418.43760939479677
    Total Energy =                       -418.4376093947970503
    Molecular point group: c1
  Basis Set: CC-PVTZ
  Basis Set:
  Basis Set: CC-PVTZ
  Basis Set:
  @DF-RHF Final Energy:  -418.43649745231085
    Total Energy =                       -418.4364974523105047
  Basis Set: CC-PVTZ
  Basis Set:
  Basis Set: CC-PVTZ
  Basis Set:
  @DF-RHF Final Energy:  -418.43774612374096
    Total Energy =                       -418.4377461237413627
  Basis Set: CC-PVTZ
  Basis Set:
  Basis Set: CC-PVTZ
  Basis Set:
  @DF-RHF Final Energy:  -418.43780494796295
    Total Energy =                       -418.4378049479628316
  Basis Set: CC-PVTZ
  Basis Set:
  Charge       = 0
  Multiplicity = 1
  Basis Set: CC-PVTZ
  Basis Set:

    Orbital Energies (a.u.)
    -----------------------

    Doubly Occupied:

       1A    -20.595761     2A    -20.555269     3A    -11.327936
       4A    -11.311792     5A    -11.251153     6A    -11.250904
       7A    -11.246903     8A    -11.242658     9A    -11.237299
      10A     -1.427538    11A     -1.410885    12A     -1.174108
      13A     -1.051951    14A     -1.030689    15A     -0.902649
      16A     -0.849901    17A     -0.817262    18A     -0.740448
      19A     -0.706100    20A     -0.689575    21A     -0.645577
      22A     -0.641323    23A     -0.615168    24A     -0.608435
      25A     -0.580809    26A     -0.554800    27A     -0.545255
      28A     -0.516548    29A     -0.493034    30A     -0.426991
      31A     -0.358199    32A     -0.330558

  @DF-RHF Final Energy:  -418.43780537958247

   => Energetics <=

    Nuclear Repulsion Energy =            404.0889867676148128
    One-Electron Energy =               -1370.7786278015723838
    Two-Electron Energy =                 548.2518356543748723
    DFT Exchange-Correlation Energy =       0.0000000000000000
    Empirical Dispersion Energy =           0.0000000000000000
    PCM Polarization Energy =               0.0000000000000000
    EFP Energy =                            0.0000000000000000
    Total Energy =                       -418.4378053795826418
    Molecular point group: c1
  Basis Set: CC-PVTZ
  Basis Set:

  -Total Gradient:
     Atom            X                  Y                   Z
    ------   -----------------  -----------------  -----------------
       1       -0.000002080283     0.000007989428    -0.000022143729
       2       -0.000000811685    -0.000008655852     0.000010530498
       3        0.000023458270     0.000010561109     0.000052217293
       4        0.000002049912     0.000002320321    -0.000104537177
       5       -0.000024427570    -0.000006926836     0.000036374471
       6       -0.000001166999     0.000000108466     0.000011670580
       7       -0.000029326047    -0.000024732895     0.000091960264
       8       -0.000001599422     0.000010203471    -0.000018751973
       9       -0.000286822482     0.001339651168    -0.002161754260
      10        0.000001514732     0.000005410458    -0.000016065498
      11        0.000237765548    -0.000944092108     0.002522611124
      12       -0.000016275972    -0.000312809951    -0.003763939925
      13       -0.000000665438    -0.000000176504    -0.000007605196
      14        0.000093643782    -0.000080293192     0.003378422002
      15        0.000004743649     0.000001442922    -0.000008988475

  **** Optimization is complete! (in 5 steps) ****
    Final optimized geometry and variables:
    Molecular point group: c1

    Geometry (in Angstrom), charge = 0, multiplicity = 1:

    H            3.065256415229    -1.267269230303    -0.648785452353
    O            2.158935579250    -1.511396371988    -0.700606270274
    C            1.357975932550    -0.505780176922    -0.298397183854
    C            1.858494106285     0.716369869034     0.123987581898
    C           -0.004507125341    -0.725200431915    -0.311408611307
    H            2.920229574370     0.883754677725     0.138667675271
    C            0.996462957022     1.716303498578     0.526258286882
    H           -0.392373869184    -1.674409905951    -0.620886522372
    C           -0.861256654851     0.287868130442     0.078901635084
    H            1.394926183940     2.656087325021     0.856318718623
    C           -0.368421314872     1.510680081764     0.501115009358
    C           -2.329070637628     0.049646815028     0.111784591847
    H           -1.040949511998     2.289410935223     0.806671774474
    O           -2.835847458972    -1.018909304664     0.106497614374
    H           -2.939601910514     0.955722111814     0.178277477328

  Mulliken Charges: (a.u.)
   Center  Symbol    Alpha    Beta     Spin     Total
       1     H     0.38725  0.38725  0.00000  0.22551
       2     O     4.16978  4.16978  0.00000 -0.33956
       3     C     2.84117  2.84117  0.00000  0.31766
       4     C     3.12772  3.12772  0.00000 -0.25543
       5     C     3.11997  3.11997  0.00000 -0.23993
       6     H     0.43138  0.43138  0.00000  0.13725
       7     C     3.06263  3.06263  0.00000 -0.12526
       8     H     0.40623  0.40623  0.00000  0.18754
       9     C     2.96396  2.96396  0.00000  0.07209
      10     H     0.41937  0.41937  0.00000  0.16126
      11     C     3.11057  3.11057  0.00000 -0.22114
      12     C     2.91272  2.91272  0.00000  0.17456
      13     H     0.42352  0.42352  0.00000  0.15297
      14     O     4.16697  4.16697  0.00000 -0.33395
      15     H     0.45678  0.45678  0.00000  0.08644

   Total alpha = 32.00000, Total beta = 32.00000, Total charge = -0.00000
