  ==> Input File <==

--------------------------------------------------------------------------
set {
	reference rhf
	basis cc-pvtz
}

set_num_threads( 4 )
memory 2 gb

molecule MOL {
0 1

O	 -2.071633	 -1.227563	 -0.223463
C	 -1.652164	 -0.152425	 0.058082
C	 -0.327811	 0.006324	 0.778296
C	 -2.402515	 1.108629	 -0.298924
C	 0.843231	 -0.001575	 -0.211665
H	 -0.319484	 0.928173	 1.350354
H	 -0.227804	 -0.823091	 1.466705
C	 2.197693	 0.138030	 0.476937
H	 0.722944	 0.805202	 -0.930230
H	 0.813976	 -0.926978	 -0.776588
C	 2.552603	 1.585376	 0.800032
H	 2.198679	 -0.447246	 1.392347
H	 2.966823	 -0.289050	 -0.159916
H	 1.819245	 2.029875	 1.464592
H	 2.590415	 2.188816	 -0.100412
H	 3.520013	 1.651832	 1.283874
H	 -3.240910	 0.874416	 -0.936711
H	 -1.747554	 1.818823	 -0.790984
H	 -2.760419	 1.579708	 0.610998

	symmetry c1
}
set optking {
	frozen_dihedral = ("
		11 8 5 9
	")
}

ee = optimize('scf')
oeprop('DIPOLE', 'QUADRUPOLE', 'MULLIKEN_CHARGES')
f=open( 'psi4out.xyz', 'w' )
f.write( "19  " )
f.write( str(ee) + "\n" )
f.write( MOL.save_string_xyz() )
f.close()
--------------------------------------------------------------------------

    Molecular point group: c1
  Charge       = 0
  Multiplicity = 1
  Basis Set: CC-PVTZ
  Basis Set:
  @DF-RHF Final Energy:  -309.17471410499661
    Total Energy =                       -309.1747141049967240
    Molecular point group: c1
  Basis Set: CC-PVTZ
  Basis Set:
  Basis Set: CC-PVTZ
  Basis Set:
  @DF-RHF Final Energy:  -309.17490367359159
    Total Energy =                       -309.1749036735915297
  Basis Set: CC-PVTZ
  Basis Set:
  Basis Set: CC-PVTZ
  Basis Set:
  @DF-RHF Final Energy:  -309.17496161656919
    Total Energy =                       -309.1749616165692487
  Basis Set: CC-PVTZ
  Basis Set:
  Charge       = 0
  Multiplicity = 1
  Basis Set: CC-PVTZ
  Basis Set:

    Orbital Energies (a.u.)
    -----------------------

    Doubly Occupied:

       1A    -20.536841     2A    -11.319281     3A    -11.229153
       4A    -11.227584     5A    -11.226920     6A    -11.223470
       7A    -11.215478     8A     -1.396931     9A     -1.092648
      10A     -1.029326    11A     -0.983565    12A     -0.897895
      13A     -0.802689    14A     -0.736535    15A     -0.660943
      16A     -0.651170    17A     -0.619893    18A     -0.610804
      19A     -0.599781    20A     -0.569615    21A     -0.554220
      22A     -0.537127    23A     -0.523083    24A     -0.501189
      25A     -0.483049    26A     -0.474074    27A     -0.466809
      28A     -0.399368

  @DF-RHF Final Energy:  -309.17496092891906

   => Energetics <=

    Nuclear Repulsion Energy =            304.6753662630203507
    One-Electron Energy =               -1022.5617712413373965
    Two-Electron Energy =                 408.7114440493978123
    DFT Exchange-Correlation Energy =       0.0000000000000000
    Empirical Dispersion Energy =           0.0000000000000000
    PCM Polarization Energy =               0.0000000000000000
    EFP Energy =                            0.0000000000000000
    Total Energy =                       -309.1749609289192335
    Molecular point group: c1
  Basis Set: CC-PVTZ
  Basis Set:

  -Total Gradient:
     Atom            X                  Y                   Z
    ------   -----------------  -----------------  -----------------
       1        0.000234587068     0.000037147123    -0.000433151658
       2       -0.000706970166    -0.000036240491     0.001246197304
       3        0.000263233316     0.000065468335    -0.000447113474
       4        0.000193404701     0.000001840885    -0.000376572119
       5        0.001657535803    -0.001777968514    -0.002768493817
       6       -0.000046052039    -0.000011238252    -0.000001315405
       7       -0.000016318374    -0.000014329102    -0.000049593460
       8       -0.001347619935     0.000131632138     0.002762313255
       9       -0.001090477915     0.001435115550     0.001795791493
      10       -0.000012281430    -0.000017950188    -0.000010844450
      11        0.000826679574     0.000171593836    -0.001672410318
      12        0.000012871263    -0.000003813273    -0.000016923657
      13       -0.000005291645     0.000034396092     0.000003155334
      14       -0.000003148975     0.000004530851    -0.000008068073
      15        0.000007944528    -0.000018250723    -0.000002239453
      16        0.000002246057     0.000000093684     0.000020292401
      17       -0.000005337187     0.000017962641    -0.000017529946
      18       -0.000021690559     0.000064047173    -0.000032336970
      19        0.000056685912    -0.000084037768     0.000008843012

  **** Optimization is complete! (in 4 steps) ****
    Final optimized geometry and variables:
    Molecular point group: c1

    Geometry (in Angstrom), charge = 0, multiplicity = 1:

    O           -1.959852635519    -1.443900204294    -0.429464967924
    C           -1.534536652465    -0.373869504568    -0.137185859185
    C           -0.212959739467    -0.229903691596     0.590917939342
    C           -2.269433576448     0.895280495517    -0.498107194955
    C            0.962178027089    -0.240219860213    -0.398726532154
    H           -0.207178609958     0.684611458662     1.173189707015
    H           -0.119851307048    -1.067897167003     1.269604810574
    C            2.324318538604    -0.070773114041     0.281732813949
    H            0.823703370381     0.560025537719    -1.120839623040
    H            0.933898050773    -1.174567561671    -0.945209715714
    C            2.681805794788     1.377474540925     0.605261173630
    H            2.355847939780    -0.672021429938     1.185145146527
    H            3.089903385462    -0.471814861386    -0.374388749565
    H            1.957934034141     1.836405772169     1.269836046403
    H            2.725317329592     1.974664194121    -0.299163670574
    H            3.649969553798     1.438636013942     1.088346873486
    H           -3.100792757149     0.671204300918    -1.148633693014
    H           -1.602553246332     1.603426652093    -0.976818631570
    H           -2.636570958559     1.363730362975     0.409502141630

  Mulliken Charges: (a.u.)
   Center  Symbol    Alpha    Beta     Spin     Total
       1     O     4.17713  4.17713  0.00000 -0.35425
       2     C     2.85747  2.85747  0.00000  0.28506
       3     C     3.09971  3.09971  0.00000 -0.19943
       4     C     3.15566  3.15566  0.00000 -0.31132
       5     C     3.10499  3.10499  0.00000 -0.20997
       6     H     0.44914  0.44914  0.00000  0.10173
       7     H     0.43888  0.43888  0.00000  0.12224
       8     C     3.09119  3.09119  0.00000 -0.18237
       9     H     0.45284  0.45284  0.00000  0.09431
      10     H     0.43462  0.43462  0.00000  0.13077
      11     C     3.14937  3.14937  0.00000 -0.29875
      12     H     0.45248  0.45248  0.00000  0.09505
      13     H     0.44583  0.44583  0.00000  0.10834
      14     H     0.45600  0.45600  0.00000  0.08800
      15     H     0.45428  0.45428  0.00000  0.09145
      16     H     0.44538  0.44538  0.00000  0.10924
      17     H     0.43575  0.43575  0.00000  0.12850
      18     H     0.45085  0.45085  0.00000  0.09829
      19     H     0.44845  0.44845  0.00000  0.10310

   Total alpha = 28.00000, Total beta = 28.00000, Total charge = -0.00000
