                              Psi4 1.0.54 Driver

  ==> Input File <==

--------------------------------------------------------------------------
set {
	reference rhf
	basis cc-pvtz
}

set_num_threads( 4 )
memory 2 gb

molecule MOL {
0 1

H	 3.150236	 1.096192	 -1.013339
O	 2.226321	 0.968527	 -0.859133
C	 2.076458	 -0.067370	 -0.038225
C	 0.626018	 -0.337582	 0.258241
O	 2.999935	 -0.673584	 0.383126
C	 -0.267326	 0.883135	 0.076490
H	 0.325620	 -1.161483	 -0.378003
H	 0.574537	 -0.713685	 1.275261
C	 -1.726822	 0.642622	 0.463839
H	 -0.210803	 1.217591	 -0.953497
H	 0.129920	 1.693110	 0.675679
C	 -2.480891	 -0.340606	 -0.429852
H	 -2.243098	 1.597649	 0.438609
H	 -1.776542	 0.301208	 1.495542
C	 -3.955933	 -0.460128	 -0.060472
H	 -2.393755	 -0.020485	 -1.464726
H	 -2.024244	 -1.323637	 -0.374360
H	 -4.467673	 -1.160944	 -0.709827
H	 -4.458917	 0.497287	 -0.144505
H	 -4.076458	 -0.806900	 0.960497

	symmetry c1
}
set optking {
	frozen_dihedral = ("
		5 3 4 7
	")
}

ee,wfn = optimize('scf', return_wfn=True)
oeprop( wfn, 'DIPOLE', 'QUADRUPOLE', 'MULLIKEN_CHARGES')
f=open( 'psi4out.xyz', 'w' )
f.write( "20  " )
f.write( str(ee) + "\n" )
f.write( MOL.save_string_xyz() )
f.close()
--------------------------------------------------------------------------

    Molecular point group: c1
  Charge       = 0
  Multiplicity = 1
  Basis Set: CC-PVTZ
  Basis Set:
  @DF-RHF Final Energy:  -384.09162527022960
    Total Energy =                       -384.0916252702293150
    Molecular point group: c1
  Basis Set: CC-PVTZ
  Basis Set:
  Basis Set: CC-PVTZ
  Basis Set:
  @DF-RHF Final Energy:  -384.09148108997977
    Total Energy =                       -384.0914810899799363
  Basis Set: CC-PVTZ
  Basis Set:
  Basis Set: CC-PVTZ
  Basis Set:
  @DF-RHF Final Energy:  -384.09154823815800
    Total Energy =                       -384.0915482381578840
  Basis Set: CC-PVTZ
  Basis Set:
  Basis Set: CC-PVTZ
  Basis Set:
  @DF-RHF Final Energy:  -384.09260783707009
    Total Energy =                       -384.0926078370702612
  Basis Set: CC-PVTZ
  Basis Set:
  Basis Set: CC-PVTZ
  Basis Set:
  @DF-RHF Final Energy:  -384.09263224243898
    Total Energy =                       -384.0926322424392652
  Basis Set: CC-PVTZ
  Basis Set:
  Basis Set: CC-PVTZ
  Basis Set:
  @DF-RHF Final Energy:  -384.09263896540665
    Total Energy =                       -384.0926389654063655
  Basis Set: CC-PVTZ
  Basis Set:
  Basis Set: CC-PVTZ
  Basis Set:
  @DF-RHF Final Energy:  -384.09264120852794
    Total Energy =                       -384.0926412085275388
  Basis Set: CC-PVTZ
  Basis Set:
  Charge       = 0
  Multiplicity = 1
  Basis Set: CC-PVTZ
  Basis Set:

    Orbital Energies (a.u.)
    -----------------------

    Doubly Occupied:

       1A    -20.605960     2A    -20.536621     3A    -11.373429
       4A    -11.238569     5A    -11.226256     6A    -11.221086
       7A    -11.220033     8A    -11.211773     9A     -1.478230
      10A     -1.367402    11A     -1.099857    12A     -1.042898
      13A     -0.961216    14A     -0.863777    15A     -0.828690
      16A     -0.792679    17A     -0.703069    18A     -0.683431
      19A     -0.665793    20A     -0.633591    21A     -0.608262
      22A     -0.593213    23A     -0.578064    24A     -0.552130
      25A     -0.550260    26A     -0.520805    27A     -0.500849
      28A     -0.484618    29A     -0.478234    30A     -0.471238
      31A     -0.458286    32A     -0.436651

  @DF-RHF Final Energy:  -384.09264211633257

   => Energetics <=

    Nuclear Repulsion Energy =            377.1675395740961108
    One-Electron Energy =               -1270.5464273253069223
    Two-Electron Energy =                 509.2862456348785258
    DFT Exchange-Correlation Energy =       0.0000000000000000
    Empirical Dispersion Energy =           0.0000000000000000
    PCM Polarization Energy =               0.0000000000000000
    EFP Energy =                            0.0000000000000000
    Total Energy =                       -384.0926421163323425
    Molecular point group: c1
  Basis Set: CC-PVTZ
  Basis Set:

  -Total Gradient:
     Atom            X                  Y                   Z
    ------   -----------------  -----------------  -----------------
       1       -0.000042548634    -0.000040571032     0.000030131485
       2       -0.000006331335     0.000044876229    -0.000028204895
       3        0.000208944589     0.000743382234     0.001283963393
       4       -0.000263125319     0.000485732195    -0.001174298208
       5       -0.000079806083    -0.000612798265    -0.000790880139
       6       -0.000038643676     0.000013463289    -0.000020164574
       7        0.000196734737    -0.000630564445     0.000677403567
       8        0.000009102806     0.000001841683    -0.000001476148
       9        0.000008257896     0.000004120248    -0.000004644987
      10       -0.000006813008    -0.000001745045     0.000012286348
      11       -0.000000355760    -0.000000897672     0.000005332484
      12        0.000010651002    -0.000010144985     0.000006632908
      13        0.000004431303     0.000002470057    -0.000000395570
      14       -0.000001266922    -0.000002609039     0.000002361073
      15       -0.000003297574     0.000006219632    -0.000001457295
      16        0.000002479169    -0.000000387156     0.000007337063
      17        0.000004400784    -0.000004910149    -0.000001601759
      18       -0.000001259885     0.000002510403    -0.000002019379
      19       -0.000003221310     0.000002194549     0.000002386148
      20        0.000001667231    -0.000002182735    -0.000002691517

  **** Optimization is complete! (in 8 steps) ****
    Final optimized geometry and variables:
    Molecular point group: c1

    Geometry (in Angstrom), charge = 0, multiplicity = 1:

    H            3.313769231166     0.847807487993    -0.936587539513
    O            2.376734013970     0.814595558878    -0.814546401799
    C            2.103807715223    -0.178679699500     0.023742190282
    C            0.630653757269    -0.380317838700     0.273711241316
    O            2.954882438509    -0.855563229150     0.490236806993
    C           -0.258663556222     0.846525793039     0.081766142926
    H            0.335137435459    -1.188506344790    -0.387031322886
    H            0.548079882156    -0.769569589171     1.280133259935
    C           -1.716810207998     0.609390984859     0.477534949238
    H           -0.209016852514     1.175696548527    -0.949234759082
    H            0.135402524140     1.661083191140     0.679942690883
    C           -2.472173340774    -0.383450752317    -0.404319282030
    H           -2.233691507107     1.563944288548     0.444551310350
    H           -1.761743511232     0.277988779352     1.512360802688
    C           -3.945108676890    -0.503401911298    -0.026409450757
    H           -2.390823682473    -0.072406491967    -1.442492186084
    H           -2.012674020210    -1.364562549566    -0.341861560767
    H           -4.457297077796    -1.213401284326    -0.665248390230
    H           -4.451911525279     0.451231368528    -0.119049346568
    H           -4.059512072002    -0.838979744418     0.998929548550

  Mulliken Charges: (a.u.)
   Center  Symbol    Alpha    Beta     Spin     Total
       1     H     0.38319  0.38319  0.00000  0.23362
       2     O     4.15420  4.15420  0.00000 -0.30841
       3     C     2.81348  2.81348  0.00000  0.37303
       4     C     3.09647  3.09647  0.00000 -0.19293
       5     O     4.19593  4.19593  0.00000 -0.39185
       6     C     3.10035  3.10035  0.00000 -0.20070
       7     H     0.44040  0.44040  0.00000  0.11921
       8     H     0.43422  0.43422  0.00000  0.13156
       9     C     3.09893  3.09893  0.00000 -0.19787
      10     H     0.44338  0.44338  0.00000  0.11324
      11     H     0.44225  0.44225  0.00000  0.11550
      12     C     3.08748  3.08748  0.00000 -0.17495
      13     H     0.44596  0.44596  0.00000  0.10808
      14     H     0.45259  0.45259  0.00000  0.09481
      15     C     3.14968  3.14968  0.00000 -0.29936
      16     H     0.45265  0.45265  0.00000  0.09470
      17     H     0.45332  0.45332  0.00000  0.09335
      18     H     0.44741  0.44741  0.00000  0.10519
      19     H     0.45385  0.45385  0.00000  0.09231
      20     H     0.45427  0.45427  0.00000  0.09146

   Total alpha = 32.00000, Total beta = 32.00000, Total charge = -0.00000

*** Psi4 exiting successfully. Buy a developer a beer!
