  ==> Input File <==

--------------------------------------------------------------------------
set {
	reference rhf
	basis 6-31G*
}

set_num_threads( 4 )
memory 2 gb

molecule MOL {
0 1

H	 3.396400	 0.689453	 -0.677922
C	 2.684894	 0.480408	 0.112638
C	 1.322923	 0.120767	 -0.479465
H	 3.083808	 -0.332669	 0.711092
H	 2.621335	 1.362159	 0.742773
C	 0.306652	 -0.176050	 0.621399
H	 1.412661	 -0.751492	 -1.118635
H	 0.950430	 0.935596	 -1.089026
N	 -1.068537	 -0.011044	 0.085269
H	 0.372515	 -1.192590	 0.973735
H	 0.391664	 0.520566	 1.441230
O	 -1.656956	 -0.997225	 -0.235017
O	 -1.478635	 1.104830	 -0.018026

	symmetry c1
}
set optking {
	frozen_dihedral = ("
		7 3 6 9
	")
}

ee = optimize('scf')
oeprop('DIPOLE', 'QUADRUPOLE', 'MULLIKEN_CHARGES')
f=open( 'psi4out.xyz', 'w' )
f.write( "13  " )
f.write( str(ee) + "\n" )
f.write( MOL.save_string_xyz() )
f.close()
--------------------------------------------------------------------------

    Molecular point group: c1
  Charge       = 0
  Multiplicity = 1
  Basis Set: 6-31G*
  Basis Set:
  @DF-RHF Final Energy:  -321.73383968361713
    Total Energy =                       -321.7338396836171341
    Molecular point group: c1
  Basis Set: 6-31G*
  Basis Set:
  Basis Set: 6-31G*
  Basis Set:
  @DF-RHF Final Energy:  -321.73106037773812
    Total Energy =                       -321.7310603777380607
  Basis Set: 6-31G*
  Basis Set:
  Basis Set: 6-31G*
  Basis Set:
  @DF-RHF Final Energy:  -321.73242059988485
    Total Energy =                       -321.7324205998846764
  Basis Set: 6-31G*
  Basis Set:
  Basis Set: 6-31G*
  Basis Set:
  @DF-RHF Final Energy:  -321.73362323612162
    Total Energy =                       -321.7336232361216162
  Basis Set: 6-31G*
  Basis Set:
  @DF-RHF Final Energy:  -321.73394739238836
    Total Energy =                       -321.7339473923884725
  @DF-RHF Final Energy:  -321.73396326650209
    Total Energy =                       -321.7339632665021441
  @DF-RHF Final Energy:  -321.73400890040870
    Total Energy =                       -321.7340089004087531
  Basis Set: 6-31G*
  Basis Set:
  @DF-RHF Final Energy:  -321.73402661520208
    Total Energy =                       -321.7340266152021968
  Basis Set: 6-31G*
  Basis Set:
  Basis Set: 6-31G*
  Basis Set:
  @DF-RHF Final Energy:  -321.73402920271008
    Total Energy =                       -321.7340292027102464
  Basis Set: 6-31G*
  Basis Set:
  Basis Set: 6-31G*
  Basis Set:
  @DF-RHF Final Energy:  -321.73403055039620
    Total Energy =                       -321.7340305503960280
  Basis Set: 6-31G*
  Basis Set:
  Charge       = 0
  Multiplicity = 1
  Basis Set: 6-31G*
  Basis Set:

    Orbital Energies (a.u.)
    -----------------------

    Doubly Occupied:

       1A    -20.601043     2A    -20.599383     3A    -15.846661
       4A    -11.299222     5A    -11.257790     6A    -11.239563
       7A     -1.630238     8A     -1.415720     9A     -1.134797
      10A     -1.028432    11A     -0.883771    12A     -0.833334
      13A     -0.758284    14A     -0.733719    15A     -0.722854
      16A     -0.671507    17A     -0.606075    18A     -0.589981
      19A     -0.547843    20A     -0.521168    21A     -0.516225
      22A     -0.482915    23A     -0.473408    24A     -0.447682

  @DF-RHF Final Energy:  -321.73403049327248

   => Energetics <=

    Nuclear Repulsion Energy =            247.4674823678906250
    One-Electron Energy =                -928.7197939093643981
    Two-Electron Energy =                 359.5182810482012314
    DFT Exchange-Correlation Energy =       0.0000000000000000
    Empirical Dispersion Energy =           0.0000000000000000
    PCM Polarization Energy =               0.0000000000000000
    EFP Energy =                            0.0000000000000000
    Total Energy =                       -321.7340304932725417
    Molecular point group: c1
  Basis Set: 6-31G*
  Basis Set:

  -Total Gradient:
     Atom            X                  Y                   Z
    ------   -----------------  -----------------  -----------------
       1        0.000001668674    -0.000007760503     0.000002270666
       2       -0.000020419956     0.000005766638     0.000033161436
       3       -0.003573107395     0.002567896999    -0.002510186334
       4        0.000004524007     0.000005649667     0.000007000506
       5        0.000005247618     0.000002461003     0.000000388615
       6        0.000774929967    -0.003980916001    -0.000446870023
       7        0.002833105595    -0.001295132321     0.002218081767
       8        0.000044027130    -0.000023568216    -0.000034490464
       9        0.000055387569     0.002588978573     0.000740715256
      10       -0.000044777852     0.000012194191    -0.000000725592
      11        0.000017758002     0.000030192654     0.000004883770
      12       -0.000059489611     0.000092410772     0.000016315752
      13       -0.000038853745     0.000001826545    -0.000030545355

  **** Optimization is complete! (in 11 steps) ****
    Final optimized geometry and variables:
    Molecular point group: c1

    Geometry (in Angstrom), charge = 0, multiplicity = 1:

    H            3.426733785900     0.547570822698    -0.697298067759
    C            2.702002363597     0.387194324564     0.092764746701
    C            1.334595445723     0.042797231140    -0.499901192149
    H            3.073949364961    -0.414961443574     0.723358119545
    H            2.654910147407     1.291156780013     0.691340811891
    C            0.319132037414    -0.250871890601     0.608157245853
    H            1.432860079520    -0.832647293919    -1.131681712392
    H            0.976171028628     0.865777687445    -1.106408251994
    N           -1.059444003020    -0.102926361404     0.075781775740
    H            0.398906307644    -1.256777519693     0.986371773776
    H            0.392960609527     0.467001543973     1.410071450658
    O           -1.597389327487    -1.083398418989    -0.337772678968
    O           -1.521506136079     0.997090278237     0.065433973185

  Mulliken Charges: (a.u.)
   Center  Symbol    Alpha    Beta     Spin     Total
       1     H     0.40803  0.40803  0.00000  0.18395
       2     C     3.24843  3.24843  0.00000 -0.49686
       3     C     3.17246  3.17246  0.00000 -0.34492
       4     H     0.41593  0.41593  0.00000  0.16813
       5     H     0.41292  0.41292  0.00000  0.17415
       6     C     3.08327  3.08327  0.00000 -0.16654
       7     H     0.40174  0.40174  0.00000  0.19652
       8     H     0.39562  0.39562  0.00000  0.20876
       9     N     3.22480  3.22480  0.00000  0.55039
      10     H     0.38692  0.38692  0.00000  0.22616
      11     H     0.38897  0.38897  0.00000  0.22205
      12     O     4.22969  4.22969  0.00000 -0.45938
      13     O     4.23121  4.23121  0.00000 -0.46242

   Total alpha = 24.00000, Total beta = 24.00000, Total charge = -0.00000
