                              Psi4 1.0.54 Driver

  ==> Input File <==

--------------------------------------------------------------------------
set {
	reference rhf
	basis cc-pvtz
}

set_num_threads( 4 )
memory 2 gb

molecule MOL {
0 1

H	 2.785638	 -0.491974	 -0.637922
O	 1.974816	 -0.905812	 -0.382891
C	 1.011689	 0.011154	 -0.396291
C	 -0.318151	 -0.570512	 0.000144
O	 1.218980	 1.137345	 -0.690729
C	 -1.454884	 0.441630	 -0.000560
H	 -0.522595	 -1.393083	 -0.677698
H	 -0.191535	 -1.020089	 0.979812
C	 -2.822577	 -0.232186	 0.000063
H	 -1.359760	 1.084704	 -0.867077
H	 -1.359641	 1.085996	 0.864983
H	 -2.954352	 -0.858985	 -0.875745
H	 -3.615886	 0.505352	 0.000019
H	 -2.953878	 -0.858359	 0.876394

	symmetry c1
}
set optking {
	frozen_dihedral = ("
		7 4 6 10
	")
}

ee,wfn = optimize('scf', return_wfn=True)
oeprop( wfn, 'DIPOLE', 'QUADRUPOLE', 'MULLIKEN_CHARGES')
f=open( 'psi4out.xyz', 'w' )
f.write( "14  " )
f.write( str(ee) + "\n" )
f.write( MOL.save_string_xyz() )
f.close()
--------------------------------------------------------------------------

    Molecular point group: c1
  Charge       = 0
  Multiplicity = 1
  Basis Set: CC-PVTZ
  Basis Set:
  @DF-RHF Final Energy:  -306.00011610902789
    Total Energy =                       -306.0001161090277719
    Molecular point group: c1
  Basis Set: CC-PVTZ
  Basis Set:
  Basis Set: CC-PVTZ
  Basis Set:
  @DF-RHF Final Energy:  -306.00022186194906
    Total Energy =                       -306.0002218619490009
  Basis Set: CC-PVTZ
  Basis Set:
  Basis Set: CC-PVTZ
  Basis Set:
  @DF-RHF Final Energy:  -306.00017334093320
    Total Energy =                       -306.0001733409331450
  Basis Set: CC-PVTZ
  Basis Set:
  Basis Set: CC-PVTZ
  Basis Set:
  @DF-RHF Final Energy:  -306.00024616331689
    Total Energy =                       -306.0002461633168878
  Basis Set: CC-PVTZ
  Basis Set:
  Charge       = 0
  Multiplicity = 1
  Basis Set: CC-PVTZ
  Basis Set:

    Orbital Energies (a.u.)
    -----------------------

    Doubly Occupied:

       1A    -20.604582     2A    -20.541316     3A    -11.374418
       4A    -11.239735     5A    -11.223554     6A    -11.215586
       7A     -1.478299     8A     -1.369833     9A     -1.083962
      10A     -0.981243    11A     -0.859650    12A     -0.793225
      13A     -0.704492    14A     -0.693181    15A     -0.668398
      16A     -0.617274    17A     -0.597390    18A     -0.574579
      19A     -0.546480    20A     -0.507245    21A     -0.492475
      22A     -0.484881    23A     -0.480415    24A     -0.448519

  @DF-RHF Final Energy:  -306.00024676489295

   => Energetics <=

    Nuclear Repulsion Energy =            240.3986934475612145
    One-Electron Energy =                -893.6364165207631913
    Two-Electron Energy =                 347.2374763083090556
    DFT Exchange-Correlation Energy =       0.0000000000000000
    Empirical Dispersion Energy =           0.0000000000000000
    PCM Polarization Energy =               0.0000000000000000
    EFP Energy =                            0.0000000000000000
    Total Energy =                       -306.0002467648929496
    Molecular point group: c1
  Basis Set: CC-PVTZ
  Basis Set:

  -Total Gradient:
     Atom            X                  Y                   Z
    ------   -----------------  -----------------  -----------------
       1        0.000028368128    -0.000018131009    -0.000008852455
       2        0.000054949565     0.000049360109     0.000011107355
       3       -0.000113715332     0.000036516032    -0.000065632415
       4        0.001868840428     0.002163976751    -0.002144392069
       5        0.000027858936    -0.000088361746     0.000018478951
       6       -0.002173060499    -0.002514645424    -0.001229528973
       7       -0.001207930126    -0.001342086595     0.002017364880
       8       -0.000001310611    -0.000011248216     0.000008160098
       9       -0.000027299968    -0.000005529779    -0.000030753189
      10        0.001509045749     0.001724154642     0.001416481070
      11        0.000007366185    -0.000015187941     0.000013013880
      12       -0.000003735896     0.000011759192     0.000015996407
      13        0.000007222611    -0.000008478939     0.000000669032
      14        0.000023400833     0.000017902924    -0.000022112573

  **** Optimization is complete! (in 5 steps) ****
    Final optimized geometry and variables:
    Molecular point group: c1

    Geometry (in Angstrom), charge = 0, multiplicity = 1:

    H            2.818298333342    -0.463324866990    -0.349978339998
    O            2.001818367944    -0.878148768431    -0.115366466277
    C            1.040551670236     0.040504507249    -0.140676201145
    C           -0.296618923168    -0.542540265155     0.224858021926
    O            1.256198754600     1.168954085316    -0.419852395899
    C           -1.439155887752     0.465863820371     0.224263502219
    H           -0.495598052584    -1.368493126136    -0.450397386968
    H           -0.184101884162    -1.001977762280     1.201989826383
    C           -2.806270169486    -0.205714593405     0.264947817499
    H           -1.350868481580     1.108850341574    -0.641881671374
    H           -1.328785870577     1.121168033185     1.081342568354
    H           -2.966065328684    -0.825739023666    -0.610801085660
    H           -3.598192678728     0.532602336934     0.296253058623
    H           -2.910101075265    -0.838275859011     1.140490879812

  Mulliken Charges: (a.u.)
   Center  Symbol    Alpha    Beta     Spin     Total
       1     H     0.38234  0.38234  0.00000  0.23532
       2     O     4.16002  4.16002  0.00000 -0.32004
       3     C     2.80416  2.80416  0.00000  0.39169
       4     C     3.10659  3.10659  0.00000 -0.21318
       5     O     4.19069  4.19069  0.00000 -0.38138
       6     C     3.08093  3.08093  0.00000 -0.16186
       7     H     0.43980  0.43980  0.00000  0.12040
       8     H     0.43772  0.43772  0.00000  0.12457
       9     C     3.14971  3.14971  0.00000 -0.29942
      10     H     0.44242  0.44242  0.00000  0.11516
      11     H     0.44971  0.44971  0.00000  0.10057
      12     H     0.45499  0.45499  0.00000  0.09002
      13     H     0.44537  0.44537  0.00000  0.10926
      14     H     0.45556  0.45556  0.00000  0.08889

   Total alpha = 24.00000, Total beta = 24.00000, Total charge =  0.00000

*** Psi4 exiting successfully. Buy a developer a beer!
