  ==> Input File <==

--------------------------------------------------------------------------
set {
	reference rhf
	basis cc-pvtz
}

set_num_threads( 4 )
memory 2 gb

molecule MOL {
0 1

H	 -0.366580	 2.045936	 -0.305741
C	 0.351829	 1.335402	 0.083179
N	 -0.000018	 0.000080	 -0.334836
H	 1.327156	 1.599860	 -0.305475
H	 0.380566	 1.445403	 1.171445
C	 -0.244378	 -0.870701	 0.789623
C	 -1.100845	 -0.001248	 -1.267798
H	 -0.436293	 -1.877978	 0.442270
H	 0.627017	 -0.899107	 1.431535
H	 -1.099202	 -0.552999	 1.394116
H	 -0.855623	 0.605811	 -2.130078
H	 -1.292027	 -1.009493	 -1.612788
H	 -2.026067	 0.388297	 -0.832677

	symmetry c1
}
set optking {
	frozen_dihedral = ("
		6 3 2 1
	")
}

ee = optimize('scf')
oeprop('DIPOLE', 'QUADRUPOLE', 'MULLIKEN_CHARGES')
f=open( 'psi4out.xyz', 'w' )
f.write( "13  " )
f.write( str(ee) + "\n" )
f.write( MOL.save_string_xyz() )
f.close()
--------------------------------------------------------------------------

    Molecular point group: c1
  Charge       = 0
  Multiplicity = 1
  Basis Set: CC-PVTZ
  Basis Set:
  @DF-RHF Final Energy:  -173.32684010627619
    Total Energy =                       -173.3268401062762507
    Molecular point group: c1
  Basis Set: CC-PVTZ
  Basis Set:
  Basis Set: CC-PVTZ
  Basis Set:
  @DF-RHF Final Energy:  -173.32753832346648
    Total Energy =                       -173.3275383234664275
  Basis Set: CC-PVTZ
  Basis Set:
  Basis Set: CC-PVTZ
  Basis Set:
  @DF-RHF Final Energy:  -173.32768305337328
    Total Energy =                       -173.3276830533732209
  Basis Set: CC-PVTZ
  Basis Set:
  Basis Set: CC-PVTZ
  Basis Set:
  @DF-RHF Final Energy:  -173.32769204090405
    Total Energy =                       -173.3276920409039121
  Basis Set: CC-PVTZ
  Basis Set:
  Charge       = 0
  Multiplicity = 1
  Basis Set: CC-PVTZ
  Basis Set:

    Orbital Energies (a.u.)
    -----------------------

    Doubly Occupied:

       1A    -15.534733     2A    -11.233980     3A    -11.233934
       4A    -11.233747     5A     -1.220978     6A     -0.952060
       7A     -0.951853     8A     -0.806380     9A     -0.638226
      10A     -0.629333    11A     -0.628385    12A     -0.549253
      13A     -0.547261    14A     -0.514501    15A     -0.501784
      16A     -0.501337    17A     -0.340384

  @DF-RHF Final Energy:  -173.32769332228867

   => Energetics <=

    Nuclear Repulsion Energy =            138.9103157081341351
    One-Electron Energy =                -508.4397554027878527
    Two-Electron Energy =                 196.2017463723649939
    DFT Exchange-Correlation Energy =       0.0000000000000000
    Empirical Dispersion Energy =           0.0000000000000000
    PCM Polarization Energy =               0.0000000000000000
    EFP Energy =                            0.0000000000000000
    Total Energy =                       -173.3276933222887237
    Molecular point group: c1
  Basis Set: CC-PVTZ
  Basis Set:

  -Total Gradient:
     Atom            X                  Y                   Z
    ------   -----------------  -----------------  -----------------
       1        0.000747186103     0.000131314691    -0.001229061493
       2       -0.000492877788    -0.000219648839     0.001588784563
       3       -0.001278035371     0.000408609197    -0.000309117793
       4       -0.000036494015    -0.000017725459    -0.000012151548
       5       -0.000010112630    -0.000012436882    -0.000005015357
       6        0.001064792792    -0.000282226037    -0.000031861891
       7        0.000016678097     0.000030669774    -0.000004125734
       8       -0.000005018417    -0.000014582808     0.000013777901
       9       -0.000002369927    -0.000011981372     0.000014324247
      10        0.000007989289     0.000000565597    -0.000014225670
      11       -0.000015408782    -0.000002818234    -0.000008592555
      12       -0.000007985087    -0.000004012817    -0.000007752493
      13        0.000011655736    -0.000005726810     0.000005017824

  **** Optimization is complete! (in 5 steps) ****
    Final optimized geometry and variables:
    Molecular point group: c1

    Geometry (in Angstrom), charge = 0, multiplicity = 1:

    H           -0.070712320080     1.974920774203    -0.101977127504
    C            0.635885144297     1.228196490111     0.248124582805
    N            0.239131133792    -0.114049537931    -0.144594872977
    H            1.607126941432     1.484821388443    -0.162523310258
    H            0.698380421067     1.322299336173     1.325841884333
    C            0.019370528082    -1.005232143383     0.966654019484
    C           -0.832798802923    -0.137904419988    -1.106950142733
    H           -0.161964865847    -2.009091429692     0.602791602339
    H            0.899263533175    -1.037961569028     1.596412844482
    H           -0.832135896274    -0.716214181753     1.590931101114
    H           -0.571175172953     0.462647570998    -1.969201013200
    H           -0.999242307015    -1.151417338454    -1.450476343501
    H           -1.778136427127     0.241845701522    -0.706642820814

  Mulliken Charges: (a.u.)
   Center  Symbol    Alpha    Beta     Spin     Total
       1     H     0.46384  0.46384  0.00000  0.07233
       2     C     3.08501  3.08501  0.00000 -0.17002
       3     N     3.59900  3.59900  0.00000 -0.19799
       4     H     0.45147  0.45147  0.00000  0.09707
       5     H     0.46074  0.46074  0.00000  0.07853
       6     C     3.09017  3.09017  0.00000 -0.18034
       7     C     3.09042  3.09042  0.00000 -0.18083
       8     H     0.45375  0.45375  0.00000  0.09251
       9     H     0.45234  0.45234  0.00000  0.09532
      10     H     0.47366  0.47366  0.00000  0.05268
      11     H     0.45226  0.45226  0.00000  0.09548
      12     H     0.45380  0.45380  0.00000  0.09239
      13     H     0.47356  0.47356  0.00000  0.05288

   Total alpha = 17.00000, Total beta = 17.00000, Total charge =  0.00000
