                              Psi4 1.0.54 Driver

  ==> Input File <==

--------------------------------------------------------------------------
set {
	reference rhf
	basis cc-pvtz
}

set_num_threads( 4 )
memory 2 gb

molecule MOL {
0 1

O	 -2.440701	 -0.934798	 -0.415053
C	 -1.922978	 0.063265	 -0.045005
C	 -2.632749	 1.372204	 0.158357
O	 -0.637375	 0.157174	 0.243149
H	 -2.187724	 2.129143	 -0.474664
H	 -3.677681	 1.257276	 -0.079438
H	 -2.516788	 1.693160	 1.185542
C	 0.162530	 -1.009518	 0.097799
C	 1.587210	 -0.664190	 0.477086
H	 0.096803	 -1.356267	 -0.924704
H	 -0.233803	 -1.785900	 0.736810
C	 2.131904	 0.586636	 -0.207390
H	 2.206548	 -1.518852	 0.218809
H	 1.646357	 -0.551030	 1.555295
C	 3.577047	 0.885436	 0.177182
H	 2.063440	 0.461605	 -1.284784
H	 1.506869	 1.435546	 0.044659
H	 3.939422	 1.774651	 -0.325179
H	 4.233433	 0.063903	 -0.090459
H	 3.671654	 1.048019	 1.245655

	symmetry c1
}
set optking {
	frozen_dihedral = ("
		12 9 8 10
	")
}

ee,wfn = optimize('scf', return_wfn=True)
oeprop( wfn, 'DIPOLE', 'QUADRUPOLE', 'MULLIKEN_CHARGES')
f=open( 'psi4out.xyz', 'w' )
f.write( "20  " )
f.write( str(ee) + "\n" )
f.write( MOL.save_string_xyz() )
f.close()
--------------------------------------------------------------------------

    Molecular point group: c1
  Charge       = 0
  Multiplicity = 1
  Basis Set: CC-PVTZ
  Basis Set:
  @DF-RHF Final Energy:  -384.08635918530484
    Total Energy =                       -384.0863591853046728
    Molecular point group: c1
  Basis Set: CC-PVTZ
  Basis Set:
  Basis Set: CC-PVTZ
  Basis Set:
  @DF-RHF Final Energy:  -384.08646503895710
    Total Energy =                       -384.0864650389571580
  Basis Set: CC-PVTZ
  Basis Set:
  Basis Set: CC-PVTZ
  Basis Set:
  @DF-RHF Final Energy:  -384.08628833873996
    Total Energy =                       -384.0862883387403599
  Basis Set: CC-PVTZ
  Basis Set:
  Basis Set: CC-PVTZ
  Basis Set:
  @DF-RHF Final Energy:  -384.08658579176796
    Total Energy =                       -384.0865857917679023
  Basis Set: CC-PVTZ
  Basis Set:
  Basis Set: CC-PVTZ
  Basis Set:
  @DF-RHF Final Energy:  -384.08659226479057
    Total Energy =                       -384.0865922647906245
  Basis Set: CC-PVTZ
  Basis Set:
  Charge       = 0
  Multiplicity = 1
  Basis Set: CC-PVTZ
  Basis Set:

    Orbital Energies (a.u.)
    -----------------------

    Doubly Occupied:

       1A    -20.595137     2A    -20.533210     3A    -11.367246
       4A    -11.280048     5A    -11.232062     6A    -11.223712
       7A    -11.218006     8A    -11.211140     9A     -1.471929
      10A     -1.366019    11A     -1.086386    12A     -1.029436
      13A     -0.982272    14A     -0.881362    15A     -0.815212
      16A     -0.772980    17A     -0.693065    18A     -0.688130
      19A     -0.670935    20A     -0.633830    21A     -0.599167
      22A     -0.594473    23A     -0.573631    24A     -0.550853
      25A     -0.546754    26A     -0.535146    27A     -0.511497
      28A     -0.484744    29A     -0.474895    30A     -0.471601
      31A     -0.451313    32A     -0.442788

  @DF-RHF Final Energy:  -384.08659315666915

   => Energetics <=

    Nuclear Repulsion Energy =            386.3256236883493671
    One-Electron Energy =               -1288.8464785140427011
    Two-Electron Energy =                 518.4342616690244085
    DFT Exchange-Correlation Energy =       0.0000000000000000
    Empirical Dispersion Energy =           0.0000000000000000
    PCM Polarization Energy =               0.0000000000000000
    EFP Energy =                            0.0000000000000000
    Total Energy =                       -384.0865931566688687
    Molecular point group: c1
  Basis Set: CC-PVTZ
  Basis Set:

  -Total Gradient:
     Atom            X                  Y                   Z
    ------   -----------------  -----------------  -----------------
       1       -0.000079754071    -0.000135324946    -0.000074819996
       2        0.000096742737     0.000147663639     0.000047757136
       3       -0.000027612472    -0.000033486848    -0.000037410605
       4       -0.000021408339     0.000020444142    -0.000076032338
       5        0.000011376325     0.000010081304    -0.000005417069
       6        0.000033111808    -0.000015921044     0.000004235684
       7       -0.000000053622     0.000029047707     0.000060242259
       8       -0.001031943442     0.005135526937    -0.000475556388
       9        0.001501826603    -0.003207857162    -0.002687809344
      10        0.000480854923    -0.003547502238     0.001230252353
      11        0.000035098242    -0.000025243354    -0.000056211682
      12       -0.000931194395     0.001607293767     0.002103070600
      13       -0.000050778384     0.000024348836     0.000021091835
      14       -0.000007275637     0.000027664441    -0.000029981845
      15        0.000008142719    -0.000019679978    -0.000023947612
      16        0.000005755880     0.000023457027    -0.000009529295
      17        0.000009337476    -0.000054741490    -0.000007540772
      18       -0.000002471743    -0.000019013699     0.000008402214
      19       -0.000025188445     0.000036957243     0.000011328949
      20       -0.000004566169    -0.000003714285    -0.000002124085

  **** Optimization is complete! (in 6 steps) ****
    Final optimized geometry and variables:
    Molecular point group: c1

    Geometry (in Angstrom), charge = 0, multiplicity = 1:

    O           -2.408198074345    -1.004415629645    -0.487971732154
    C           -1.908216906524    -0.001820200809    -0.106520662358
    C           -2.639187811027     1.293357893242     0.106727440040
    O           -0.624417457715     0.110565012826     0.184904158805
    H           -2.205455880072     2.062237598378    -0.519696832788
    H           -3.681739600711     1.163398887330    -0.133544653643
    H           -2.529661959759     1.607633998789     1.136717325613
    C            0.191589208529    -1.040126718074     0.033473008771
    C            1.616729790378    -0.700884531092     0.425246502648
    H            0.135086158786    -1.400811739994    -0.984974682963
    H           -0.196260433160    -1.828142501779     0.664418588138
    C            2.192453579817     0.533921188922    -0.263351498379
    H            2.225915051377    -1.571775390548     0.201881196524
    H            1.662301484895    -0.558427195856     1.501146656150
    C            3.649174511926     0.784548035289     0.111854135288
    H            2.112289366298     0.418141414193    -1.341329471025
    H            1.596090260705     1.398858271663    -0.002591269067
    H            4.032675499594     1.670054548397    -0.381266083289
    H            4.279192416031    -0.051478163936    -0.173013483415
    H            3.757936324280     0.929385674156     1.181651475089

  Mulliken Charges: (a.u.)
   Center  Symbol    Alpha    Beta     Spin     Total
       1     O     4.19704  4.19704  0.00000 -0.39408
       2     C     2.80778  2.80778  0.00000  0.38444
       3     C     3.13867  3.13867  0.00000 -0.27735
       4     O     4.15191  4.15191  0.00000 -0.30382
       5     H     0.44591  0.44591  0.00000  0.10817
       6     H     0.43745  0.43745  0.00000  0.12510
       7     H     0.44571  0.44571  0.00000  0.10858
       8     C     2.99453  2.99453  0.00000  0.01094
       9     C     3.08619  3.08619  0.00000 -0.17239
      10     H     0.45056  0.45056  0.00000  0.09889
      11     H     0.44603  0.44603  0.00000  0.10793
      12     C     3.08482  3.08482  0.00000 -0.16965
      13     H     0.45164  0.45164  0.00000  0.09672
      14     H     0.45258  0.45258  0.00000  0.09484
      15     C     3.15053  3.15053  0.00000 -0.30107
      16     H     0.45554  0.45554  0.00000  0.08892
      17     H     0.44560  0.44560  0.00000  0.10881
      18     H     0.44739  0.44739  0.00000  0.10523
      19     H     0.45541  0.45541  0.00000  0.08917
      20     H     0.45469  0.45469  0.00000  0.09061

   Total alpha = 32.00000, Total beta = 32.00000, Total charge = -0.00000

*** Psi4 exiting successfully. Buy a developer a beer!
