  ==> Input File <==

--------------------------------------------------------------------------
set {
	reference rhf
	basis 6-31G*
}

set_num_threads( 1 )
memory 2 gb

molecule MOL {
0 1

H	 -2.499100	 -0.730091	 -0.745082
O	 -2.347518	 -0.290803	 0.079804
C	 -1.184022	 0.487508	 -0.006784
C	 0.062599	 -0.378592	 0.031606
H	 -1.176523	 1.099369	 -0.904519
H	 -1.187323	 1.153111	 0.844927
O	 1.171513	 0.459272	 -0.058250
H	 0.050699	 -1.089204	 -0.797170
H	 0.078739	 -0.954914	 0.954740
C	 0.903351	 1.716434	 -0.593764
H	 0.182715	 2.261802	 0.012772
H	 1.832981	 2.268057	 -0.613860
H	 0.515011	 1.641747	 -1.607374

	symmetry c1
}
set optking {
	frozen_dihedral = ("
		8 4 3 5,
		1 2 3 5,
		4 7 10 13
	")
}

ee = energy('scf')
oeprop('DIPOLE', 'QUADRUPOLE', 'MULLIKEN_CHARGES')
f=open( 'psi4out.xyz', 'w' )
f.write( "13  " )
f.write( str(ee) + "\n" )
f.write( MOL.save_string_xyz() )
f.close()
--------------------------------------------------------------------------

    Molecular point group: c1

    Geometry (in Angstrom), charge = 0, multiplicity = 1:

       Center              X                  Y                   Z               Mass
    ------------   -----------------  -----------------  -----------------  -----------------
           H         -2.188169741592    -1.128407463269    -0.622002953507     1.007825032070
           O         -2.036587741592    -0.689119463269     0.202883046493    15.994914619560
           C         -0.873091741592     0.089191536731     0.116295046493    12.000000000000
           C          0.373529258408    -0.776908463269     0.154685046493    12.000000000000
           H         -0.865592741592     0.701052536731    -0.781439953507     1.007825032070
           H         -0.876392741592     0.754794536731     0.968006046493     1.007825032070
           O          1.482443258408     0.060955536731     0.064829046493    15.994914619560
           H          0.361629258408    -1.487520463269    -0.674090953507     1.007825032070
           H          0.389669258408    -1.353230463269     1.077819046493     1.007825032070
           C          1.214281258408     1.318117536731    -0.470684953507    12.000000000000
           H          0.493645258408     1.863485536731     0.135851046493     1.007825032070
           H          2.143911258408     1.869740536731    -0.490780953507     1.007825032070
           H          0.825941258408     1.243430536731    -1.484294953507     1.007825032070

  Charge       = 0
  Multiplicity = 1
  Basis Set: 6-31G*
  Basis Set:

    Orbital Energies (a.u.)
    -----------------------

    Doubly Occupied:

       1A    -20.562634     2A    -20.559766     3A    -11.273379
       4A    -11.271800     5A    -11.270853     6A     -1.392022
       7A     -1.367579     8A     -1.009530     9A     -0.954850
      10A     -0.822965    11A     -0.721419    12A     -0.686665
      13A     -0.662900    14A     -0.632571    15A     -0.586412
      16A     -0.572313    17A     -0.547581    18A     -0.516623
      19A     -0.499039    20A     -0.426247    21A     -0.410093

  @DF-RHF Final Energy:  -267.92459566421417

   => Energetics <=

    Nuclear Repulsion Energy =            197.0609698379073222
    One-Electron Energy =                -756.4765472690869501
    Two-Electron Energy =                 291.4909817669654899
    DFT Exchange-Correlation Energy =       0.0000000000000000
    Empirical Dispersion Energy =           0.0000000000000000
    PCM Polarization Energy =               0.0000000000000000
    EFP Energy =                            0.0000000000000000
    Total Energy =                       -267.9245956642141095

  Mulliken Charges: (a.u.)
   Center  Symbol    Alpha    Beta     Spin     Total
       1     H     0.28139  0.28139  0.00000  0.43722
       2     O     4.37577  4.37577  0.00000 -0.75153
       3     C     3.02238  3.02238  0.00000 -0.04477
       4     C     2.98716  2.98716  0.00000  0.02568
       5     H     0.42215  0.42215  0.00000  0.15570
       6     H     0.40658  0.40658  0.00000  0.18684
       7     O     4.30758  4.30758  0.00000 -0.61515
       8     H     0.43367  0.43367  0.00000  0.13265
       9     H     0.41086  0.41086  0.00000  0.17828
      10     C     3.09633  3.09633  0.00000 -0.19266
      11     H     0.42289  0.42289  0.00000  0.15423
      12     H     0.40635  0.40635  0.00000  0.18730
      13     H     0.42689  0.42689  0.00000  0.14622

   Total alpha = 21.00000, Total beta = 21.00000, Total charge =  0.00000
