  ==> Input File <==

--------------------------------------------------------------------------
set {
	reference rhf
	basis 6-31G*
}

set_num_threads( 4 )
memory 2 gb

molecule MOL {
0 1

O	 -2.821601	 1.309235	 -0.001213
C	 -2.668563	 0.129746	 -0.000350
C	 -3.801572	 -0.864014	 -0.000442
O	 -1.481751	 -0.454642	 0.000584
H	 -4.417280	 -0.689587	 -0.874708
H	 -3.443784	 -1.883046	 -0.000565
H	 -4.417179	 -0.689832	 0.873954
C	 -0.334255	 0.388708	 0.000906
C	 0.891947	 -0.504646	 0.000751
H	 -0.365390	 1.025305	 -0.873475
H	 -0.365484	 1.024911	 0.875569
C	 2.191998	 0.301789	 0.000897
H	 0.855148	 -1.151283	 -0.871571
H	 0.855132	 -1.151660	 0.872805
C	 3.361361	 -0.452722	 -0.634423
H	 2.038994	 1.238686	 -0.531924
H	 2.452938	 0.571067	 1.022896
C	 4.659504	 0.353310	 -0.635461
H	 3.102433	 -0.722271	 -1.655880
H	 3.517138	 -1.388171	 -0.101752
H	 4.545207	 1.280287	 -1.190136
H	 5.469133	 -0.207368	 -1.091943
H	 4.963208	 0.609086	 0.375654

	symmetry c1
}
set optking {
	frozen_dihedral = ("
		16 12 9 13
	")
}

ee = optimize('scf')
oeprop('DIPOLE', 'QUADRUPOLE', 'MULLIKEN_CHARGES')
f=open( 'psi4out.xyz', 'w' )
f.write( "23  " )
f.write( str(ee) + "\n" )
f.write( MOL.save_string_xyz() )
f.close()
--------------------------------------------------------------------------

    Molecular point group: c1
  Charge       = 0
  Multiplicity = 1
  Basis Set: 6-31G*
  Basis Set:
  @DF-RHF Final Energy:  -422.97740746287849
    Total Energy =                       -422.9774074628785456
    Molecular point group: c1
  Basis Set: 6-31G*
  Basis Set:
  Basis Set: 6-31G*
  Basis Set:
  @DF-RHF Final Energy:  -422.97761417265980
    Total Energy =                       -422.9776141726591732
  Basis Set: 6-31G*
  Basis Set:
  Basis Set: 6-31G*
  Basis Set:
  @DF-RHF Final Energy:  -422.97767130867140
    Total Energy =                       -422.9776713086721429
  Basis Set: 6-31G*
  Basis Set:
  Basis Set: 6-31G*
  Basis Set:
  @DF-RHF Final Energy:  -422.97766106305073
    Total Energy =                       -422.9776610630510731
  Basis Set: 6-31G*
  Basis Set:
  Basis Set: 6-31G*
  Basis Set:
  @DF-RHF Final Energy:  -422.97766791836227
    Total Energy =                       -422.9776679183621582
  Basis Set: 6-31G*
  Basis Set:
  Basis Set: 6-31G*
  Basis Set:
  @DF-RHF Final Energy:  -422.97767407740645
    Total Energy =                       -422.9776740774063910
  Basis Set: 6-31G*
  Basis Set:
  Charge       = 0
  Multiplicity = 1
  Basis Set: 6-31G*
  Basis Set:

    Orbital Energies (a.u.)
    -----------------------

    Doubly Occupied:

       1A    -20.603131     2A    -20.540661     3A    -11.374217
       4A    -11.281957     5A    -11.232453     6A    -11.224233
       7A    -11.223662     8A    -11.222040     9A    -11.212984
      10A     -1.468143    11A     -1.360897    12A     -1.093488
      13A     -1.042426    14A     -1.003365    15A     -0.930860
      16A     -0.842408    17A     -0.803095    18A     -0.775271
      19A     -0.690811    20A     -0.685151    21A     -0.669233
      22A     -0.643321    23A     -0.607526    24A     -0.588157
      25A     -0.582103    26A     -0.567524    27A     -0.558685
      28A     -0.536943    29A     -0.523738    30A     -0.504569
      31A     -0.491503    32A     -0.478431    33A     -0.468340
      34A     -0.466213    35A     -0.451112    36A     -0.435424

  @DF-RHF Final Energy:  -422.97767417672804

   => Energetics <=

    Nuclear Repulsion Energy =            449.6637746699511240
    One-Electron Energy =               -1466.9147479667408334
    Two-Electron Energy =                 594.2732991200613242
    DFT Exchange-Correlation Energy =       0.0000000000000000
    Empirical Dispersion Energy =           0.0000000000000000
    PCM Polarization Energy =               0.0000000000000000
    EFP Energy =                            0.0000000000000000
    Total Energy =                       -422.9776741767283283
    Molecular point group: c1
  Basis Set: 6-31G*
  Basis Set:

  -Total Gradient:
     Atom            X                  Y                   Z
    ------   -----------------  -----------------  -----------------
       1        0.000004305343     0.000000424676     0.000005760163
       2       -0.000005675615    -0.000012127869    -0.000018190328
       3       -0.000003202619     0.000001038436     0.000011687272
       4       -0.000025999855     0.000008204332    -0.000005494543
       5        0.000001175831    -0.000000347690    -0.000001169855
       6       -0.000000066126     0.000000485464    -0.000000060610
       7       -0.000003388544    -0.000000822098    -0.000001151406
       8        0.000005031753    -0.000015236954     0.000019305171
       9       -0.002250972650     0.003705063928    -0.001619727770
      10        0.000001574823    -0.000004898971     0.000000905367
      11        0.000002551861     0.000003916267    -0.000003613818
      12        0.001678782889    -0.002605593701    -0.003391675100
      13        0.001601632350    -0.002652315303     0.001892809574
      14       -0.000009962222     0.000007279560     0.000002161075
      15        0.000011919740     0.000000326422     0.000028803654
      16       -0.001034287749     0.001576068625     0.003088653859
      17        0.000014073012    -0.000012073553    -0.000008979369
      18        0.000006447340     0.000001375473    -0.000016687310
      19        0.000002465832    -0.000003120440     0.000004969336
      20       -0.000003476674     0.000004353999     0.000007624081
      21       -0.000006465898     0.000001424558     0.000013896191
      22        0.000004218619     0.000007965820    -0.000011678512
      23        0.000009318568    -0.000011390985     0.000001852877

  **** Optimization is complete! (in 7 steps) ****
    Final optimized geometry and variables:
    Molecular point group: c1

    Geometry (in Angstrom), charge = 0, multiplicity = 1:

    O           -2.815045245715     1.276371057299     0.157200435863
    C           -2.658815594582     0.097352779506     0.167410090525
    C           -3.788374618910    -0.898980842023     0.218595409834
    O           -1.470954320665    -0.484171829025     0.135261628138
    H           -4.434543044428    -0.736566871687    -0.635765614063
    H           -3.427971034146    -1.917091324443     0.218282048537
    H           -4.373730304762    -0.715694564989     1.111708070489
    C           -0.326849883847     0.361677019159     0.085495505684
    C            0.901874634012    -0.525451304514     0.054225395280
    H           -0.388947070999     0.987142860221    -0.795098753170
    H           -0.328745992310     1.009171253272     0.952755378052
    C            2.206387582626     0.283265908966     0.080437768129
    H            0.869403507631    -1.168367443686    -0.821053289659
    H            0.870331875634    -1.194559864205     0.909563180365
    C            3.400703272656    -0.472742842262    -0.501255359493
    H            2.072025951427     1.227621604614    -0.445176013970
    H            2.427169999611     0.561967872332     1.109026413098
    C            4.707840484439     0.312335605022    -0.405462937775
    H            3.198507066412    -0.714668166045    -1.542122090502
    H            3.509870163294    -1.422979965314     0.017257451000
    H            4.636787469875     1.257817599461    -0.935667768950
    H            5.533464260514    -0.246327306289    -0.834946735711
    H            4.959048371967     0.531780889611     0.628299044372

  Mulliken Charges: (a.u.)
   Center  Symbol    Alpha    Beta     Spin     Total
       1     O     4.28384  4.28384  0.00000 -0.56768
       2     C     2.61536  2.61536  0.00000  0.76928
       3     C     3.28775  3.28775  0.00000 -0.57551
       4     O     4.31253  4.31253  0.00000 -0.62505
       5     H     0.39748  0.39748  0.00000  0.20505
       6     H     0.39984  0.39984  0.00000  0.20032
       7     H     0.39748  0.39748  0.00000  0.20504
       8     C     2.99724  2.99724  0.00000  0.00553
       9     C     3.16538  3.16538  0.00000 -0.33075
      10     H     0.41023  0.41023  0.00000  0.17954
      11     H     0.41050  0.41050  0.00000  0.17899
      12     C     3.16125  3.16125  0.00000 -0.32249
      13     H     0.41397  0.41397  0.00000  0.17206
      14     H     0.41311  0.41311  0.00000  0.17378
      15     C     3.15221  3.15221  0.00000 -0.30442
      16     H     0.42078  0.42078  0.00000  0.15844
      17     H     0.41925  0.41925  0.00000  0.16150
      18     C     3.24027  3.24027  0.00000 -0.48054
      19     H     0.42107  0.42107  0.00000  0.15786
      20     H     0.42110  0.42110  0.00000  0.15781
      21     H     0.42063  0.42063  0.00000  0.15874
      22     H     0.41795  0.41795  0.00000  0.16410
      23     H     0.42080  0.42080  0.00000  0.15841

   Total alpha = 36.00000, Total beta = 36.00000, Total charge =  0.00000
