  ==> Input File <==

--------------------------------------------------------------------------
set {
	reference rhf
	basis 6-31G*
}

set_num_threads( 1 )
memory 2 gb

molecule MOL {
0 1

O	 -0.411203	 0.198736	 0.780103
C	 0.486307	 0.169203	 0.000779
C	 1.608116	 -0.841643	 0.000302
O	 0.622649	 1.040247	 -0.989323
C	 2.990107	 -0.200498	 -0.000684
H	 1.468623	 -1.481519	 -0.865924
H	 1.469683	 -1.481289	 0.866878
H	 3.129736	 0.423364	 -0.875135
H	 3.757882	 -0.966877	 -0.001197
H	 3.130964	 0.423383	 0.873533
C	 -0.366650	 2.056930	 -1.111983
C	 0.009377	 2.914893	 -2.301442
H	 -0.395679	 2.632760	 -0.197018
H	 -1.334630	 1.592972	 -1.243697
H	 0.983476	 3.367952	 -2.156432
H	 -0.721556	 3.706331	 -2.431876
H	 0.039356	 2.322571	 -3.208918

	symmetry c1
}
set optking {
	frozen_dihedral = ("
		2 4 11 13,
		11 4 2 3
	")
}

ee = energy('scf')
oeprop('DIPOLE', 'QUADRUPOLE', 'MULLIKEN_CHARGES')
f=open( 'psi4out.xyz', 'w' )
f.write( "17  " )
f.write( str(ee) + "\n" )
f.write( MOL.save_string_xyz() )
f.close()
--------------------------------------------------------------------------

    Molecular point group: c1

    Geometry (in Angstrom), charge = 0, multiplicity = 1:

       Center              X                  Y                   Z               Mass
    ------------   -----------------  -----------------  -----------------  -----------------
           O         -1.113941856860    -0.581392015802     1.305388475045    15.994914619560
           C         -0.216431856860    -0.610925015802     0.526064475045    12.000000000000
           C          0.905377143140    -1.621771015802     0.525587475045    12.000000000000
           O         -0.080089856860     0.260118984198    -0.464037524955    15.994914619560
           C          2.287368143140    -0.980626015802     0.524601475045    12.000000000000
           H          0.765884143140    -2.261647015802    -0.340638524955     1.007825032070
           H          0.766944143140    -2.261417015802     1.392163475045     1.007825032070
           H          2.426997143140    -0.356764015802    -0.349849524955     1.007825032070
           H          3.055143143140    -1.747005015802     0.524088475045     1.007825032070
           H          2.428225143140    -0.356745015802     1.398818475045     1.007825032070
           C         -1.069388856860     1.276801984198    -0.586697524955    12.000000000000
           C         -0.693361856860     2.134764984198    -1.776156524955    12.000000000000
           H         -1.098417856860     1.852631984198     0.328267475045     1.007825032070
           H         -2.037368856860     0.812843984198    -0.718411524955     1.007825032070
           H          0.280737143140     2.587823984198    -1.631146524955     1.007825032070
           H         -1.424294856860     2.926202984198    -1.906590524955     1.007825032070
           H         -0.663382856860     1.542442984198    -2.683632524955     1.007825032070

  Charge       = 0
  Multiplicity = 1
  Basis Set: 6-31G*
  Basis Set:

    Orbital Energies (a.u.)
    -----------------------

    Doubly Occupied:

       1A    -20.601762     2A    -20.543171     3A    -11.370664
       4A    -11.285162     5A    -11.236505     6A    -11.223364
       7A    -11.222858     8A     -1.467676     9A     -1.361118
      10A     -1.074271    11A     -1.030472    12A     -0.906626
      13A     -0.857846    14A     -0.777999    15A     -0.692480
      16A     -0.678391    17A     -0.672424    18A     -0.621297
      19A     -0.588762    20A     -0.573165    21A     -0.552940
      22A     -0.544459    23A     -0.527087    24A     -0.509995
      25A     -0.504022    26A     -0.494312    27A     -0.452189
      28A     -0.431179

  @DF-RHF Final Energy:  -344.91008540899838

   => Energetics <=

    Nuclear Repulsion Energy =            317.7017759062051709
    One-Electron Energy =               -1099.6194189257323615
    Two-Electron Energy =                 437.0075576105282380
    DFT Exchange-Correlation Energy =       0.0000000000000000
    Empirical Dispersion Energy =           0.0000000000000000
    PCM Polarization Energy =               0.0000000000000000
    EFP Energy =                            0.0000000000000000
    Total Energy =                       -344.9100854089989525

  Mulliken Charges: (a.u.)
   Center  Symbol    Alpha    Beta     Spin     Total
       1     O     4.28636  4.28636  0.00000 -0.57272
       2     C     2.61125  2.61125  0.00000  0.77750
       3     C     3.19884  3.19884  0.00000 -0.39767
       4     O     4.30905  4.30905  0.00000 -0.61810
       5     C     3.24802  3.24802  0.00000 -0.49604
       6     H     0.40324  0.40324  0.00000  0.19351
       7     H     0.39883  0.39883  0.00000  0.20234
       8     H     0.40590  0.40590  0.00000  0.18821
       9     H     0.41362  0.41362  0.00000  0.17276
      10     H     0.41378  0.41378  0.00000  0.17243
      11     C     3.00220  3.00220  0.00000 -0.00440
      12     C     3.24875  3.24875  0.00000 -0.49750
      13     H     0.41001  0.41001  0.00000  0.17997
      14     H     0.41005  0.41005  0.00000  0.17989
      15     H     0.41212  0.41212  0.00000  0.17576
      16     H     0.41608  0.41608  0.00000  0.16785
      17     H     0.41189  0.41189  0.00000  0.17622

   Total alpha = 28.00000, Total beta = 28.00000, Total charge = -0.00000
