  ==> Input File <==

--------------------------------------------------------------------------
set {
	reference rhf
	basis 6-31G*
}

set_num_threads( 4 )
memory 2 gb

molecule MOL {
0 1

H	 -1.772485	 -2.217704	 -4.759210
O	 -2.118120	 -3.085001	 -4.912192
C	 -1.433830	 -4.015407	 -4.112100
C	 -1.802904	 -3.924837	 -2.635514
H	 -1.704387	 -4.990115	 -4.497349
H	 -0.357121	 -3.906170	 -4.236781
C	 -1.418133	 -2.597181	 -1.978134
H	 -2.873613	 -4.083917	 -2.537309
H	 -1.311238	 -4.743317	 -2.112329
C	 -1.752473	 -2.558211	 -0.484308
H	 -1.931206	 -1.785316	 -2.486068
H	 -0.349901	 -2.424200	 -2.109661
C	 -1.309753	 -1.282496	 0.241564
H	 -2.824719	 -2.692781	 -0.353821
H	 -1.279480	 -3.410756	 -0.001456
C	 -2.037799	 -0.007733	 -0.193645
H	 -1.467210	 -1.424432	 1.308746
H	 -0.237137	 -1.148070	 0.110178
C	 -3.489788	 0.042957	 0.286558
H	 -2.017067	 0.064384	 -1.280144
H	 -1.513726	 0.868678	 0.179924
C	 -4.216917	 1.317354	 -0.141063
H	 -4.025645	 -0.823308	 -0.095450
H	 -3.513059	 -0.038752	 1.371301
H	 -4.239342	 1.411634	 -1.223113
H	 -5.243387	 1.322503	 0.212445
H	 -3.726170	 2.201406	 0.256408

	symmetry c1
}
set optking {
	frozen_dihedral = ("
		10 13 16 20
	")
}

ee = optimize('scf')
oeprop('DIPOLE', 'QUADRUPOLE', 'MULLIKEN_CHARGES')
f=open( 'psi4out.xyz', 'w' )
f.write( "27  " )
f.write( str(ee) + "\n" )
f.write( MOL.save_string_xyz() )
f.close()
--------------------------------------------------------------------------

    Molecular point group: c1
  Charge       = 0
  Multiplicity = 1
  Basis Set: 6-31G*
  Basis Set:
  @DF-RHF Final Energy:  -388.27945420192668
    Total Energy =                       -388.2794542019262281
    Molecular point group: c1
  Basis Set: 6-31G*
  Basis Set:
  Basis Set: 6-31G*
  Basis Set:
  @DF-RHF Final Energy:  -388.27972706325613
    Total Energy =                       -388.2797270632567006
  Basis Set: 6-31G*
  Basis Set:
  Basis Set: 6-31G*
  Basis Set:
  @DF-RHF Final Energy:  -388.27979666535123
    Total Energy =                       -388.2797966653508865
  Basis Set: 6-31G*
  Basis Set:
  Basis Set: 6-31G*
  Basis Set:
  @DF-RHF Final Energy:  -388.27986747873598
    Total Energy =                       -388.2798674787354685
  Basis Set: 6-31G*
  Basis Set:
  Basis Set: 6-31G*
  Basis Set:
  @DF-RHF Final Energy:  -388.27987260941211
    Total Energy =                       -388.2798726094121093
  Basis Set: 6-31G*
  Basis Set:
  Charge       = 0
  Multiplicity = 1
  Basis Set: 6-31G*
  Basis Set:

    Orbital Energies (a.u.)
    -----------------------

    Doubly Occupied:

       1A    -20.552556     2A    -11.267257     3A    -11.219952
       4A    -11.217010     5A    -11.215989     6A    -11.215427
       7A    -11.215292     8A    -11.214355     9A    -11.208935
      10A     -1.359288    11A     -1.094987    12A     -1.060368
      13A     -1.010167    14A     -0.949082    15A     -0.887285
      16A     -0.828524    17A     -0.803081    18A     -0.767433
      19A     -0.693957    20A     -0.652617    21A     -0.635474
      22A     -0.611950    23A     -0.602239    24A     -0.589238
      25A     -0.575702    26A     -0.563929    27A     -0.533017
      28A     -0.525537    29A     -0.510034    30A     -0.493011
      31A     -0.488783    32A     -0.480765    33A     -0.467413
      34A     -0.452545    35A     -0.446721    36A     -0.445389
      37A     -0.423820

  @DF-RHF Final Energy:  -388.27987301864647

   => Energetics <=

    Nuclear Repulsion Energy =            465.7092858011373551
    One-Electron Energy =               -1449.4200631643229826
    Two-Electron Energy =                 595.4309043445389307
    DFT Exchange-Correlation Energy =       0.0000000000000000
    Empirical Dispersion Energy =           0.0000000000000000
    PCM Polarization Energy =               0.0000000000000000
    EFP Energy =                            0.0000000000000000
    Total Energy =                       -388.2798730186466400
    Molecular point group: c1
  Basis Set: 6-31G*
  Basis Set:

  -Total Gradient:
     Atom            X                  Y                   Z
    ------   -----------------  -----------------  -----------------
       1        0.000005394300    -0.000009320092    -0.000000827388
       2       -0.000013057690    -0.000016993508    -0.000014262007
       3        0.000019562773     0.000033016312     0.000003907048
       4       -0.000039294254    -0.000011479024    -0.000001408638
       5       -0.000003565434     0.000007306914    -0.000001436340
       6        0.000004089185    -0.000002707470    -0.000000872683
       7        0.000087850064    -0.000045521170     0.000052607591
       8       -0.000014266747    -0.000008364125     0.000001899059
       9       -0.000004789947     0.000023764651     0.000004119806
      10        0.000836801919     0.000174099208    -0.000837101832
      11       -0.000035210788    -0.000015092969    -0.000005392158
      12        0.000013555898     0.000041284242    -0.000012402099
      13       -0.001419654713    -0.000483552465     0.001249797602
      14        0.000046258509     0.000028131275    -0.000024881224
      15       -0.000054845264    -0.000010840289     0.000025051005
      16        0.001991629019     0.001053377044    -0.000376930481
      17        0.000100057086    -0.000067736796     0.000030937434
      18       -0.000015565087    -0.000065581312    -0.000058625594
      19       -0.000055978517     0.000112759777     0.000048037764
      20       -0.001319339244    -0.000668592039    -0.000077166513
      21        0.000009593585    -0.000086340178     0.000001825112
      22       -0.000100659457    -0.000077322880    -0.000029059206
      23       -0.000015942686     0.000065528048     0.000024951246
      24       -0.000018726321     0.000039101959     0.000009220649
      25        0.000010758602     0.000017949676    -0.000009647079
      26       -0.000019583994     0.000014496867    -0.000025345577
      27        0.000004929203    -0.000041371659     0.000023004503

  **** Optimization is complete! (in 6 steps) ****
    Final optimized geometry and variables:
    Molecular point group: c1

    Geometry (in Angstrom), charge = 0, multiplicity = 1:

    H            0.449725506166    -0.457356750743    -3.175874695874
    O            0.104769213511    -1.326060409068    -3.322266778362
    C            0.785393365559    -2.248523616247    -2.509882649794
    C            0.400443230229    -2.151212166227    -1.037787649764
    H            0.523415700678    -3.226708162250    -2.892202403298
    H            1.862754528834    -2.134826545273    -2.624186535220
    C            0.768663132971    -0.816275116418    -0.385615077590
    H           -0.669997044580    -2.317774259330    -0.949421535806
    H            0.892771422669    -2.962520179177    -0.504245697680
    C            0.421940259239    -0.771506554486     1.105216325643
    H            0.253193234779    -0.012890579029    -0.904558221179
    H            1.836244081747    -0.634499987876    -0.509594703689
    C            0.847574510873     0.517066890405     1.822689890604
    H           -0.645642687835    -0.935481570377     1.229440843556
    H            0.910873781898    -1.609492980169     1.597560717430
    C            0.103009829207     1.796070410718     1.413040397553
    H            0.731758538774     0.375241162043     2.895094380940
    H            1.912825861949     0.663242904568     1.654177309649
    C           -1.338808563081     1.875505518516     1.925098620212
    H            0.096020473839     1.896858379748     0.330539501076
    H            0.653594020814     2.653220311843     1.794135577259
    C           -2.036280599695     3.176076075514     1.526920008857
    H           -1.915008065385     1.034811654968     1.548007594216
    H           -1.338941127532     1.783968301057     3.009320260361
    H           -2.080001920320     3.283137432144     0.446619655647
    H           -3.054188249986     3.208298740476     1.902960346116
    H           -1.509861751621     4.040211487457     1.922465353652

  Mulliken Charges: (a.u.)
   Center  Symbol    Alpha    Beta     Spin     Total
       1     H     0.27987  0.27987  0.00000  0.44025
       2     O     4.37093  4.37093  0.00000 -0.74186
       3     C     2.99755  2.99755  0.00000  0.00489
       4     C     3.16067  3.16067  0.00000 -0.32134
       5     H     0.41441  0.41441  0.00000  0.17118
       6     H     0.43193  0.43193  0.00000  0.13614
       7     C     3.16278  3.16278  0.00000 -0.32556
       8     H     0.41515  0.41515  0.00000  0.16971
       9     H     0.42425  0.42425  0.00000  0.15150
      10     C     3.15378  3.15378  0.00000 -0.30755
      11     H     0.42359  0.42359  0.00000  0.15283
      12     H     0.42530  0.42530  0.00000  0.14940
      13     C     3.15591  3.15591  0.00000 -0.31181
      14     H     0.42006  0.42006  0.00000  0.15988
      15     H     0.42131  0.42131  0.00000  0.15737
      16     C     3.15384  3.15384  0.00000 -0.30768
      17     H     0.42102  0.42102  0.00000  0.15796
      18     H     0.42270  0.42270  0.00000  0.15460
      19     C     3.15288  3.15288  0.00000 -0.30577
      20     H     0.42384  0.42384  0.00000  0.15233
      21     H     0.42157  0.42157  0.00000  0.15686
      22     C     3.23907  3.23907  0.00000 -0.47814
      23     H     0.42140  0.42140  0.00000  0.15721
      24     H     0.42321  0.42321  0.00000  0.15359
      25     H     0.42201  0.42201  0.00000  0.15597
      26     H     0.41901  0.41901  0.00000  0.16198
      27     H     0.42197  0.42197  0.00000  0.15606

   Total alpha = 37.00000, Total beta = 37.00000, Total charge =  0.00000
