  ==> Input File <==

--------------------------------------------------------------------------
set {
	reference rhf
	basis cc-pvtz
}

set_num_threads( 4 )
memory 2 gb

molecule MOL {
0 1

H	 2.210896	 0.085712	 -0.700579
O	 1.450374	 -0.474716	 -0.732095
C	 0.489979	 0.078084	 0.002623
C	 -0.763662	 -0.754014	 0.000816
O	 0.640236	 1.105717	 0.567694
C	 -2.038001	 0.074705	 -0.000833
H	 -0.712945	 -1.405886	 -0.864342
H	 -0.715137	 -1.405770	 0.866182
H	 -2.087267	 0.710831	 -0.874232
H	 -2.903419	 -0.576199	 -0.001922
H	 -2.089467	 0.710909	 0.872389

	symmetry c1
}
set optking {
	frozen_dihedral = ("
		2 3 4 7
	")
}

ee = optimize('scf')
oeprop('DIPOLE', 'QUADRUPOLE', 'MULLIKEN_CHARGES')
f=open( 'psi4out.xyz', 'w' )
f.write( "11  " )
f.write( str(ee) + "\n" )
f.write( MOL.save_string_xyz() )
f.close()
--------------------------------------------------------------------------

    Molecular point group: c1
  Charge       = 0
  Multiplicity = 1
  Basis Set: CC-PVTZ
  Basis Set:
  @DF-RHF Final Energy:  -266.95180999352306
    Total Energy =                       -266.9518099935228861
    Molecular point group: c1
  Basis Set: CC-PVTZ
  Basis Set:
  Basis Set: CC-PVTZ
  Basis Set:
  @DF-RHF Final Energy:  -266.95194975437107
    Total Energy =                       -266.9519497543710145
  Basis Set: CC-PVTZ
  Basis Set:
  Basis Set: CC-PVTZ
  Basis Set:
  @DF-RHF Final Energy:  -266.95147977236741
    Total Energy =                       -266.9514797723674064
  Basis Set: CC-PVTZ
  Basis Set:
  Basis Set: CC-PVTZ
  Basis Set:
  @DF-RHF Final Energy:  -266.95216349020120
    Total Energy =                       -266.9521634902012579
  Basis Set: CC-PVTZ
  Basis Set:
  Charge       = 0
  Multiplicity = 1
  Basis Set: CC-PVTZ
  Basis Set:

    Orbital Energies (a.u.)
    -----------------------

    Doubly Occupied:

       1A    -20.606720     2A    -20.539913     3A    -11.374583
       4A    -11.242379     5A    -11.221559     6A     -1.479194
       7A     -1.369869     8A     -1.066443     9A     -0.917989
      10A     -0.807820    11A     -0.706834    12A     -0.692852
      13A     -0.658387    14A     -0.604581    15A     -0.596674
      16A     -0.535634    17A     -0.527583    18A     -0.508384
      19A     -0.481863    20A     -0.447513

  @DF-RHF Final Energy:  -266.95216626045999

   => Energetics <=

    Nuclear Repulsion Energy =            180.0734830961416435
    One-Electron Energy =                -721.2777531315584838
    Two-Electron Energy =                 274.2521037749567085
    DFT Exchange-Correlation Energy =       0.0000000000000000
    Empirical Dispersion Energy =           0.0000000000000000
    PCM Polarization Energy =               0.0000000000000000
    EFP Energy =                            0.0000000000000000
    Total Energy =                       -266.9521662604601033
    Molecular point group: c1
  Basis Set: CC-PVTZ
  Basis Set:

  -Total Gradient:
     Atom            X                  Y                   Z
    ------   -----------------  -----------------  -----------------
       1       -0.000012401967     0.000017879411    -0.000009113503
       2       -0.000284246105     0.000477545611    -0.001035799720
       3        0.000544032369    -0.000825202147     0.001671647041
       4       -0.001028930702     0.001587176072    -0.001380930197
       5       -0.000007940221    -0.000139785992    -0.000073179391
       6        0.000067622898    -0.000073861190    -0.000022140662
       7        0.000673582884    -0.001013602229     0.000815636219
       8        0.000038544194    -0.000031018845     0.000028212532
       9       -0.000007719044     0.000007731756    -0.000011271221
      10       -0.000002825693     0.000005839837     0.000001486749
      11        0.000020281387    -0.000012702284     0.000015452153

  **** Optimization is complete! (in 5 steps) ****
    Final optimized geometry and variables:
    Molecular point group: c1

    Geometry (in Angstrom), charge = 0, multiplicity = 1:

    H            2.241572159980     0.079910711134    -0.601963306789
    O            1.478503627301    -0.473172236187    -0.681057306268
    C            0.496692777589     0.063070777104     0.035570842550
    C           -0.756073007093    -0.773585203201     0.018936571363
    O            0.629583861047     1.080593487270     0.623668478473
    C           -2.027453015279     0.064258410058     0.051900791283
    H           -0.725242370939    -1.438452476878    -0.832596181887
    H           -0.701425417484    -1.403399143018     0.902476422960
    H           -2.111032993925     0.681560616817    -0.834347914548
    H           -2.896271406926    -0.580243570756     0.095925788758
    H           -2.035546538392     0.715267482070     0.914323264872

  Mulliken Charges: (a.u.)
   Center  Symbol    Alpha    Beta     Spin     Total
       1     H     0.38056  0.38056  0.00000  0.23888
       2     O     4.15901  4.15901  0.00000 -0.31802
       3     C     2.80472  2.80472  0.00000  0.39056
       4     C     3.09455  3.09455  0.00000 -0.18910
       5     O     4.19495  4.19495  0.00000 -0.38990
       6     C     3.14179  3.14179  0.00000 -0.28358
       7     H     0.43680  0.43680  0.00000  0.12641
       8     H     0.44449  0.44449  0.00000  0.11101
       9     H     0.45213  0.45213  0.00000  0.09575
      10     H     0.44910  0.44910  0.00000  0.10180
      11     H     0.44189  0.44189  0.00000  0.11621

   Total alpha = 20.00000, Total beta = 20.00000, Total charge = -0.00000
