  ==> Input File <==

--------------------------------------------------------------------------
set {
	reference rhf
	basis 6-31G*
}

set_num_threads( 1 )
memory 2 gb

molecule MOL {
0 1

O	 -1.296855	 0.949768	 -0.734536
C	 -1.083277	 0.139568	 0.115197
C	 0.323299	 -0.082943	 0.642902
C	 -2.187867	 -0.719549	 0.689328
C	 1.355627	 -0.005344	 -0.493127
H	 0.396251	 -1.044647	 1.143147
H	 0.528637	 0.693580	 1.371677
C	 2.786168	 -0.195604	 0.007473
H	 1.132807	 -0.760304	 -1.243899
H	 1.259610	 0.958506	 -0.981915
H	 3.495561	 -0.130713	 -0.811210
H	 2.912696	 -1.165395	 0.480041
H	 3.049284	 0.565503	 0.735850
H	 -1.915653	 -1.770462	 0.655416
H	 -3.104705	 -0.559540	 0.139289
H	 -2.344389	 -0.462732	 1.733718

	symmetry c1
}
set optking {
	frozen_dihedral = ("
		9 5 3 2
	")
}

ee = energy('scf')
oeprop('DIPOLE', 'QUADRUPOLE', 'MULLIKEN_CHARGES')
f=open( 'psi4out.xyz', 'w' )
f.write( "16  " )
f.write( str(ee) + "\n" )
f.write( MOL.save_string_xyz() )
f.close()
--------------------------------------------------------------------------

    Molecular point group: c1

    Geometry (in Angstrom), charge = 0, multiplicity = 1:

       Center              X                  Y                   Z               Mass
    ------------   -----------------  -----------------  -----------------  -----------------
           O         -1.285663918535     0.936755539555    -0.769852030757    15.994914619560
           C         -1.072085918535     0.126555539555     0.079880969243    12.000000000000
           C          0.334490081465    -0.095955460445     0.607585969243    12.000000000000
           C         -2.176675918535    -0.732561460445     0.654011969243    12.000000000000
           C          1.366818081465    -0.018356460445    -0.528443030757    12.000000000000
           H          0.407442081465    -1.057659460445     1.107830969243     1.007825032070
           H          0.539828081465     0.680567539555     1.336360969243     1.007825032070
           C          2.797359081465    -0.208616460445    -0.027843030757    12.000000000000
           H          1.143998081465    -0.773316460445    -1.279215030757     1.007825032070
           H          1.270801081465     0.945493539555    -1.017231030757     1.007825032070
           H          3.506752081465    -0.143725460445    -0.846526030757     1.007825032070
           H          2.923887081465    -1.178407460445     0.444724969243     1.007825032070
           H          3.060475081465     0.552490539555     0.700533969243     1.007825032070
           H         -1.904461918535    -1.783474460445     0.620099969243     1.007825032070
           H         -3.093513918535    -0.572552460445     0.103972969243     1.007825032070
           H         -2.333197918535    -0.475744460445     1.698401969243     1.007825032070

  Charge       = 0
  Multiplicity = 1
  Basis Set: 6-31G*
  Basis Set:

    Orbital Energies (a.u.)
    -----------------------

    Doubly Occupied:

       1A    -20.549174     2A    -11.326297     3A    -11.230926
       4A    -11.229043     5A    -11.223015     6A    -11.214028
       7A     -1.395398     8A     -1.076624     9A     -1.014802
      10A     -0.947612    11A     -0.822998    12A     -0.733217
      13A     -0.657593    14A     -0.649348    15A     -0.619174
      16A     -0.600327    17A     -0.570793    18A     -0.559871
      19A     -0.545522    20A     -0.504876    21A     -0.493129
      22A     -0.479263    23A     -0.474041    24A     -0.399708

  @DF-RHF Final Energy:  -270.03037408968703

   => Energetics <=

    Nuclear Repulsion Energy =            237.1697158790132676
    One-Electron Energy =                -835.7666640071388429
    Two-Electron Energy =                 328.5665740384379774
    DFT Exchange-Correlation Energy =       0.0000000000000000
    Empirical Dispersion Energy =           0.0000000000000000
    PCM Polarization Energy =               0.0000000000000000
    EFP Energy =                            0.0000000000000000
    Total Energy =                       -270.0303740896876548

  Mulliken Charges: (a.u.)
   Center  Symbol    Alpha    Beta     Spin     Total
       1     O     4.26297  4.26297  0.00000 -0.52594
       2     C     2.73572  2.73572  0.00000  0.52856
       3     C     3.20559  3.20559  0.00000 -0.41118
       4     C     3.28787  3.28787  0.00000 -0.57574
       5     C     3.15433  3.15433  0.00000 -0.30867
       6     H     0.41539  0.41539  0.00000  0.16922
       7     H     0.40293  0.40293  0.00000  0.19415
       8     C     3.24076  3.24076  0.00000 -0.48151
       9     H     0.41902  0.41902  0.00000  0.16197
      10     H     0.40231  0.40231  0.00000  0.19537
      11     H     0.41590  0.41590  0.00000  0.16820
      12     H     0.42286  0.42286  0.00000  0.15429
      13     H     0.42099  0.42099  0.00000  0.15802
      14     H     0.40944  0.40944  0.00000  0.18113
      15     H     0.39700  0.39700  0.00000  0.20600
      16     H     0.40693  0.40693  0.00000  0.18614

   Total alpha = 24.00000, Total beta = 24.00000, Total charge = -0.00000
