  ==> Input File <==

--------------------------------------------------------------------------
set {
	reference rhf
	basis 6-31G*
}

set_num_threads( 4 )
memory 2 gb

molecule MOL {
0 1

O	 -2.042549	 -1.228399	 -0.269030
C	 -1.653912	 -0.146171	 0.050137
C	 -0.332303	 0.024011	 0.778412
C	 -2.438579	 1.106236	 -0.272369
C	 0.783137	 0.433300	 -0.196343
H	 -0.424542	 0.765418	 1.567203
H	 -0.083600	 -0.927445	 1.235357
C	 2.140203	 0.585880	 0.492223
H	 0.520746	 1.371042	 -0.683040
H	 0.850293	 -0.315672	 -0.979716
C	 3.253086	 0.984110	 -0.476339
H	 2.063534	 1.330566	 1.281520
H	 2.401787	 -0.350846	 0.978728
H	 3.036240	 1.935291	 -0.954131
H	 3.375239	 0.241320	 -1.259144
H	 4.203523	 1.081960	 0.038562
H	 -3.277823	 0.863061	 -0.908988
H	 -1.806773	 1.843019	 -0.759671
H	 -2.802853	 1.554979	 0.648059

	symmetry c1
}
set optking {
	frozen_dihedral = ("
		5 3 2 4
	")
}

ee = optimize('scf')
oeprop('DIPOLE', 'QUADRUPOLE', 'MULLIKEN_CHARGES')
f=open( 'psi4out.xyz', 'w' )
f.write( "19  " )
f.write( str(ee) + "\n" )
f.write( MOL.save_string_xyz() )
f.close()
--------------------------------------------------------------------------

    Molecular point group: c1
  Charge       = 0
  Multiplicity = 1
  Basis Set: 6-31G*
  Basis Set:
  @DF-RHF Final Energy:  -309.06479914614215
    Total Energy =                       -309.0647991461419224
    Molecular point group: c1
  Basis Set: 6-31G*
  Basis Set:
  Basis Set: 6-31G*
  Basis Set:
  @DF-RHF Final Energy:  -309.06466470542625
    Total Energy =                       -309.0646647054261962
  Basis Set: 6-31G*
  Basis Set:
  Basis Set: 6-31G*
  Basis Set:
  @DF-RHF Final Energy:  -309.06458763445528
    Total Energy =                       -309.0645876344549947
  Basis Set: 6-31G*
  Basis Set:
  Basis Set: 6-31G*
  Basis Set:
  @DF-RHF Final Energy:  -309.06490572863299
    Total Energy =                       -309.0649057286330503
  Basis Set: 6-31G*
  Basis Set:
  Basis Set: 6-31G*
  Basis Set:
  @DF-RHF Final Energy:  -309.06465794372178
    Total Energy =                       -309.0646579437217270
  Basis Set: 6-31G*
  Basis Set:
  Basis Set: 6-31G*
  Basis Set:
  @DF-RHF Final Energy:  -309.06491097472212
    Total Energy =                       -309.0649109747218972
  Basis Set: 6-31G*
  Basis Set:
  Charge       = 0
  Multiplicity = 1
  Basis Set: 6-31G*
  Basis Set:

    Orbital Energies (a.u.)
    -----------------------

    Doubly Occupied:

       1A    -20.547977     2A    -11.324392     3A    -11.232660
       4A    -11.229667     5A    -11.227673     6A    -11.226174
       7A    -11.216153     8A     -1.393233     9A     -1.093079
      10A     -1.029283    11A     -0.982981    12A     -0.891931
      13A     -0.808570    14A     -0.733352    15A     -0.664220
      16A     -0.645643    17A     -0.623856    18A     -0.613633
      19A     -0.581793    20A     -0.574579    21A     -0.553295
      22A     -0.536245    23A     -0.509390    24A     -0.503564
      25A     -0.484305    26A     -0.476973    27A     -0.469402
      28A     -0.397048

  @DF-RHF Final Energy:  -309.06491117752893

   => Energetics <=

    Nuclear Repulsion Energy =            301.1105817616067384
    One-Electron Energy =               -1015.2088419315450665
    Two-Electron Energy =                 405.0333489924095147
    DFT Exchange-Correlation Energy =       0.0000000000000000
    Empirical Dispersion Energy =           0.0000000000000000
    PCM Polarization Energy =               0.0000000000000000
    EFP Energy =                            0.0000000000000000
    Total Energy =                       -309.0649111775288702
    Molecular point group: c1
  Basis Set: 6-31G*
  Basis Set:

  -Total Gradient:
     Atom            X                  Y                   Z
    ------   -----------------  -----------------  -----------------
       1       -0.000002217763    -0.000007208709     0.000004153364
       2       -0.000479546415     0.000176094720     0.000851334010
       3        0.000334530482    -0.000847005742    -0.000397746789
       4        0.000270637376     0.000035101475    -0.000541907576
       5       -0.000147663131     0.000649331283     0.000105980485
       6        0.000015715159    -0.000003286683    -0.000018452737
       7       -0.000005947501    -0.000013453811     0.000013218649
       8       -0.000003317286     0.000001100558     0.000003981518
       9       -0.000002180498     0.000009210263    -0.000013161726
      10       -0.000007646152     0.000002037388     0.000018678811
      11        0.000003181015    -0.000009506820    -0.000000789307
      12        0.000001149891     0.000002337661    -0.000005648253
      13        0.000000029412     0.000001265300     0.000005342575
      14       -0.000002405763    -0.000002016513     0.000003970249
      15        0.000001917503    -0.000000440057    -0.000003709360
      16        0.000001056077    -0.000002478821    -0.000001052803
      17        0.000004408317     0.000000033835    -0.000003919408
      18        0.000011434994    -0.000005630923    -0.000011124497
      19        0.000006864287     0.000014515600    -0.000009147203

  **** Optimization is complete! (in 7 steps) ****
    Final optimized geometry and variables:
    Molecular point group: c1

    Geometry (in Angstrom), charge = 0, multiplicity = 1:

    O           -2.016537588453    -1.489360992540    -0.254390330433
    C           -1.622558586551    -0.403998779819     0.047260338341
    C           -0.292918178835    -0.220609287056     0.756250907525
    C           -2.423230779636     0.840907826563    -0.272980831174
    C            0.826977783621     0.191795229228    -0.212649911993
    H           -0.392671591478     0.532196114007     1.534847017849
    H           -0.043855948857    -1.164280800985     1.226717558900
    C            2.182620556589     0.322645934201     0.484046115734
    H            0.578842854567     1.137153378192    -0.689385068447
    H            0.896910296080    -0.548228233557    -1.005788019759
    C            3.303918711948     0.723228035899    -0.473678959289
    H            2.107847102562     1.057967522150     1.282214385551
    H            2.433198667767    -0.622261005096     0.959941717165
    H            3.098159866990     1.682310455186    -0.940508335411
    H            3.424111040563    -0.010736417890    -1.265127729405
    H            4.252319459524     0.806128054022     0.047479654665
    H           -3.268490641870     0.580541893869    -0.894662998366
    H           -1.813664659793     1.584279497910    -0.776004244430
    H           -2.782510036444     1.290009990047     0.649246568931

  Mulliken Charges: (a.u.)
   Center  Symbol    Alpha    Beta     Spin     Total
       1     O     4.26048  4.26048  0.00000 -0.52095
       2     C     2.73682  2.73682  0.00000  0.52637
       3     C     3.20123  3.20123  0.00000 -0.40247
       4     C     3.28989  3.28989  0.00000 -0.57978
       5     C     3.16283  3.16283  0.00000 -0.32567
       6     H     0.41614  0.41614  0.00000  0.16772
       7     H     0.39989  0.39989  0.00000  0.20022
       8     C     3.15153  3.15153  0.00000 -0.30306
       9     H     0.42031  0.42031  0.00000  0.15938
      10     H     0.40999  0.40999  0.00000  0.18002
      11     C     3.24042  3.24042  0.00000 -0.48084
      12     H     0.42182  0.42182  0.00000  0.15637
      13     H     0.41844  0.41844  0.00000  0.16312
      14     H     0.42124  0.42124  0.00000  0.15751
      15     H     0.41905  0.41905  0.00000  0.16191
      16     H     0.41699  0.41699  0.00000  0.16602
      17     H     0.39659  0.39659  0.00000  0.20683
      18     H     0.40916  0.40916  0.00000  0.18167
      19     H     0.40719  0.40719  0.00000  0.18563

   Total alpha = 28.00000, Total beta = 28.00000, Total charge =  0.00000
