                              Psi4 1.0.54 Driver

  ==> Input File <==

--------------------------------------------------------------------------
set {
	reference rhf
	basis cc-pvtz
}

set_num_threads( 4 )
memory 2 gb

molecule MOL {
0 1

H	 -3.268214	 -0.875720	 0.463107
C	 -2.806015	 0.000007	 0.024886
N	 -1.391133	 0.000016	 0.301321
H	 -3.029448	 0.000055	 -1.045738
H	 -3.268126	 0.875758	 0.463150
C	 -1.015877	 1.025050	 1.251092
C	 -0.595104	 0.097801	 -0.902966
H	 -1.237876	 2.025097	 0.867069
H	 -1.590524	 0.888639	 2.159529
C	 0.463341	 0.938508	 1.577337
H	 -0.862562	 -0.715534	 -1.567076
H	 -0.788416	 1.034639	 -1.433826
C	 0.884114	 0.011259	 -0.576721
H	 0.730799	 1.751843	 2.241447
H	 0.656653	 0.001670	 2.108197
N	 1.259370	 1.036293	 0.373050
H	 1.458761	 0.147670	 -1.485158
H	 1.106113	 -0.988788	 -0.192698
C	 2.674252	 1.036302	 0.649485
H	 2.921011	 1.854930	 1.313956
H	 3.230286	 1.173341	 -0.269541
H	 3.015755	 0.107827	 1.115819

	symmetry c1
}
set optking {
	frozen_dihedral = ("
		6 3 2 4
	")
}

ee,wfn = optimize('scf', return_wfn=True)
oeprop( wfn, 'DIPOLE', 'QUADRUPOLE', 'MULLIKEN_CHARGES')
f=open( 'psi4out.xyz', 'w' )
f.write( "22  " )
f.write( str(ee) + "\n" )
f.write( MOL.save_string_xyz() )
f.close()
--------------------------------------------------------------------------

    Molecular point group: c1
  Charge       = 0
  Multiplicity = 1
  Basis Set: CC-PVTZ
  Basis Set:
  @DF-RHF Final Energy:  -344.34400800824312
    Total Energy =                       -344.3440080082432360
    Molecular point group: c1
  Basis Set: CC-PVTZ
  Basis Set:
  Basis Set: CC-PVTZ
  Basis Set:
  @DF-RHF Final Energy:  -344.34460093609567
    Total Energy =                       -344.3446009360956168
  Basis Set: CC-PVTZ
  Basis Set:
  Basis Set: CC-PVTZ
  Basis Set:
  @DF-RHF Final Energy:  -344.34471593949007
    Total Energy =                       -344.3447159394899018
  Basis Set: CC-PVTZ
  Basis Set:
  Charge       = 0
  Multiplicity = 1
  Basis Set: CC-PVTZ
  Basis Set:

    Orbital Energies (a.u.)
    -----------------------

    Doubly Occupied:

       1A    -15.537045     2A    -15.534668     3A    -11.237269
       4A    -11.237209     5A    -11.236292     6A    -11.236277
       7A    -11.233976     8A    -11.233873     9A     -1.255120
      10A     -1.203332    11A     -1.025325    12A     -0.991779
      13A     -0.912620    14A     -0.867379    15A     -0.836689
      16A     -0.754908    17A     -0.665911    18A     -0.635891
      19A     -0.631423    20A     -0.624615    21A     -0.620992
      22A     -0.580729    23A     -0.551851    24A     -0.549878
      25A     -0.542128    26A     -0.520106    27A     -0.498053
      28A     -0.487332    29A     -0.465378    30A     -0.456300
      31A     -0.350997    32A     -0.343529

  @DF-RHF Final Energy:  -344.34471761364370

   => Energetics <=

    Nuclear Repulsion Energy =            421.4298104992247431
    One-Electron Energy =               -1301.8313124629557933
    Two-Electron Energy =                 536.0567843500875824
    DFT Exchange-Correlation Energy =       0.0000000000000000
    Empirical Dispersion Energy =           0.0000000000000000
    PCM Polarization Energy =               0.0000000000000000
    EFP Energy =                            0.0000000000000000
    Total Energy =                       -344.3447176136435246
    Molecular point group: c1
  Basis Set: CC-PVTZ
  Basis Set:

  -Total Gradient:
     Atom            X                  Y                   Z
    ------   -----------------  -----------------  -----------------
       1       -0.000000493815    -0.000016152839     0.000010096125
       2        0.000066531170    -0.001729386727    -0.000434314561
       3       -0.000386242227    -0.000778667529     0.001343857492
       4       -0.000064517214     0.001637131645     0.000063317782
       5       -0.000009167146     0.000008133696     0.000001239386
       6        0.000217127709     0.000933002245    -0.000927102832
       7        0.000136400763     0.000021063309    -0.000009459763
       8       -0.000017884367    -0.000032585536    -0.000010496343
       9       -0.000004543759    -0.000030850633    -0.000036673187
      10        0.000015734607    -0.000057350625    -0.000001396997
      11       -0.000006739649     0.000007135361     0.000039721851
      12        0.000004851174    -0.000030704166     0.000028890552
      13        0.000022255262     0.000024825106    -0.000064845051
      14        0.000020936358     0.000009170153     0.000001606592
      15        0.000008632693     0.000003280392     0.000004789152
      16       -0.000014045950     0.000013613812    -0.000009973604
      17        0.000072323733     0.000005548856    -0.000004521075
      18       -0.000023774221     0.000030018078    -0.000003228933
      19       -0.000011461988    -0.000021583256     0.000010251275
      20       -0.000009729731     0.000002892739     0.000001263747
      21       -0.000015357029    -0.000000374187    -0.000002252600
      22       -0.000000836370     0.000001840106    -0.000000769008

  **** Optimization is complete! (in 4 steps) ****
    Final optimized geometry and variables:
    Molecular point group: c1

    Geometry (in Angstrom), charge = 0, multiplicity = 1:

    H           -3.221405890521    -1.405775862120     0.074930193500
    C           -2.757553621456    -0.518004318795    -0.340553718462
    N           -1.330464421870    -0.489566341616    -0.066280331185
    H           -2.952328990372    -0.501614933978    -1.406519509388
    H           -3.262653505985     0.347637898534     0.078725903776
    C           -0.954505103702     0.518963279783     0.900416475862
    C           -0.512139703637    -0.396626274828    -1.256538694567
    H           -1.157050623001     1.526856524025     0.526660306351
    H           -1.541973749972     0.379989554738     1.800320709005
    C            0.517837721934     0.407883624935     1.249176618213
    H           -0.774775046294    -1.205184415734    -1.927816037581
    H           -0.680200077693     0.543864227427    -1.789500417724
    C            0.959787672827    -0.506673905379    -0.904819063664
    H            0.786167230580     1.211320163848     1.925206009074
    H            0.688893248254    -0.536591889002     1.774361711805
    N            1.334462610354     0.504972840561     0.059035688560
    H            1.552441349087    -0.372720638304    -1.802261096605
    H            1.159417118993    -1.512891689973    -0.524322837871
    C            2.744347734034     0.482299798295     0.357920422582
    H            2.992007614212     1.291527449027     1.033594483595
    H            3.317079310569     0.619267474401    -0.550880312016
    H            3.065326046778    -0.454986361646     0.821457966161

  Mulliken Charges: (a.u.)
   Center  Symbol    Alpha    Beta     Spin     Total
       1     H     0.44973  0.44973  0.00000  0.10054
       2     C     3.09214  3.09214  0.00000 -0.18427
       3     N     3.61606  3.61606  0.00000 -0.23211
       4     H     0.45972  0.45972  0.00000  0.08057
       5     H     0.46257  0.46257  0.00000  0.07486
       6     C     3.03600  3.03600  0.00000 -0.07200
       7     C     3.03579  3.03579  0.00000 -0.07159
       8     H     0.46804  0.46804  0.00000  0.06392
       9     H     0.45321  0.45321  0.00000  0.09357
      10     C     3.03734  3.03734  0.00000 -0.07467
      11     H     0.45334  0.45334  0.00000  0.09331
      12     H     0.46822  0.46822  0.00000  0.06355
      13     C     3.03710  3.03710  0.00000 -0.07420
      14     H     0.45410  0.45410  0.00000  0.09180
      15     H     0.46859  0.46859  0.00000  0.06282
      16     N     3.61286  3.61286  0.00000 -0.22572
      17     H     0.45409  0.45409  0.00000  0.09183
      18     H     0.46866  0.46866  0.00000  0.06269
      19     C     3.09832  3.09832  0.00000 -0.19664
      20     H     0.45200  0.45200  0.00000  0.09601
      21     H     0.45200  0.45200  0.00000  0.09599
      22     H     0.47013  0.47013  0.00000  0.05973

   Total alpha = 32.00000, Total beta = 32.00000, Total charge =  0.00000

*** Psi4 exiting successfully. Buy a developer a beer!
