  ==> Input File <==

--------------------------------------------------------------------------
set {
	reference rhf
	basis 6-31G*
}

set_num_threads( 4 )
memory 2 gb

molecule MOL {
0 1

H	 -2.013143	 0.216865	 -0.219633
N	 -1.172117	 -0.314371	 -0.100254
C	 -0.024542	 0.565565	 0.069209
H	 -1.301522	 -0.882957	 0.715247
C	 1.271298	 -0.229563	 -0.014192
H	 -0.049409	 1.297310	 -0.731596
H	 -0.046881	 1.125219	 1.006750
H	 1.332152	 -0.753033	 -0.961461
H	 2.134169	 0.422483	 0.080702
H	 1.326077	 -0.968298	 0.781395

	symmetry c1
}
set optking {
	frozen_dihedral = ("
		1 2 3 6
	")
}

ee = optimize('scf')
oeprop('DIPOLE', 'QUADRUPOLE', 'MULLIKEN_CHARGES')
f=open( 'psi4out.xyz', 'w' )
f.write( "10  " )
f.write( str(ee) + "\n" )
f.write( MOL.save_string_xyz() )
f.close()
--------------------------------------------------------------------------

    Molecular point group: c1
  Charge       = 0
  Multiplicity = 1
  Basis Set: 6-31G*
  Basis Set:
  @DF-RHF Final Energy:  -134.24752866289455
    Total Energy =                       -134.2475286628945810
    Molecular point group: c1
  Basis Set: 6-31G*
  Basis Set:
  Basis Set: 6-31G*
  Basis Set:
  @DF-RHF Final Energy:  -134.24754901471795
    Total Energy =                       -134.2475490147178903
  Basis Set: 6-31G*
  Basis Set:
  Basis Set: 6-31G*
  Basis Set:
  @DF-RHF Final Energy:  -134.24755255727973
    Total Energy =                       -134.2475525572797039
  Basis Set: 6-31G*
  Basis Set:
  Charge       = 0
  Multiplicity = 1
  Basis Set: 6-31G*
  Basis Set:

    Orbital Energies (a.u.)
    -----------------------

    Doubly Occupied:

       1A    -15.532693     2A    -11.242612     3A    -11.205337
       4A     -1.175907     5A     -0.986744     6A     -0.823122
       7A     -0.664325     8A     -0.629431     9A     -0.579301
      10A     -0.515328    11A     -0.509984    12A     -0.486048
      13A     -0.381188

  @DF-RHF Final Energy:  -134.24755275601638

   => Energetics <=

    Nuclear Repulsion Energy =             83.3174007239783094
    One-Electron Energy =                -345.6658687271517465
    Two-Electron Energy =                 128.1009152471571042
    DFT Exchange-Correlation Energy =       0.0000000000000000
    Empirical Dispersion Energy =           0.0000000000000000
    PCM Polarization Energy =               0.0000000000000000
    EFP Energy =                            0.0000000000000000
    Total Energy =                       -134.2475527560163187
    Molecular point group: c1
  Basis Set: 6-31G*
  Basis Set:

  -Total Gradient:
     Atom            X                  Y                   Z
    ------   -----------------  -----------------  -----------------
       1        0.000179742685     0.000003759383    -0.001135031800
       2       -0.000361135419     0.000102038356     0.001560359070
       3        0.000777349540    -0.000758128404    -0.001018240905
       4        0.000007540064     0.000010512588    -0.000012846591
       5       -0.000019746600     0.000003206394     0.000014672430
       6       -0.000569359123     0.000631640025     0.000593603034
       7        0.000008063738    -0.000006139528    -0.000001717180
       8       -0.000009278010     0.000009779360    -0.000001951737
       9       -0.000008695966     0.000001704504     0.000001380387
      10       -0.000004480910     0.000001627323    -0.000000226708

  **** Optimization is complete! (in 4 steps) ****
    Final optimized geometry and variables:
    Molecular point group: c1

    Geometry (in Angstrom), charge = 0, multiplicity = 1:

    H           -2.014351165450     0.215983280965    -0.209415883649
    N           -1.172472590597    -0.313963249612    -0.095570870491
    C           -0.021981031932     0.563219232786     0.066653157820
    H           -1.294080646803    -0.896108384619     0.710823680874
    C            1.273140747594    -0.233082119938    -0.012220445640
    H           -0.050455151813     1.295333936715    -0.733701567428
    H           -0.043700737149     1.128038726286     1.001287686218
    H            1.337344415988    -0.755570143147    -0.959719959685
    H            2.136875375763     0.417347440354     0.088553963391
    H            1.321768372910    -0.973595539873     0.781946251609

  Mulliken Charges: (a.u.)
   Center  Symbol    Alpha    Beta     Spin     Total
       1     H     0.33217  0.33217  0.00000  0.33566
       2     N     3.91990  3.91990  0.00000 -0.83980
       3     C     3.06387  3.06387  0.00000 -0.12774
       4     H     0.33482  0.33482  0.00000  0.33036
       5     C     3.23542  3.23542  0.00000 -0.47085
       6     H     0.42018  0.42018  0.00000  0.15964
       7     H     0.43377  0.43377  0.00000  0.13246
       8     H     0.41208  0.41208  0.00000  0.17584
       9     H     0.42290  0.42290  0.00000  0.15420
      10     H     0.42488  0.42488  0.00000  0.15023

   Total alpha = 13.00000, Total beta = 13.00000, Total charge =  0.00000
