                              Psi4 1.0.54 Driver

  ==> Input File <==

--------------------------------------------------------------------------
set {
	reference rhf
	basis cc-pvtz
}

set_num_threads( 4 )
memory 2 gb

molecule MOL {
0 1

H	 -0.288243	 2.439899	 -0.546403
C	 0.341248	 2.050455	 0.264602
C	 0.692262	 0.592428	 0.156232
O	 0.688315	 2.765972	 1.139367
C	 -0.554654	 -0.292621	 0.086567
H	 1.317708	 0.326720	 0.998284
H	 1.276500	 0.465013	 -0.752784
C	 -1.846385	 0.513195	 -0.016346
H	 -0.473986	 -0.956115	 -0.769708
H	 -0.597929	 -0.929215	 0.966651
C	 -3.089953	 -0.365049	 -0.098564
H	 -1.798267	 1.154820	 -0.891143
H	 -1.925398	 1.173265	 0.842889
H	 -3.055079	 -1.012299	 -0.968245
H	 -3.988403	 0.236438	 -0.170014
H	 -3.183055	 -0.995885	 0.779079

	symmetry c1
}
set optking {
	frozen_dihedral = ("
		6 3 5 9
	")
}

ee,wfn = optimize('scf', return_wfn=True)
oeprop( wfn, 'DIPOLE', 'QUADRUPOLE', 'MULLIKEN_CHARGES')
f=open( 'psi4out.xyz', 'w' )
f.write( "16  " )
f.write( str(ee) + "\n" )
f.write( MOL.save_string_xyz() )
f.close()
--------------------------------------------------------------------------

    Molecular point group: c1
  Charge       = 0
  Multiplicity = 1
  Basis Set: CC-PVTZ
  Basis Set:
  @DF-RHF Final Energy:  -270.10669435257472
    Total Energy =                       -270.1066943525748343
    Molecular point group: c1
  Basis Set: CC-PVTZ
  Basis Set:
  Basis Set: CC-PVTZ
  Basis Set:
  @DF-RHF Final Energy:  -270.10684444431342
    Total Energy =                       -270.1068444443134240
  Basis Set: CC-PVTZ
  Basis Set:
  Basis Set: CC-PVTZ
  Basis Set:
  @DF-RHF Final Energy:  -270.10979338908135
    Total Energy =                       -270.1097933890812328
  Basis Set: CC-PVTZ
  Basis Set:
  Basis Set: CC-PVTZ
  Basis Set:
  @DF-RHF Final Energy:  -270.11024608636717
    Total Energy =                       -270.1102460863669990
  Basis Set: CC-PVTZ
  Basis Set:
  @DF-RHF Final Energy:  -270.11013392490065
    Total Energy =                       -270.1101339249007651
  Basis Set: CC-PVTZ
  Basis Set:
  @DF-RHF Final Energy:  -270.11045019608258
    Total Energy =                       -270.1104501960827520
  Basis Set: CC-PVTZ
  Basis Set:
  Basis Set: CC-PVTZ
  Basis Set:
  @DF-RHF Final Energy:  -270.11046534110721
    Total Energy =                       -270.1104653411069876
  Basis Set: CC-PVTZ
  Basis Set:
  Basis Set: CC-PVTZ
  Basis Set:
  @DF-RHF Final Energy:  -270.11046748409387
    Total Energy =                       -270.1104674840941016
  Basis Set: CC-PVTZ
  Basis Set:
  Charge       = 0
  Multiplicity = 1
  Basis Set: CC-PVTZ
  Basis Set:

    Orbital Energies (a.u.)
    -----------------------

    Doubly Occupied:

       1A    -20.550515     2A    -11.320248     3A    -11.234350
       4A    -11.233595     5A    -11.228067     6A    -11.216746
       7A     -1.405340     8A     -1.093539     9A     -1.016489
      10A     -0.906403    11A     -0.834341    12A     -0.772643
      13A     -0.679600    14A     -0.646852    15A     -0.628345
      16A     -0.604131    17A     -0.582249    18A     -0.562962
      19A     -0.525147    20A     -0.513625    21A     -0.493849
      22A     -0.475695    23A     -0.470967    24A     -0.409961

  @DF-RHF Final Energy:  -270.11046839741340

   => Energetics <=

    Nuclear Repulsion Energy =            234.2104727417056438
    One-Electron Energy =                -829.8305683776517299
    Two-Electron Energy =                 325.5096272385325165
    DFT Exchange-Correlation Energy =       0.0000000000000000
    Empirical Dispersion Energy =           0.0000000000000000
    PCM Polarization Energy =               0.0000000000000000
    EFP Energy =                            0.0000000000000000
    Total Energy =                       -270.1104683974135696
    Molecular point group: c1
  Basis Set: CC-PVTZ
  Basis Set:

  -Total Gradient:
     Atom            X                  Y                   Z
    ------   -----------------  -----------------  -----------------
       1       -0.000025058003     0.000001381161    -0.000034441214
       2        0.000002433708    -0.000073082425    -0.000035578415
       3        0.000841824665    -0.001222275552    -0.001452745693
       4        0.000029896857     0.000076779684     0.000091349855
       5        0.000695863231    -0.001232279791     0.001457741148
       6       -0.000810992900     0.001196000738     0.000985650074
       7       -0.000006419340     0.000005577990    -0.000014266550
       8       -0.000032701496     0.000014216985    -0.000008602035
       9       -0.000710602511     0.001213091461    -0.000996882312
      10        0.000001180308     0.000014998890    -0.000001031611
      11        0.000011188731     0.000008947623    -0.000002911735
      12       -0.000001443083    -0.000012329870     0.000005724606
      13        0.000004177198     0.000012038624     0.000003425812
      14       -0.000002380101    -0.000001242321    -0.000000280856
      15        0.000002483156    -0.000000691140     0.000000789072
      16        0.000000549573    -0.000001132054     0.000002059854

  **** Optimization is complete! (in 9 steps) ****
    Final optimized geometry and variables:
    Molecular point group: c1

    Geometry (in Angstrom), charge = 0, multiplicity = 1:

    H            0.654282389553     1.669899319566    -0.891506277788
    C            1.129193242681     1.180191088019    -0.034615830356
    C            1.310303987514    -0.311811557570    -0.143344566524
    O            1.483778281810     1.827689162836     0.889886560099
    C           -0.004529154633    -1.137599422946    -0.194165598779
    H            1.913004203499    -0.610685978415     0.702442652542
    H            1.888296789377    -0.486424566173    -1.045998536631
    C           -1.308735956638    -0.342253660660    -0.290172738408
    H            0.037817200771    -1.813641293511    -1.040207060690
    H           -0.049361435807    -1.757471011622     0.693039105924
    C           -2.533515162072    -1.250265301360    -0.268470507159
    H           -1.321608478963     0.245397215775    -1.203032008626
    H           -1.373623140313     0.363291412315     0.532727829962
    H           -2.516610972805    -1.950697691820    -1.096713097552
    H           -3.447785423023    -0.673475490365    -0.341363585951
    H           -2.576771111760    -1.825539656790     0.649975394617

  Mulliken Charges: (a.u.)
   Center  Symbol    Alpha    Beta     Spin     Total
       1     H     0.46138  0.46138  0.00000  0.07724
       2     C     2.90662  2.90662  0.00000  0.18677
       3     C     3.08446  3.08446  0.00000 -0.16892
       4     O     4.16724  4.16724  0.00000 -0.33447
       5     C     3.09853  3.09853  0.00000 -0.19707
       6     H     0.44143  0.44143  0.00000  0.11714
       7     H     0.44852  0.44852  0.00000  0.10296
       8     C     3.09940  3.09940  0.00000 -0.19880
       9     H     0.44821  0.44821  0.00000  0.10358
      10     H     0.44567  0.44567  0.00000  0.10867
      11     C     3.15006  3.15006  0.00000 -0.30011
      12     H     0.45037  0.45037  0.00000  0.09927
      13     H     0.44458  0.44458  0.00000  0.11085
      14     H     0.45453  0.45453  0.00000  0.09094
      15     H     0.44595  0.44595  0.00000  0.10811
      16     H     0.45307  0.45307  0.00000  0.09385

   Total alpha = 24.00000, Total beta = 24.00000, Total charge = -0.00000

*** Psi4 exiting successfully. Buy a developer a beer!
