  ==> Input File <==

--------------------------------------------------------------------------
set {
	reference rhf
	basis 6-31G*
}

set_num_threads( 4 )
memory 2 gb

molecule MOL {
0 1

O	 -0.988096	 -1.408613	 0.050699
C	 -0.676749	 -0.249230	 -0.009274
C	 -1.746085	 0.827156	 -0.009539
N	 0.623947	 0.147590	 -0.102813
H	 -1.701500	 1.431508	 -0.908902
H	 -2.703425	 0.330732	 0.036390
H	 -1.647323	 1.487769	 0.845106
C	 1.152880	 0.492115	 -1.407960
C	 1.614239	 -0.072960	 0.928170
H	 1.823293	 1.339288	 -1.313823
H	 0.342007	 0.749746	 -2.066786
H	 1.707759	 -0.337390	 -1.840917
H	 2.336201	 0.734661	 0.904556
H	 1.169189	 -0.083826	 1.910385
H	 2.152033	 -1.007902	 0.781632

	symmetry c1
}
set optking {
	frozen_dihedral = ("
		8 4 2 3
	")
}

ee = optimize('scf')
oeprop('DIPOLE', 'QUADRUPOLE', 'MULLIKEN_CHARGES')
f=open( 'psi4out.xyz', 'w' )
f.write( "15  " )
f.write( str(ee) + "\n" )
f.write( MOL.save_string_xyz() )
f.close()
--------------------------------------------------------------------------

    Molecular point group: c1
  Charge       = 0
  Multiplicity = 1
  Basis Set: 6-31G*
  Basis Set:
  @DF-RHF Final Energy:  -285.99785015614407
    Total Energy =                       -285.9978501561440680
    Molecular point group: c1
  Basis Set: 6-31G*
  Basis Set:
  Basis Set: 6-31G*
  Basis Set:
  @DF-RHF Final Energy:  -286.00660870663529
    Total Energy =                       -286.0066087066352907
  Basis Set: 6-31G*
  Basis Set:
  Basis Set: 6-31G*
  Basis Set:
  @DF-RHF Final Energy:  -286.01405465584003
    Total Energy =                       -286.0140546558399137
  Basis Set: 6-31G*
  Basis Set:
  Basis Set: 6-31G*
  Basis Set:
  @DF-RHF Final Energy:  -286.01563776298542
    Total Energy =                       -286.0156377629854774
  Basis Set: 6-31G*
  Basis Set:
  @DF-RHF Final Energy:  -286.01658572675177
    Total Energy =                       -286.0165857267518845
  @DF-RHF Final Energy:  -286.01682981697007
    Total Energy =                       -286.0168298169701302
  Basis Set: 6-31G*
  Basis Set:
  @DF-RHF Final Energy:  -286.01692701638405
    Total Energy =                       -286.0169270163838178
  Basis Set: 6-31G*
  Basis Set:
  Basis Set: 6-31G*
  Basis Set:
  @DF-RHF Final Energy:  -286.01698590336088
    Total Energy =                       -286.0169859033609896
  Basis Set: 6-31G*
  Basis Set:
  Basis Set: 6-31G*
  Basis Set:
  @DF-RHF Final Energy:  -286.01699786128074
    Total Energy =                       -286.0169978612807995
  Basis Set: 6-31G*
  Basis Set:
  Charge       = 0
  Multiplicity = 1
  Basis Set: 6-31G*
  Basis Set:

    Orbital Energies (a.u.)
    -----------------------

    Doubly Occupied:

       1A    -20.543793     2A    -15.571636     3A    -11.347502
       4A    -11.261951     5A    -11.244011     6A    -11.228610
       7A     -1.405478     8A     -1.237100     9A     -1.012861
      10A     -0.965331    11A     -0.903743    12A     -0.736741
      13A     -0.680153    14A     -0.657465    15A     -0.645415
      16A     -0.602722    17A     -0.582007    18A     -0.569391
      19A     -0.557169    20A     -0.537511    21A     -0.523073
      22A     -0.494514    23A     -0.424560    24A     -0.380816

  @DF-RHF Final Energy:  -286.01699859004975

   => Energetics <=

    Nuclear Repulsion Energy =            252.6366102518365722
    One-Electron Energy =                -889.0801138454517059
    Two-Electron Energy =                 350.4265050035654667
    DFT Exchange-Correlation Energy =       0.0000000000000000
    Empirical Dispersion Energy =           0.0000000000000000
    PCM Polarization Energy =               0.0000000000000000
    EFP Energy =                            0.0000000000000000
    Total Energy =                       -286.0169985900496386
    Molecular point group: c1
  Basis Set: 6-31G*
  Basis Set:

  -Total Gradient:
     Atom            X                  Y                   Z
    ------   -----------------  -----------------  -----------------
       1       -0.000003331316     0.000031089117     0.000001492740
       2        0.001764010538    -0.005480789761    -0.009514587383
       3       -0.000284374278     0.001925418377     0.006721574569
       4       -0.004659926859     0.009905781206     0.002078125355
       5        0.000005804685    -0.000001727403    -0.000006004270
       6       -0.000005956531    -0.000003443172     0.000002495069
       7        0.000003023202    -0.000002492631     0.000007451058
       8        0.003170208956    -0.006388110385     0.000732622644
       9       -0.000007828222     0.000016358231     0.000029824130
      10        0.000002462650     0.000000954564     0.000005396934
      11       -0.000001261942     0.000009083289    -0.000017675012
      12        0.000012021198    -0.000002147340    -0.000010168681
      13        0.000009706596     0.000003020729    -0.000005862545
      14       -0.000004371225    -0.000007135321    -0.000013459898
      15       -0.000000187453    -0.000005859498    -0.000011224710

  **** Optimization is complete! (in 10 steps) ****
    Final optimized geometry and variables:
    Molecular point group: c1

    Geometry (in Angstrom), charge = 0, multiplicity = 1:

    O           -0.808402293464    -1.263899012370     0.607961357381
    C           -0.666176605276    -0.183449545264     0.124140717669
    C           -1.851576193487     0.703656983043    -0.181921699301
    N            0.590539743625     0.435099498306    -0.001418038756
    H           -1.665975218227     1.408980477438    -0.981022637446
    H           -2.721099214908     0.101800415972    -0.406883952317
    H           -2.046557901171     1.276087351906     0.719547943235
    C            1.065250883400     0.527131569179    -1.378757266917
    C            1.608269270034    -0.167905834424     0.850538390290
    H            1.937941781051     1.166849173469    -1.411252928093
    H            0.309792526847     0.964705594923    -2.018833077864
    H            1.335065870855    -0.448245343546    -1.780448403996
    H            2.488781505320     0.462842510202     0.825145204918
    H            1.249668614092    -0.220166581170     1.868313982571
    H            1.882451824630    -1.170544039145     0.533748588784

  Mulliken Charges: (a.u.)
   Center  Symbol    Alpha    Beta     Spin     Total
       1     O     4.26952  4.26952  0.00000 -0.53905
       2     C     2.66246  2.66246  0.00000  0.67508
       3     C     3.27326  3.27326  0.00000 -0.54652
       4     N     3.80775  3.80775  0.00000 -0.61550
       5     H     0.41152  0.41152  0.00000  0.17695
       6     H     0.40077  0.40077  0.00000  0.19845
       7     H     0.39812  0.39812  0.00000  0.20375
       8     C     3.15517  3.15517  0.00000 -0.31034
       9     C     3.14548  3.14548  0.00000 -0.29097
      10     H     0.40810  0.40810  0.00000  0.18380
      11     H     0.41154  0.41154  0.00000  0.17693
      12     H     0.41710  0.41710  0.00000  0.16579
      13     H     0.41700  0.41700  0.00000  0.16600
      14     H     0.40568  0.40568  0.00000  0.18865
      15     H     0.41652  0.41652  0.00000  0.16696

   Total alpha = 24.00000, Total beta = 24.00000, Total charge =  0.00000
