  ==> Input File <==

--------------------------------------------------------------------------
set {
	reference rhf
	basis 6-31G*
}

set_num_threads( 1 )
memory 2 gb

molecule MOL {
0 1

H	 3.037589	 3.007092	 -3.854658
C	 3.300940	 2.473319	 -2.946774
C	 2.105947	 2.370970	 -1.999835
H	 3.655861	 1.487878	 -3.233617
H	 4.128771	 3.001091	 -2.480993
C	 2.445094	 1.629045	 -0.705099
H	 1.290922	 1.862929	 -2.505038
H	 1.751697	 3.371966	 -1.758575
C	 1.272806	 1.526557	 0.270864
H	 2.796610	 0.630483	 -0.939519
H	 3.262478	 2.143301	 -0.204633
C	 0.169600	 0.576866	 -0.172154
H	 1.627207	 1.162082	 1.233843
H	 0.843911	 2.506651	 0.467439
C	 -1.181045	 0.701995	 0.511084
O	 0.356728	 -0.251084	 -1.012325
C	 -2.285934	 -0.139295	 -0.145128
H	 -1.449051	 1.751551	 0.493206
H	 -1.071135	 0.403303	 1.551943
C	 -3.651768	 0.085446	 0.506485
H	 -2.346596	 0.110469	 -1.202272
H	 -2.034737	 -1.195320	 -0.088721
C	 -4.759797	 -0.746382	 -0.137905
H	 -3.908762	 1.140117	 0.445781
H	 -3.588286	 -0.154158	 1.565709
H	 -4.868882	 -0.505166	 -1.191300
H	 -4.548009	 -1.809175	 -0.062213
H	 -5.715422	 -0.564821	 0.343442

	symmetry c1
}
set optking {
	frozen_dihedral = ("
		10 6 3 2,
		12 15 17 21
	")
}

ee = energy('scf')
oeprop('DIPOLE', 'QUADRUPOLE', 'MULLIKEN_CHARGES')
f=open( 'psi4out.xyz', 'w' )
f.write( "28  " )
f.write( str(ee) + "\n" )
f.write( MOL.save_string_xyz() )
f.close()
--------------------------------------------------------------------------

    Molecular point group: c1

    Geometry (in Angstrom), charge = 0, multiplicity = 1:

       Center              X                  Y                   Z               Mass
    ------------   -----------------  -----------------  -----------------  -----------------
           H          3.266213527982     2.189422716189    -3.252957681524     1.007825032070
           C          3.529564527982     1.655649716189    -2.345073681524    12.000000000000
           C          2.334571527982     1.553300716189    -1.398134681524    12.000000000000
           H          3.884485527982     0.670208716189    -2.631916681524     1.007825032070
           H          4.357395527982     2.183421716189    -1.879292681524     1.007825032070
           C          2.673718527982     0.811375716189    -0.103398681524    12.000000000000
           H          1.519546527982     1.045259716189    -1.903337681524     1.007825032070
           H          1.980321527982     2.554296716189    -1.156874681524     1.007825032070
           C          1.501430527982     0.708887716189     0.872564318476    12.000000000000
           H          3.025234527982    -0.187186283811    -0.337818681524     1.007825032070
           H          3.491102527982     1.325631716189     0.397067318476     1.007825032070
           C          0.398224527982    -0.240803283811     0.429546318476    12.000000000000
           H          1.855831527982     0.344412716189     1.835543318476     1.007825032070
           H          1.072535527982     1.688981716189     1.069139318476     1.007825032070
           C         -0.952420472018    -0.115674283811     1.112784318476    12.000000000000
           O          0.585352527982    -1.068753283811    -0.410624681524    15.994914619560
           C         -2.057309472018    -0.956964283811     0.456572318476    12.000000000000
           H         -1.220426472018     0.933881716189     1.094906318476     1.007825032070
           H         -0.842510472018    -0.414366283811     2.153643318476     1.007825032070
           C         -3.423143472018    -0.732223283811     1.108185318476    12.000000000000
           H         -2.117971472018    -0.707200283811    -0.600571681524     1.007825032070
           H         -1.806112472018    -2.012989283811     0.512979318476     1.007825032070
           C         -4.531172472018    -1.564051283811     0.463795318476    12.000000000000
           H         -3.680137472018     0.322447716189     1.047481318476     1.007825032070
           H         -3.359661472018    -0.971827283811     2.167409318476     1.007825032070
           H         -4.640257472018    -1.322835283811    -0.589599681524     1.007825032070
           H         -4.319384472018    -2.626844283811     0.539487318476     1.007825032070
           H         -5.486797472018    -1.382490283811     0.945142318476     1.007825032070

  Charge       = 0
  Multiplicity = 1
  Basis Set: 6-31G*
  Basis Set:

    Orbital Energies (a.u.)
    -----------------------

    Doubly Occupied:

       1A    -20.549017     2A    -11.323526     3A    -11.231165
       4A    -11.230886     5A    -11.218321     6A    -11.217383
       7A    -11.217265     8A    -11.213178     9A    -11.209709
      10A    -11.206379    11A     -1.394814    12A     -1.087014
      13A     -1.077200    14A     -1.021166    15A     -0.990680
      16A     -0.909884    17A     -0.866140    18A     -0.805604
      19A     -0.790896    20A     -0.723035    21A     -0.667782
      22A     -0.657381    23A     -0.623923    24A     -0.618888
      25A     -0.609516    26A     -0.582222    27A     -0.579313
      28A     -0.575102    29A     -0.534384    30A     -0.528002
      31A     -0.519657    32A     -0.508098    33A     -0.491389
      34A     -0.481415    35A     -0.471958    36A     -0.469162
      37A     -0.467274    38A     -0.466025    39A     -0.457283
      40A     -0.395105

  @DF-RHF Final Energy:  -426.17057974677630

   => Energetics <=

    Nuclear Repulsion Energy =            530.6634504026072818
    One-Electron Energy =               -1629.6938317525834918
    Two-Electron Energy =                 672.8598016032001397
    DFT Exchange-Correlation Energy =       0.0000000000000000
    Empirical Dispersion Energy =           0.0000000000000000
    PCM Polarization Energy =               0.0000000000000000
    EFP Energy =                            0.0000000000000000
    Total Energy =                       -426.1705797467761840

  Mulliken Charges: (a.u.)
   Center  Symbol    Alpha    Beta     Spin     Total
       1     H     0.41927  0.41927  0.00000  0.16145
       2     C     3.24014  3.24014  0.00000 -0.48028
       3     C     3.15650  3.15650  0.00000 -0.31300
       4     H     0.41823  0.41823  0.00000  0.16354
       5     H     0.42346  0.42346  0.00000  0.15309
       6     C     3.14957  3.14957  0.00000 -0.29914
       7     H     0.41074  0.41074  0.00000  0.17851
       8     H     0.42752  0.42752  0.00000  0.14496
       9     C     3.20774  3.20774  0.00000 -0.41548
      10     H     0.40648  0.40648  0.00000  0.18703
      11     H     0.42154  0.42154  0.00000  0.15692
      12     C     2.73517  2.73517  0.00000  0.52966
      13     H     0.40423  0.40423  0.00000  0.19155
      14     H     0.41271  0.41271  0.00000  0.17458
      15     C     3.20635  3.20635  0.00000 -0.41269
      16     O     4.26755  4.26755  0.00000 -0.53511
      17     C     3.14669  3.14669  0.00000 -0.29337
      18     H     0.41143  0.41143  0.00000  0.17714
      19     H     0.40733  0.40733  0.00000  0.18534
      20     C     3.15339  3.15339  0.00000 -0.30677
      21     H     0.41479  0.41479  0.00000  0.17042
      22     H     0.41178  0.41178  0.00000  0.17644
      23     C     3.23922  3.23922  0.00000 -0.47845
      24     H     0.42429  0.42429  0.00000  0.15143
      25     H     0.42433  0.42433  0.00000  0.15135
      26     H     0.42022  0.42022  0.00000  0.15956
      27     H     0.42010  0.42010  0.00000  0.15980
      28     H     0.41923  0.41923  0.00000  0.16153

   Total alpha = 40.00000, Total beta = 40.00000, Total charge = -0.00000
