                              Psi4 1.0.54 Driver

  ==> Input File <==

--------------------------------------------------------------------------
set {
	reference rhf
	basis cc-pvtz
}

set_num_threads( 4 )
memory 2 gb

molecule MOL {
0 1

O	 -2.817371	 1.303805	 0.047839
C	 -2.664476	 0.129639	 0.028262
C	 -3.797808	 -0.860203	 0.020786
O	 -1.481217	 -0.452708	 0.001092
H	 -4.419576	 -0.664887	 -0.842543
H	 -3.443563	 -1.878338	 -0.002717
H	 -4.401060	 -0.698830	 0.904029
C	 -0.332055	 0.384012	 -0.000250
C	 0.892252	 -0.506059	 -0.000295
H	 -0.360822	 1.020205	 -0.874146
H	 -0.359817	 1.021310	 0.872861
C	 2.188199	 0.299473	 -0.001416
H	 0.857046	 -1.152781	 -0.871031
H	 0.857910	 -1.151798	 0.871202
C	 3.437151	 -0.577593	 -0.000991
H	 2.209565	 0.950707	 -0.871712
H	 2.210062	 0.952234	 0.867721
C	 4.732399	 0.226982	 -0.000914
H	 3.417321	 -1.229122	 -0.869998
H	 3.416993	 -1.228707	 0.868337
H	 4.797903	 0.863451	 -0.876963
H	 5.598517	 -0.424436	 -0.000420
H	 4.797415	 0.864118	 0.874691

	symmetry c1
}
set optking {
	frozen_dihedral = ("
		2 4 8 10
	")
}

ee,wfn = optimize('scf', return_wfn=True)
oeprop( wfn, 'DIPOLE', 'QUADRUPOLE', 'MULLIKEN_CHARGES')
f=open( 'psi4out.xyz', 'w' )
f.write( "23  " )
f.write( str(ee) + "\n" )
f.write( MOL.save_string_xyz() )
f.close()
--------------------------------------------------------------------------

    Molecular point group: c1
  Charge       = 0
  Multiplicity = 1
  Basis Set: CC-PVTZ
  Basis Set:
  @DF-RHF Final Energy:  -423.13481194469637
    Total Energy =                       -423.1348119446961391
    Molecular point group: c1
  Basis Set: CC-PVTZ
  Basis Set:
  Basis Set: CC-PVTZ
  Basis Set:
  @DF-RHF Final Energy:  -423.13459323336536
    Total Energy =                       -423.1345932333651945
  Basis Set: CC-PVTZ
  Basis Set:
  Basis Set: CC-PVTZ
  Basis Set:
  @DF-RHF Final Energy:  -423.13481553132783
    Total Energy =                       -423.1348155313285133
  Basis Set: CC-PVTZ
  Basis Set:
  Charge       = 0
  Multiplicity = 1
  Basis Set: CC-PVTZ
  Basis Set:

    Orbital Energies (a.u.)
    -----------------------

    Doubly Occupied:

       1A    -20.595950     2A    -20.529507     3A    -11.366399
       4A    -11.279455     5A    -11.230672     6A    -11.222309
       7A    -11.221347     8A    -11.219476     9A    -11.210901
      10A     -1.471186    11A     -1.363983    12A     -1.095333
      13A     -1.043289    14A     -1.004269    15A     -0.931718
      16A     -0.842340    17A     -0.803086    18A     -0.776073
      19A     -0.694928    20A     -0.688293    21A     -0.671194
      22A     -0.648198    23A     -0.607064    24A     -0.589200
      25A     -0.584086    26A     -0.567194    27A     -0.559671
      28A     -0.538586    29A     -0.524112    30A     -0.505613
      31A     -0.491744    32A     -0.478266    33A     -0.471368
      34A     -0.466870    35A     -0.455245    36A     -0.438908

  @DF-RHF Final Energy:  -423.13481633283692

   => Energetics <=

    Nuclear Repulsion Energy =            450.4652539590712763
    One-Electron Energy =               -1468.8244722739773351
    Two-Electron Energy =                 595.2244019820691392
    DFT Exchange-Correlation Energy =       0.0000000000000000
    Empirical Dispersion Energy =           0.0000000000000000
    PCM Polarization Energy =               0.0000000000000000
    EFP Energy =                            0.0000000000000000
    Total Energy =                       -423.1348163328368628
    Molecular point group: c1
  Basis Set: CC-PVTZ
  Basis Set:

  -Total Gradient:
     Atom            X                  Y                   Z
    ------   -----------------  -----------------  -----------------
       1        0.000006948246     0.000057167321     0.000023279274
       2        0.000045452783    -0.000101987916     0.000061040318
       3        0.000001173922     0.000005272519     0.000012627362
       4       -0.000079968890    -0.000004106556    -0.000129807805
       5        0.000015901363     0.000006472739     0.000005333985
       6        0.000002351111    -0.000009491639     0.000000294632
       7        0.000013989406     0.000006795984    -0.000008268643
       8       -0.000048257094     0.000138249646     0.000080041592
       9       -0.000004837029    -0.000005675013     0.000013723013
      10        0.000061291977    -0.000078059221    -0.000060730905
      11       -0.000017118235    -0.000013573672     0.000001893769
      12       -0.000001736725     0.000003139020    -0.000001908557
      13       -0.000001867654     0.000006894166     0.000001864648
      14        0.000005669379    -0.000007079927     0.000001349929
      15        0.000002188169    -0.000003726852    -0.000002331754
      16       -0.000001391656    -0.000001817918    -0.000001602819
      17        0.000000381419     0.000001230072    -0.000000996238
      18       -0.000000660325     0.000000303680     0.000004591191
      19       -0.000000100601     0.000001726992    -0.000001041867
      20        0.000000525071    -0.000001025758    -0.000000463294
      21       -0.000001337155    -0.000001452659    -0.000000701589
      22        0.000001026660    -0.000000707192     0.000001186016
      23        0.000000375865     0.000001452187     0.000000627741

  **** Optimization is complete! (in 4 steps) ****
    Final optimized geometry and variables:
    Molecular point group: c1

    Geometry (in Angstrom), charge = 0, multiplicity = 1:

    O           -2.816943471208     1.303897608682     0.035966176233
    C           -2.664356348297     0.129657839682     0.013902972945
    C           -3.797935196606    -0.860077485251     0.011974326577
    O           -1.481213878037    -0.452646136938    -0.011501733961
    H           -4.422386578622    -0.666007379188    -0.849737663366
    H           -3.443962697710    -1.878369591952    -0.010901935943
    H           -4.398223014032    -0.696935042326     0.896969401670
    C           -0.332231636534     0.383991919561    -0.009929190275
    C            0.892088417000    -0.506137156657    -0.010502420121
    H           -0.359398114626     1.021024678606    -0.883505112748
    H           -0.360386037596     1.020265725825     0.863820006847
    C            2.187979637637     0.299530319719    -0.010726634792
    H            0.857099972035    -1.152279112016    -0.881733148707
    H            0.857549075124    -1.152566230420     0.860554462533
    C            3.436902339245    -0.577467769447    -0.010610472018
    H            2.209478900280     0.951402123404    -0.880626317866
    H            2.209549348501     0.951743528411     0.858909266253
    C            4.732037322324     0.227273629943    -0.010175639243
    H            3.417199701719    -1.228691301247    -0.879937483234
    H            3.416825037145    -1.228972220076     0.858496266618
    H            4.797572519190     0.864142429743    -0.885999884225
    H            5.598140522560    -0.424230133526    -0.009931523000
    H            4.797033364836     0.864083352484     0.865731194028

  Mulliken Charges: (a.u.)
   Center  Symbol    Alpha    Beta     Spin     Total
       1     O     4.20247  4.20247  0.00000 -0.40494
       2     C     2.81528  2.81528  0.00000  0.36944
       3     C     3.14004  3.14004  0.00000 -0.28009
       4     O     4.14454  4.14454  0.00000 -0.28907
       5     H     0.44211  0.44211  0.00000  0.11578
       6     H     0.44186  0.44186  0.00000  0.11628
       7     H     0.44213  0.44213  0.00000  0.11575
       8     C     2.97897  2.97897  0.00000  0.04205
       9     C     3.08098  3.08098  0.00000 -0.16195
      10     H     0.45427  0.45427  0.00000  0.09145
      11     H     0.45379  0.45379  0.00000  0.09242
      12     C     3.09769  3.09769  0.00000 -0.19539
      13     H     0.45082  0.45082  0.00000  0.09836
      14     H     0.45086  0.45086  0.00000  0.09828
      15     C     3.08502  3.08502  0.00000 -0.17004
      16     H     0.45294  0.45294  0.00000  0.09412
      17     H     0.45289  0.45289  0.00000  0.09422
      18     C     3.14956  3.14956  0.00000 -0.29912
      19     H     0.45349  0.45349  0.00000  0.09302
      20     H     0.45349  0.45349  0.00000  0.09302
      21     H     0.45456  0.45456  0.00000  0.09088
      22     H     0.44770  0.44770  0.00000  0.10461
      23     H     0.45454  0.45454  0.00000  0.09091

   Total alpha = 36.00000, Total beta = 36.00000, Total charge =  0.00000

*** Psi4 exiting successfully. Buy a developer a beer!
