                              Psi4 1.0.54 Driver

  ==> Input File <==

--------------------------------------------------------------------------
set {
	reference rhf
	basis cc-pvtz
}

set_num_threads( 4 )
memory 2 gb

molecule MOL {
0 1

H	 -3.538139	 -0.561204	 -0.467335
O	 -2.708284	 -0.222070	 -0.747272
C	 -2.021813	 0.336996	 0.342658
C	 -0.669613	 0.837286	 -0.127252
H	 -2.589768	 1.163943	 0.761359
H	 -1.890031	 -0.403763	 1.128974
C	 0.490865	 -0.082543	 0.241244
H	 -0.708709	 0.967192	 -1.204587
H	 -0.507562	 1.822272	 0.303070
C	 1.839800	 0.429565	 -0.255472
H	 0.305636	 -1.070211	 -0.165276
H	 0.527397	 -0.195943	 1.322876
C	 3.001144	 -0.485193	 0.119072
H	 1.804373	 0.541073	 -1.335756
H	 2.020437	 1.423114	 0.146921
H	 2.866892	 -1.477297	 -0.298806
H	 3.943543	 -0.095749	 -0.249061
H	 3.085064	 -0.590459	 1.195790

	symmetry c1
}
set optking {
	frozen_dihedral = ("
		2 3 4 8
	")
}

ee,wfn = optimize('scf', return_wfn=True)
oeprop( wfn, 'DIPOLE', 'QUADRUPOLE', 'MULLIKEN_CHARGES')
f=open( 'psi4out.xyz', 'w' )
f.write( "18  " )
f.write( str(ee) + "\n" )
f.write( MOL.save_string_xyz() )
f.close()
--------------------------------------------------------------------------

    Molecular point group: c1
  Charge       = 0
  Multiplicity = 1
  Basis Set: CC-PVTZ
  Basis Set:
  @DF-RHF Final Energy:  -271.28228643650459
    Total Energy =                       -271.2822864365048758
    Molecular point group: c1
  Basis Set: CC-PVTZ
  Basis Set:
  Basis Set: CC-PVTZ
  Basis Set:
  @DF-RHF Final Energy:  -271.28265977513973
    Total Energy =                       -271.2826597751396775
  Basis Set: CC-PVTZ
  Basis Set:
  Basis Set: CC-PVTZ
  Basis Set:
  @DF-RHF Final Energy:  -271.28272347851379
    Total Energy =                       -271.2827234785136739
  Basis Set: CC-PVTZ
  Basis Set:
  Basis Set: CC-PVTZ
  Basis Set:
  @DF-RHF Final Energy:  -271.28272643037576
    Total Energy =                       -271.2827264303759307
  Basis Set: CC-PVTZ
  Basis Set:
  Charge       = 0
  Multiplicity = 1
  Basis Set: CC-PVTZ
  Basis Set:

    Orbital Energies (a.u.)
    -----------------------

    Doubly Occupied:

       1A    -20.545623     2A    -11.265554     3A    -11.211034
       4A    -11.209807     5A    -11.209192     6A    -11.204808
       7A     -1.362666     8A     -1.078301     9A     -1.009612
      10A     -0.913784    11A     -0.820451    12A     -0.788994
      13A     -0.706643    14A     -0.640388    15A     -0.631228
      16A     -0.581060    17A     -0.572265    18A     -0.562137
      19A     -0.527206    20A     -0.498516    21A     -0.490288
      22A     -0.469784    23A     -0.462498    24A     -0.454776
      25A     -0.427313

  @DF-RHF Final Energy:  -271.28272705354959

   => Energetics <=

    Nuclear Repulsion Energy =            247.2416779977160957
    One-Electron Energy =                -857.7609550378531367
    Two-Electron Energy =                 339.2365499865874199
    DFT Exchange-Correlation Energy =       0.0000000000000000
    Empirical Dispersion Energy =           0.0000000000000000
    PCM Polarization Energy =               0.0000000000000000
    EFP Energy =                            0.0000000000000000
    Total Energy =                       -271.2827270535495927
    Molecular point group: c1
  Basis Set: CC-PVTZ
  Basis Set:

  -Total Gradient:
     Atom            X                  Y                   Z
    ------   -----------------  -----------------  -----------------
       1       -0.000026978863    -0.000026148553    -0.000052154694
       2       -0.001392784244     0.002803967144    -0.000579377184
       3        0.002123236796    -0.004393283197     0.000795069124
       4       -0.001979021125     0.005557408588     0.000310236308
       5       -0.000022268538    -0.000010276015    -0.000008462342
       6       -0.000023380432    -0.000010552773    -0.000034218570
       7       -0.000022521586    -0.000026926190    -0.000010026568
       8        0.001342692121    -0.003878192501    -0.000460242322
       9       -0.000032011798    -0.000037540391     0.000028346852
      10        0.000010832153    -0.000013462232    -0.000001951311
      11       -0.000006310826     0.000022395784     0.000000622951
      12       -0.000006882686    -0.000008121490    -0.000000837346
      13        0.000016375545     0.000019215584     0.000009241233
      14       -0.000002111662    -0.000004817735     0.000007531534
      15        0.000011329420     0.000006900754    -0.000005343519
      16       -0.000004285475     0.000007735313    -0.000000935210
      17        0.000013268320    -0.000003168998     0.000004880529
      18        0.000000822870    -0.000005133093    -0.000002379466

  **** Optimization is complete! (in 5 steps) ****
    Final optimized geometry and variables:
    Molecular point group: c1

    Geometry (in Angstrom), charge = 0, multiplicity = 1:

    H           -3.420350225117    -0.746860565132    -0.352068789776
    O           -2.616544927180    -0.350119402250    -0.633222562396
    C           -1.954040870335     0.227662552432     0.464324510248
    C           -0.598334581937     0.754446297516    -0.002857992051
    H           -2.554103964575     1.040506325937     0.864147024036
    H           -1.824542174325    -0.502543963371     1.258707209845
    C            0.562360279119    -0.184184629596     0.324177337284
    H           -0.652199851620     0.869654588000    -1.078969640855
    H           -0.409894260010     1.731462730895     0.428653709803
    C            1.902325231543     0.301406545956    -0.219538614486
    H            0.344369522259    -1.168889752516    -0.081198611706
    H            0.637190978159    -0.305624183189     1.402588528058
    C            3.060095241569    -0.632818664437     0.115987169593
    H            1.830904514486     0.413726769497    -1.297758333073
    H            2.112894088158     1.291761372354     0.175823127001
    H            2.894899084903    -1.622996596539    -0.295479128103
    H            3.995426578601    -0.259983784982    -0.285550537002
    H            3.179951798176    -0.738243627710     1.189249545962

  Mulliken Charges: (a.u.)
   Center  Symbol    Alpha    Beta     Spin     Total
       1     H     0.39522  0.39522  0.00000  0.20957
       2     O     4.19940  4.19940  0.00000 -0.39881
       3     C     2.96713  2.96713  0.00000  0.06574
       4     C     3.09033  3.09033  0.00000 -0.18065
       5     H     0.47018  0.47018  0.00000  0.05964
       6     H     0.47541  0.47541  0.00000  0.04918
       7     C     3.09100  3.09100  0.00000 -0.18200
       8     H     0.44797  0.44797  0.00000  0.10407
       9     H     0.45155  0.45155  0.00000  0.09690
      10     C     3.08532  3.08532  0.00000 -0.17063
      11     H     0.45042  0.45042  0.00000  0.09916
      12     H     0.45803  0.45803  0.00000  0.08393
      13     C     3.14980  3.14980  0.00000 -0.29959
      14     H     0.45301  0.45301  0.00000  0.09398
      15     H     0.45577  0.45577  0.00000  0.08845
      16     H     0.45475  0.45475  0.00000  0.09051
      17     H     0.44874  0.44874  0.00000  0.10252
      18     H     0.45598  0.45598  0.00000  0.08804

   Total alpha = 25.00000, Total beta = 25.00000, Total charge = -0.00000

*** Psi4 exiting successfully. Buy a developer a beer!
