  ==> Input File <==

--------------------------------------------------------------------------
set {
	reference rhf
	basis cc-pvtz
}

set_num_threads( 4 )
memory 2 gb

molecule MOL {
0 1

H	 2.646979	 -5.700194	 -0.662762
C	 2.484735	 -4.648739	 -0.527725
C	 1.203012	 -4.152480	 -0.336033
C	 3.542766	 -3.769960	 -0.541600
H	 0.364878	 -4.823206	 -0.322195
C	 0.990613	 -2.806064	 -0.162621
H	 4.541634	 -4.135132	 -0.688572
C	 3.346031	 -2.407033	 -0.368001
H	 0.004411	 -2.412453	 -0.013808
C	 2.064900	 -1.922707	 -0.177709
H	 4.190280	 -1.749425	 -0.383958
O	 1.760432	 -0.625184	 0.000000
C	 2.773565	 0.334879	 0.000000
H	 2.728295	 0.960928	 -0.884150
H	 3.706387	 -0.206610	 0.000000
H	 2.728295	 0.960928	 0.884150

	symmetry c1
}
set optking {
	frozen_dihedral = ("
		10 12 13 14
	")
}

ee = optimize('scf')
oeprop('DIPOLE', 'QUADRUPOLE', 'MULLIKEN_CHARGES')
f=open( 'psi4out.xyz', 'w' )
f.write( "16  " )
f.write( str(ee) + "\n" )
f.write( MOL.save_string_xyz() )
f.close()
--------------------------------------------------------------------------

    Molecular point group: c1
  Charge       = 0
  Multiplicity = 1
  Basis Set: CC-PVTZ
  Basis Set:
  @DF-RHF Final Energy:  -344.69337135919312
    Total Energy =                       -344.6933713591932928
    Molecular point group: c1
  Basis Set: CC-PVTZ
  Basis Set:
  Basis Set: CC-PVTZ
  Basis Set:
  @DF-RHF Final Energy:  -344.69276700767858
    Total Energy =                       -344.6927670076782988
  Basis Set: CC-PVTZ
  Basis Set:
  Basis Set: CC-PVTZ
  Basis Set:
  @DF-RHF Final Energy:  -344.69814806987830
    Total Energy =                       -344.6981480698783571
  Basis Set: CC-PVTZ
  Basis Set:
  Basis Set: CC-PVTZ
  Basis Set:
  @DF-RHF Final Energy:  -344.69891549651777
    Total Energy =                       -344.6989154965179978
  Basis Set: CC-PVTZ
  Basis Set:
  @DF-RHF Final Energy:  -344.69967895343973
    Total Energy =                       -344.6996789534395020
  Basis Set: CC-PVTZ
  Basis Set:
  @DF-RHF Final Energy:  -344.69984339250715
    Total Energy =                       -344.6998433925072050
  Basis Set: CC-PVTZ
  Basis Set:
  Basis Set: CC-PVTZ
  Basis Set:
  @DF-RHF Final Energy:  -344.69997583880490
    Total Energy =                       -344.6999758388047894
  Basis Set: CC-PVTZ
  Basis Set:
  Basis Set: CC-PVTZ
  Basis Set:
  @DF-RHF Final Energy:  -344.69998416083837
    Total Energy =                       -344.6999841608384827
  Basis Set: CC-PVTZ
  Basis Set:
  Charge       = 0
  Multiplicity = 1
  Basis Set: CC-PVTZ
  Basis Set:

    Orbital Energies (a.u.)
    -----------------------

    Doubly Occupied:

       1A    -20.574051     2A    -11.292001     3A    -11.277105
       4A    -11.231487     5A    -11.230087     6A    -11.222528
       7A    -11.218535     8A    -11.218381     9A     -1.412734
      10A     -1.151211    11A     -1.024141    12A     -1.017162
      13A     -0.941865    14A     -0.835774    15A     -0.808639
      16A     -0.723179    17A     -0.667272    18A     -0.666611
      19A     -0.653785    20A     -0.617633    21A     -0.592595
      22A     -0.583373    23A     -0.529308    24A     -0.518291
      25A     -0.511433    26A     -0.483989    27A     -0.456142
      28A     -0.339520    29A     -0.312744

  @DF-RHF Final Energy:  -344.69998715064366

   => Energetics <=

    Nuclear Repulsion Energy =            348.3985556704813007
    One-Electron Energy =               -1157.9739368112036573
    Two-Electron Energy =                 464.8753939900787486
    DFT Exchange-Correlation Energy =       0.0000000000000000
    Empirical Dispersion Energy =           0.0000000000000000
    PCM Polarization Energy =               0.0000000000000000
    EFP Energy =                            0.0000000000000000
    Total Energy =                       -344.6999871506436079
    Molecular point group: c1
  Basis Set: CC-PVTZ
  Basis Set:

  -Total Gradient:
     Atom            X                  Y                   Z
    ------   -----------------  -----------------  -----------------
       1       -0.000004613446    -0.000008886543    -0.000018111628
       2        0.000285657986     0.000073460887    -0.000052218185
       3       -0.000151849509     0.000217947433     0.000052722199
       4       -0.000049275277    -0.000273867485     0.000048493460
       5        0.000025265938     0.000017003733     0.000003713871
       6       -0.000057859415    -0.000089984461    -0.000041897588
       7        0.000001108718     0.000006198916    -0.000020787310
       8       -0.000174554891     0.000178007692     0.000053957825
       9       -0.000021505778     0.000032492549     0.000013571597
      10       -0.000654394114    -0.000303667084     0.002049520806
      11        0.000010175835    -0.000005012334    -0.000007217383
      12        0.000715252765     0.000775758114    -0.002975155471
      13        0.001903374787    -0.002224305771     0.000640535332
      14       -0.001830138170     0.001717595874     0.000305298764
      15        0.000029477493    -0.000036635428    -0.000026925190
      16       -0.000026122921    -0.000076106091    -0.000025501100

  **** Optimization is complete! (in 9 steps) ****
    Final optimized geometry and variables:
    Molecular point group: c1

    Geometry (in Angstrom), charge = 0, multiplicity = 1:

    H            0.339699833228    -3.323354659859    -0.142732283678
    C            0.189368329184    -2.261703133366    -0.116843053326
    C           -1.070688725853    -1.736430823308     0.116921494328
    C            1.246178446170    -1.400595718116    -0.321276887777
    H           -1.904522670937    -2.393614620537     0.275840150554
    C           -1.267793979159    -0.373606363453     0.155102325246
    H            2.227293187526    -1.791273025116    -0.514654358791
    C            1.060840410005    -0.028555526456    -0.293431678114
    H           -2.238534220431     0.043572752311     0.337699006141
    C           -0.199163863132     0.487367029719    -0.045953867826
    H            1.890529868669     0.624272721518    -0.478522756782
    O           -0.472010184329     1.807403069601    -0.036227850468
    C            0.468137782968     2.727004624564     0.450690692414
    H            0.870977168712     3.315989463303    -0.364098544780
    H            1.271610840400     2.242657495587     0.986766805028
    H           -0.048677832261     3.394201018405     1.127051012529

  Mulliken Charges: (a.u.)
   Center  Symbol    Alpha    Beta     Spin     Total
       1     H     0.42424  0.42424  0.00000  0.15152
       2     C     3.09756  3.09756  0.00000 -0.19512
       3     C     3.06011  3.06011  0.00000 -0.12023
       4     C     3.06454  3.06454  0.00000 -0.12907
       5     H     0.42280  0.42280  0.00000  0.15439
       6     C     3.11055  3.11055  0.00000 -0.22110
       7     H     0.42287  0.42287  0.00000  0.15427
       8     C     3.13026  3.13026  0.00000 -0.26051
       9     H     0.41934  0.41934  0.00000  0.16131
      10     C     2.85663  2.85663  0.00000  0.28675
      11     H     0.42339  0.42339  0.00000  0.15321
      12     O     4.16273  4.16273  0.00000 -0.32545
      13     C     3.03950  3.03950  0.00000 -0.07901
      14     H     0.45471  0.45471  0.00000  0.09059
      15     H     0.46387  0.46387  0.00000  0.07227
      16     H     0.44691  0.44691  0.00000  0.10618

   Total alpha = 29.00000, Total beta = 29.00000, Total charge =  0.00000
