  ==> Input File <==

--------------------------------------------------------------------------
set {
	reference rhf
	basis 6-31G*
}

set_num_threads( 4 )
memory 2 gb

molecule MOL {
0 1

O	 0.625848	 1.349995	 -0.000749
C	 0.486307	 0.169203	 0.000779
C	 1.608116	 -0.841643	 0.000302
O	 -0.698257	 -0.426125	 0.001050
C	 2.990107	 -0.200498	 -0.000684
H	 1.468623	 -1.481519	 -0.865924
H	 1.469683	 -1.481289	 0.866878
H	 3.129736	 0.423364	 -0.875135
H	 3.757882	 -0.966877	 -0.001197
H	 3.130964	 0.423383	 0.873533
C	 -1.092457	 -1.107270	 -1.185562
C	 -2.464193	 -1.697367	 -0.935685
H	 -0.362959	 -1.873075	 -1.411304
H	 -1.102970	 -0.405263	 -2.008160
H	 -2.437929	 -2.394048	 -0.105562
H	 -2.804496	 -2.228150	 -1.818924
H	 -3.182094	 -0.918268	 -0.705730

	symmetry c1
}
set optking {
	frozen_dihedral = ("
		11 4 2 3
	")
}

ee = optimize('scf')
oeprop('DIPOLE', 'QUADRUPOLE', 'MULLIKEN_CHARGES')
f=open( 'psi4out.xyz', 'w' )
f.write( "17  " )
f.write( str(ee) + "\n" )
f.write( MOL.save_string_xyz() )
f.close()
--------------------------------------------------------------------------

    Molecular point group: c1
  Charge       = 0
  Multiplicity = 1
  Basis Set: 6-31G*
  Basis Set:
  @DF-RHF Final Energy:  -344.88823211709399
    Total Energy =                       -344.8882321170938212
    Molecular point group: c1
  Basis Set: 6-31G*
  Basis Set:
  Basis Set: 6-31G*
  Basis Set:
  @DF-RHF Final Energy:  -344.89014717459781
    Total Energy =                       -344.8901471745977005
  Basis Set: 6-31G*
  Basis Set:
  Basis Set: 6-31G*
  Basis Set:
  @DF-RHF Final Energy:  -344.89148182076281
    Total Energy =                       -344.8914818207628059
  Basis Set: 6-31G*
  Basis Set:
  Basis Set: 6-31G*
  Basis Set:
  @DF-RHF Final Energy:  -344.89159640536383
    Total Energy =                       -344.8915964053639414
  Basis Set: 6-31G*
  Basis Set:
  Basis Set: 6-31G*
  Basis Set:
  @DF-RHF Final Energy:  -344.89156985776378
    Total Energy =                       -344.8915698577639546
  Basis Set: 6-31G*
  Basis Set:
  Basis Set: 6-31G*
  Basis Set:
  @DF-RHF Final Energy:  -344.89167785575989
    Total Energy =                       -344.8916778557595535
  Basis Set: 6-31G*
  Basis Set:
  Basis Set: 6-31G*
  Basis Set:
  @DF-RHF Final Energy:  -344.89167917459667
    Total Energy =                       -344.8916791745967316
  Basis Set: 6-31G*
  Basis Set:
  Charge       = 0
  Multiplicity = 1
  Basis Set: 6-31G*
  Basis Set:

    Orbital Energies (a.u.)
    -----------------------

    Doubly Occupied:

       1A    -20.584977     2A    -20.553481     3A    -11.373702
       4A    -11.297955     5A    -11.243237     6A    -11.225272
       7A    -11.219197     8A     -1.457144     9A     -1.366479
      10A     -1.064071    11A     -1.039908    12A     -0.902172
      13A     -0.870595    14A     -0.769972    15A     -0.701941
      16A     -0.685583    17A     -0.655283    18A     -0.639095
      19A     -0.601695    20A     -0.562710    21A     -0.558140
      22A     -0.535537    23A     -0.526911    24A     -0.518630
      25A     -0.507960    26A     -0.484805    27A     -0.451448
      28A     -0.433857

  @DF-RHF Final Energy:  -344.89167957658481

   => Energetics <=

    Nuclear Repulsion Energy =            314.3497394225698827
    One-Electron Energy =               -1092.8193263476887296
    Two-Electron Energy =                 433.5779073485343247
    DFT Exchange-Correlation Energy =       0.0000000000000000
    Empirical Dispersion Energy =           0.0000000000000000
    PCM Polarization Energy =               0.0000000000000000
    EFP Energy =                            0.0000000000000000
    Total Energy =                       -344.8916795765845222
    Molecular point group: c1
  Basis Set: 6-31G*
  Basis Set:

  -Total Gradient:
     Atom            X                  Y                   Z
    ------   -----------------  -----------------  -----------------
       1        0.000013151514     0.000005652967     0.000014618786
       2       -0.000202748558     0.000599983935    -0.001819906575
       3        0.000052509135    -0.000003229181     0.001032442059
       4        0.000702931156    -0.001589285303     0.001099142781
       5       -0.000036219579    -0.000007817525     0.000012713135
       6        0.000001270921    -0.000006663435     0.000026327827
       7       -0.000006471465     0.000000809481     0.000011978591
       8        0.000006958980     0.000006885177    -0.000006322148
       9       -0.000011177254    -0.000000134460    -0.000002208442
      10        0.000001537155     0.000003318032     0.000002261971
      11       -0.000495321456     0.000943395975    -0.000377376779
      12       -0.000011029544     0.000022021618     0.000000706607
      13       -0.000016133673     0.000006598454    -0.000012547895
      14        0.000004548563     0.000020522837     0.000014583766
      15        0.000001855422     0.000001316376     0.000001461402
      16        0.000006465505    -0.000000057329    -0.000001355398
      17       -0.000012126817    -0.000003317624     0.000003480311

  **** Optimization is complete! (in 8 steps) ****
    Final optimized geometry and variables:
    Molecular point group: c1

    Geometry (in Angstrom), charge = 0, multiplicity = 1:

    O            0.380676304604     1.682126064662     0.363189312179
    C            0.315511526421     0.505363103560     0.278099148953
    C            1.520022432105    -0.409600428397     0.233720760607
    O           -0.878797006003    -0.123478974673     0.302710726758
    C            2.844399676859     0.335864750830     0.345784878584
    H            1.485266023317    -0.986415822531    -0.686539277032
    H            1.401067585371    -1.129183811141     1.038921237723
    H            2.964012901749     1.041331811597    -0.467345928402
    H            3.671930962398    -0.364898479378     0.316001351631
    H            2.899708278719     0.891673356077     1.273572681354
    C           -1.327260968462    -0.806398922738    -0.856934675210
    C           -2.777541991298    -1.180444804485    -0.635324673629
    H           -0.726022393781    -1.693489715484    -1.025315424547
    H           -1.226120558318    -0.155293366079    -1.718875554770
    H           -2.874045820989    -1.819641809696     0.234568238512
    H           -3.162310911000    -1.711525300850    -1.500065051117
    H           -3.375931484386    -0.291723198135    -0.476515995514

  Mulliken Charges: (a.u.)
   Center  Symbol    Alpha    Beta     Spin     Total
       1     O     4.25197  4.25197  0.00000 -0.50394
       2     C     2.61175  2.61175  0.00000  0.77649
       3     C     3.21736  3.21736  0.00000 -0.43472
       4     O     4.31883  4.31883  0.00000 -0.63766
       5     C     3.23752  3.23752  0.00000 -0.47503
       6     H     0.40676  0.40676  0.00000  0.18648
       7     H     0.39920  0.39920  0.00000  0.20160
       8     H     0.40969  0.40969  0.00000  0.18061
       9     H     0.41842  0.41842  0.00000  0.16317
      10     H     0.40802  0.40802  0.00000  0.18397
      11     C     3.00341  3.00341  0.00000 -0.00683
      12     C     3.24549  3.24549  0.00000 -0.49097
      13     H     0.42206  0.42206  0.00000  0.15588
      14     H     0.41600  0.41600  0.00000  0.16801
      15     H     0.40982  0.40982  0.00000  0.18037
      16     H     0.41810  0.41810  0.00000  0.16380
      17     H     0.40561  0.40561  0.00000  0.18878

   Total alpha = 28.00000, Total beta = 28.00000, Total charge = -0.00000
