  ==> Input File <==

--------------------------------------------------------------------------
set {
	reference rhf
	basis 6-31G*
}

set_num_threads( 4 )
memory 2 gb

molecule MOL {
0 1

H	 -0.258977	 2.382474	 0.692794
C	 0.569375	 1.690938	 0.853719
N	 0.538815	 0.649616	 0.000000
O	 1.390192	 1.874198	 1.703356
C	 1.521968	 -0.411503	 0.000000
H	 -0.201853	 0.615686	 -0.662226
H	 2.150599	 -0.357004	 -0.881901
H	 0.999455	 -1.354525	 0.000000
H	 2.150599	 -0.357004	 0.881901

	symmetry c1
}
set optking {
	frozen_dihedral = ("
		6 3 5 7
	")
}

ee = optimize('scf')
oeprop('DIPOLE', 'QUADRUPOLE', 'MULLIKEN_CHARGES')
f=open( 'psi4out.xyz', 'w' )
f.write( "9  " )
f.write( str(ee) + "\n" )
f.write( MOL.save_string_xyz() )
f.close()
--------------------------------------------------------------------------

    Molecular point group: c1
  Charge       = 0
  Multiplicity = 1
  Basis Set: 6-31G*
  Basis Set:
  @DF-RHF Final Energy:  -207.96051417079769
    Total Energy =                       -207.9605141707976941
    Molecular point group: c1
  Basis Set: 6-31G*
  Basis Set:
  Basis Set: 6-31G*
  Basis Set:
  @DF-RHF Final Energy:  -207.96091845289459
    Total Energy =                       -207.9609184528945889
  Basis Set: 6-31G*
  Basis Set:
  Basis Set: 6-31G*
  Basis Set:
  @DF-RHF Final Energy:  -207.96093670378860
    Total Energy =                       -207.9609367037886045
  Basis Set: 6-31G*
  Basis Set:
  Basis Set: 6-31G*
  Basis Set:
  @DF-RHF Final Energy:  -207.96097554733547
    Total Energy =                       -207.9609755473353516
  Basis Set: 6-31G*
  Basis Set:
  Basis Set: 6-31G*
  Basis Set:
  @DF-RHF Final Energy:  -207.96098518527492
    Total Energy =                       -207.9609851852748648
  Basis Set: 6-31G*
  Basis Set:
  Basis Set: 6-31G*
  Basis Set:
  @DF-RHF Final Energy:  -207.96098832102444
    Total Energy =                       -207.9609883210244163
  Basis Set: 6-31G*
  Basis Set:
  Basis Set: 6-31G*
  Basis Set:
  @DF-RHF Final Energy:  -207.96099375754352
    Total Energy =                       -207.9609937575435481
  Basis Set: 6-31G*
  Basis Set:
  Charge       = 0
  Multiplicity = 1
  Basis Set: 6-31G*
  Basis Set:

    Orbital Energies (a.u.)
    -----------------------

    Doubly Occupied:

       1A    -20.525524     2A    -15.591121     3A    -11.344272
       4A    -11.260272     5A     -1.389015     6A     -1.236611
       7A     -0.968639     8A     -0.807282     9A     -0.746478
      10A     -0.641682    11A     -0.626242    12A     -0.593384
      13A     -0.554394    14A     -0.537170    15A     -0.423799
      16A     -0.390558

  @DF-RHF Final Energy:  -207.96099380951986

   => Energetics <=

    Nuclear Repulsion Energy =            122.4757086083842239
    One-Electron Energy =                -525.6005170628818632
    Two-Electron Energy =                 195.1638146449777764
    DFT Exchange-Correlation Energy =       0.0000000000000000
    Empirical Dispersion Energy =           0.0000000000000000
    PCM Polarization Energy =               0.0000000000000000
    EFP Energy =                            0.0000000000000000
    Total Energy =                       -207.9609938095198345
    Molecular point group: c1
  Basis Set: 6-31G*
  Basis Set:

  -Total Gradient:
     Atom            X                  Y                   Z
    ------   -----------------  -----------------  -----------------
       1        0.000001448069     0.000007780335     0.000007398186
       2        0.000002714816    -0.000024578501    -0.000012384196
       3       -0.000141535547    -0.000127143144     0.000090497862
       4        0.000007204385     0.000025898961     0.000022700065
       5        0.000130807319     0.000113154027     0.000063412238
       6        0.000084319978     0.000075036660    -0.000096711072
       7       -0.000081998387    -0.000070262517    -0.000070878793
       8       -0.000001481812    -0.000000237432    -0.000001556851
       9       -0.000001478821     0.000000351609    -0.000002477443

  **** Optimization is complete! (in 8 steps) ****
    Final optimized geometry and variables:
    Molecular point group: c1

    Geometry (in Angstrom), charge = 0, multiplicity = 1:

    H           -1.260367428474     1.454785528234     0.062361170820
    C           -0.435203878540     0.757798847615     0.216198900849
    N           -0.502854267259    -0.306324716253    -0.607019180050
    O            0.408971767846     0.948814551330     1.040875773025
    C            0.496047359466    -1.352309874097    -0.633187043840
    H           -1.224618023849    -0.317556640945    -1.290564396678
    H            1.153891486983    -1.254403173402    -1.490637679779
    H            0.017677202087    -2.323765377309    -0.668719956845
    H            1.085118443360    -1.282511957581     0.267250488563

  Mulliken Charges: (a.u.)
   Center  Symbol    Alpha    Beta     Spin     Total
       1     H     0.42748  0.42748  0.00000  0.14505
       2     C     2.74494  2.74494  0.00000  0.51011
       3     N     3.87473  3.87473  0.00000 -0.74947
       4     O     4.28429  4.28429  0.00000 -0.56859
       5     C     3.14390  3.14390  0.00000 -0.28780
       6     H     0.30959  0.30959  0.00000  0.38082
       7     H     0.41378  0.41378  0.00000  0.17245
       8     H     0.41411  0.41411  0.00000  0.17178
       9     H     0.38718  0.38718  0.00000  0.22565

   Total alpha = 16.00000, Total beta = 16.00000, Total charge =  0.00000
