  ==> Input File <==

--------------------------------------------------------------------------
set {
	reference rhf
	basis 6-31G*
}

set_num_threads( 4 )
memory 2 gb

molecule MOL {
0 1

O	 -0.291628	 1.323815	 -0.000732
C	 -0.449655	 0.146360	 0.000961
C	 -1.783294	 -0.549321	 -0.000296
O	 0.550821	 -0.724572	 0.000672
H	 -1.863538	 -1.185371	 -0.874187
H	 -2.574672	 0.185258	 -0.002793
H	 -1.866414	 -1.182381	 0.875436
C	 1.863948	 -0.193561	 -0.001804
H	 2.028177	 0.408500	 -0.883795
H	 2.526260	 -1.045083	 -0.001244
H	 2.030198	 0.411334	 0.877858

	symmetry c1
}
set optking {
	frozen_dihedral = ("
		8 4 2 1
	")
}

ee = optimize('scf')
oeprop('DIPOLE', 'QUADRUPOLE', 'MULLIKEN_CHARGES')
f=open( 'psi4out.xyz', 'w' )
f.write( "11  " )
f.write( str(ee) + "\n" )
f.write( MOL.save_string_xyz() )
f.close()
--------------------------------------------------------------------------

    Molecular point group: c1
  Charge       = 0
  Multiplicity = 1
  Basis Set: 6-31G*
  Basis Set:
  @DF-RHF Final Energy:  -266.83644228521285
    Total Energy =                       -266.8364422852129678
    Molecular point group: c1
  Basis Set: 6-31G*
  Basis Set:
  Basis Set: 6-31G*
  Basis Set:
  @DF-RHF Final Energy:  -266.83642473785358
    Total Energy =                       -266.8364247378534628
  Basis Set: 6-31G*
  Basis Set:
  Charge       = 0
  Multiplicity = 1
  Basis Set: 6-31G*
  Basis Set:

    Orbital Energies (a.u.)
    -----------------------

    Doubly Occupied:

       1A    -20.605927     2A    -20.546562     3A    -11.376485
       4A    -11.282151     5A    -11.234772     6A     -1.471288
       7A     -1.364551     8A     -1.035979     9A     -0.952965
      10A     -0.778263    11A     -0.695814    12A     -0.681197
      13A     -0.677231    14A     -0.595190    15A     -0.592022
      16A     -0.560757    17A     -0.524683    18A     -0.524024
      19A     -0.458039    20A     -0.442423

  @DF-RHF Final Energy:  -266.83644291227438

   => Energetics <=

    Nuclear Repulsion Energy =            183.3349136962509078
    One-Electron Energy =                -727.5420711466933881
    Two-Electron Energy =                 277.3707145381678743
    DFT Exchange-Correlation Energy =       0.0000000000000000
    Empirical Dispersion Energy =           0.0000000000000000
    PCM Polarization Energy =               0.0000000000000000
    EFP Energy =                            0.0000000000000000
    Total Energy =                       -266.8364429122746628
    Molecular point group: c1
  Basis Set: 6-31G*
  Basis Set:

  -Total Gradient:
     Atom            X                  Y                   Z
    ------   -----------------  -----------------  -----------------
       1        0.000001545003     0.000006125619     0.000001714712
       2        0.000010003763    -0.000011361201    -0.000002753265
       3       -0.000004516167     0.000000950008    -0.000002418220
       4       -0.000007901853     0.000004157449    -0.000002741557
       5       -0.000001486432    -0.000000016787     0.000000239063
       6        0.000001324076    -0.000001953060    -0.000000339127
       7       -0.000001678591    -0.000000419664     0.000002796980
       8        0.000001064322     0.000001749018     0.000008907531
       9       -0.000001662430    -0.000000294569    -0.000001584773
      10        0.000000752032     0.000001007715    -0.000001654260
      11        0.000002556280     0.000000055471    -0.000002167084

  **** Optimization is complete! (in 3 steps) ****
    Final optimized geometry and variables:
    Molecular point group: c1

    Geometry (in Angstrom), charge = 0, multiplicity = 1:

    O           -0.291503474481     1.323830070329    -0.001034117845
    C           -0.449647500477     0.146367386466    -0.000040544860
    C           -1.783347690572    -0.549256420125     0.000969582004
    O            0.550790641125    -0.724654600807     0.000427213321
    H           -1.864919689194    -1.185393832721    -0.872746108386
    H           -2.574722961802     0.185226530778    -0.000355417500
    H           -1.865079173684    -1.182273637475     0.876952353351
    C            1.863886322370    -0.193561551548    -0.000316008347
    H            2.028854171923     0.409352553815    -0.881592090286
    H            2.526302951231    -1.045007026951     0.000062063925
    H            2.029405271809     0.410580836663     0.880011985250

  Mulliken Charges: (a.u.)
   Center  Symbol    Alpha    Beta     Spin     Total
       1     O     4.28203  4.28203  0.00000 -0.56406
       2     C     2.62257  2.62257  0.00000  0.75486
       3     C     3.28175  3.28175  0.00000 -0.56349
       4     O     4.29930  4.29930  0.00000 -0.59859
       5     H     0.39989  0.39989  0.00000  0.20021
       6     H     0.39656  0.39656  0.00000  0.20689
       7     H     0.39989  0.39989  0.00000  0.20022
       8     C     3.09251  3.09251  0.00000 -0.18502
       9     H     0.40858  0.40858  0.00000  0.18284
      10     H     0.40835  0.40835  0.00000  0.18330
      11     H     0.40858  0.40858  0.00000  0.18283

   Total alpha = 20.00000, Total beta = 20.00000, Total charge =  0.00000
