  ==> Input File <==

--------------------------------------------------------------------------
set {
	reference rhf
	basis 6-31G*
}

set_num_threads( 1 )
memory 2 gb

molecule MOL {
0 1

O	 3.417126	 0.446047	 -1.007450
C	 2.843464	 0.164689	 -0.000222
C	 1.546494	 -0.624492	 -0.000609
C	 3.377908	 0.581019	 1.354840
C	 0.291004	 0.242674	 0.000989
H	 1.557904	 -1.283758	 -0.867573
H	 1.558622	 -1.285963	 0.864672
C	 -0.994322	 -0.586602	 0.000262
H	 0.309117	 0.896430	 -0.865270
H	 0.309661	 0.894078	 0.869017
C	 -2.259874	 0.272531	 0.000494
H	 -1.004862	 -1.240012	 -0.870939
H	 -1.005220	 -1.241071	 0.870675
C	 -3.549786	 -0.549746	 -0.000374
H	 -2.250389	 0.926680	 -0.869574
H	 -2.250838	 0.925513	 0.871430
C	 -4.809590	 0.315458	 -0.000369
H	 -3.560515	 -1.202009	 -0.871156
H	 -3.561123	 -1.202955	 0.869711
H	 -4.844746	 0.956611	 -0.876632
H	 -5.706986	 -0.295590	 -0.001609
H	 -4.845960	 0.954827	 0.877144
H	 3.557943	 -0.291748	 1.975714
H	 4.299948	 1.131535	 1.229909
H	 2.652831	 1.201356	 1.873568

	symmetry c1
}
set optking {
	frozen_dihedral = ("
		9 5 8 12,
		15 11 8 12,
		15 11 14 18,
		9 5 3 6
	")
}

ee = energy('scf')
oeprop('DIPOLE', 'QUADRUPOLE', 'MULLIKEN_CHARGES')
f=open( 'psi4out.xyz', 'w' )
f.write( "25  " )
f.write( str(ee) + "\n" )
f.write( MOL.save_string_xyz() )
f.close()
--------------------------------------------------------------------------

    Molecular point group: c1

    Geometry (in Angstrom), charge = 0, multiplicity = 1:

       Center              X                  Y                   Z               Mass
    ------------   -----------------  -----------------  -----------------  -----------------
           O          3.439761699738     0.408866590221    -1.048543362114    15.994914619560
           C          2.866099699738     0.127508590221    -0.041315362114    12.000000000000
           C          1.569129699738    -0.661672409779    -0.041702362114    12.000000000000
           C          3.400543699738     0.543838590221     1.313746637886    12.000000000000
           C          0.313639699738     0.205493590221    -0.040104362114    12.000000000000
           H          1.580539699738    -1.320938409779    -0.908666362114     1.007825032070
           H          1.581257699738    -1.323143409779     0.823578637886     1.007825032070
           C         -0.971686300262    -0.623782409779    -0.040831362114    12.000000000000
           H          0.331752699738     0.859249590221    -0.906363362114     1.007825032070
           H          0.332296699738     0.856897590221     0.827923637886     1.007825032070
           C         -2.237238300262     0.235350590221    -0.040599362114    12.000000000000
           H         -0.982226300262    -1.277192409779    -0.912032362114     1.007825032070
           H         -0.982584300262    -1.278251409779     0.829581637886     1.007825032070
           C         -3.527150300262    -0.586926409779    -0.041467362114    12.000000000000
           H         -2.227753300262     0.889499590221    -0.910667362114     1.007825032070
           H         -2.228202300262     0.888332590221     0.830336637886     1.007825032070
           C         -4.786954300262     0.278277590221    -0.041462362114    12.000000000000
           H         -3.537879300262    -1.239189409779    -0.912249362114     1.007825032070
           H         -3.538487300262    -1.240135409779     0.828617637886     1.007825032070
           H         -4.822110300262     0.919430590221    -0.917725362114     1.007825032070
           H         -5.684350300262    -0.332770409779    -0.042702362114     1.007825032070
           H         -4.823324300262     0.917646590221     0.836050637886     1.007825032070
           H          3.580578699738    -0.328928409779     1.934620637886     1.007825032070
           H          4.322583699738     1.094354590221     1.188815637886     1.007825032070
           H          2.675466699738     1.164175590221     1.832474637886     1.007825032070

  Charge       = 0
  Multiplicity = 1
  Basis Set: 6-31G*
  Basis Set:

    Orbital Energies (a.u.)
    -----------------------

    Doubly Occupied:

       1A    -20.548570     2A    -11.324424     3A    -11.231590
       4A    -11.229169     5A    -11.227051     6A    -11.223896
       7A    -11.219688     8A    -11.219077     9A    -11.211751
      10A     -1.393487    11A     -1.100992    12A     -1.060909
      13A     -1.012833    14A     -0.970671    15A     -0.895460
      16A     -0.820969    17A     -0.796806    18A     -0.732482
      19A     -0.667363    20A     -0.647131    21A     -0.638122
      22A     -0.610566    23A     -0.606257    24A     -0.587671
      25A     -0.567850    26A     -0.557342    27A     -0.544176
      28A     -0.539879    29A     -0.506458    30A     -0.502760
      31A     -0.489348    32A     -0.477322    33A     -0.469410
      34A     -0.467804    35A     -0.455877    36A     -0.395649

  @DF-RHF Final Energy:  -387.13362189278314

   => Energetics <=

    Nuclear Repulsion Energy =            438.5005784273123481
    One-Electron Energy =               -1393.3667908016375350
    Two-Electron Energy =                 567.7325904815407966
    DFT Exchange-Correlation Energy =       0.0000000000000000
    Empirical Dispersion Energy =           0.0000000000000000
    PCM Polarization Energy =               0.0000000000000000
    EFP Energy =                            0.0000000000000000
    Total Energy =                       -387.1336218927843902

  Mulliken Charges: (a.u.)
   Center  Symbol    Alpha    Beta     Spin     Total
       1     O     4.25944  4.25944  0.00000 -0.51889
       2     C     2.73741  2.73741  0.00000  0.52518
       3     C     3.20135  3.20135  0.00000 -0.40269
       4     C     3.28991  3.28991  0.00000 -0.57981
       5     C     3.16053  3.16053  0.00000 -0.32107
       6     H     0.40152  0.40152  0.00000  0.19697
       7     H     0.41790  0.41790  0.00000  0.16420
       8     C     3.15266  3.15266  0.00000 -0.30531
       9     H     0.40864  0.40864  0.00000  0.18272
      10     H     0.42013  0.42013  0.00000  0.15974
      11     C     3.15171  3.15171  0.00000 -0.30341
      12     H     0.41930  0.41930  0.00000  0.16140
      13     H     0.42243  0.42243  0.00000  0.15515
      14     C     3.15202  3.15202  0.00000 -0.30405
      15     H     0.42164  0.42164  0.00000  0.15673
      16     H     0.42367  0.42367  0.00000  0.15266
      17     C     3.23955  3.23955  0.00000 -0.47911
      18     H     0.42203  0.42203  0.00000  0.15595
      19     H     0.42298  0.42298  0.00000  0.15405
      20     H     0.42093  0.42093  0.00000  0.15814
      21     H     0.41856  0.41856  0.00000  0.16288
      22     H     0.42164  0.42164  0.00000  0.15672
      23     H     0.40859  0.40859  0.00000  0.18283
      24     H     0.39705  0.39705  0.00000  0.20591
      25     H     0.40844  0.40844  0.00000  0.18313

   Total alpha = 36.00000, Total beta = 36.00000, Total charge =  0.00000
