  ==> Input File <==

--------------------------------------------------------------------------
set {
	reference rhf
	basis 6-31G*
}

set_num_threads( 4 )
memory 2 gb

molecule MOL {
0 1

H	 2.530134	 -0.329102	 -0.660947
O	 1.654024	 -0.625927	 -0.460906
C	 1.135793	 0.118896	 0.612333
C	 0.031547	 1.023609	 0.088541
H	 1.915668	 0.729681	 1.063582
H	 0.754543	 -0.542641	 1.387006
C	 -1.134819	 0.293262	 -0.585751
H	 0.474374	 1.714721	 -0.623187
H	 -0.338529	 1.620940	 0.920081
C	 -1.917817	 -0.639439	 0.339494
H	 -0.758119	 -0.268455	 -1.433105
H	 -1.813832	 1.041889	 -0.986690
H	 -2.777680	 -1.057197	 -0.174994
H	 -1.310268	 -1.471279	 0.680599
H	 -2.283753	 -0.111424	 1.216626

	symmetry c1
}
set optking {
	frozen_dihedral = ("
		1 2 3 4
	")
}

ee = optimize('scf')
oeprop('DIPOLE', 'QUADRUPOLE', 'MULLIKEN_CHARGES')
f=open( 'psi4out.xyz', 'w' )
f.write( "15  " )
f.write( str(ee) + "\n" )
f.write( MOL.save_string_xyz() )
f.close()
--------------------------------------------------------------------------

    Molecular point group: c1
  Charge       = 0
  Multiplicity = 1
  Basis Set: 6-31G*
  Basis Set:
  @DF-RHF Final Energy:  -232.14122719695681
    Total Energy =                       -232.1412271969570043
    Molecular point group: c1
  Basis Set: 6-31G*
  Basis Set:
  Basis Set: 6-31G*
  Basis Set:
  @DF-RHF Final Energy:  -232.14185219384538
    Total Energy =                       -232.1418521938453523
  Basis Set: 6-31G*
  Basis Set:
  Basis Set: 6-31G*
  Basis Set:
  @DF-RHF Final Energy:  -232.14197683756728
    Total Energy =                       -232.1419768375673129
  Basis Set: 6-31G*
  Basis Set:
  Basis Set: 6-31G*
  Basis Set:
  @DF-RHF Final Energy:  -232.14196703647846
    Total Energy =                       -232.1419670364783769
  Basis Set: 6-31G*
  Basis Set:
  Basis Set: 6-31G*
  Basis Set:
  @DF-RHF Final Energy:  -232.14197944431032
    Total Energy =                       -232.1419794443102660
  Basis Set: 6-31G*
  Basis Set:
  Basis Set: 6-31G*
  Basis Set:
  @DF-RHF Final Energy:  -232.14198055376551
    Total Energy =                       -232.1419805537656771
  Basis Set: 6-31G*
  Basis Set:
  Charge       = 0
  Multiplicity = 1
  Basis Set: 6-31G*
  Basis Set:

    Orbital Energies (a.u.)
    -----------------------

    Doubly Occupied:

       1A    -20.552088     2A    -11.267819     3A    -11.212474
       4A    -11.208722     5A    -11.203472     6A     -1.358254
       7A     -1.063318     8A     -0.968942     9A     -0.870389
      10A     -0.779742    11A     -0.695907    12A     -0.641446
      13A     -0.616210    14A     -0.574077    15A     -0.560203
      16A     -0.532351    17A     -0.506434    18A     -0.482833
      19A     -0.466633    20A     -0.451966    21A     -0.424478

  @DF-RHF Final Energy:  -232.14198059000620

   => Energetics <=

    Nuclear Repulsion Energy =            191.4612907104798865
    One-Electron Energy =                -694.3310198011104148
    Two-Electron Energy =                 270.7277485006243865
    DFT Exchange-Correlation Energy =       0.0000000000000000
    Empirical Dispersion Energy =           0.0000000000000000
    PCM Polarization Energy =               0.0000000000000000
    EFP Energy =                            0.0000000000000000
    Total Energy =                       -232.1419805900061419
    Molecular point group: c1
  Basis Set: 6-31G*
  Basis Set:

  -Total Gradient:
     Atom            X                  Y                   Z
    ------   -----------------  -----------------  -----------------
       1        0.000413645439    -0.000713944690     0.000754009810
       2       -0.000712013249     0.000672841724    -0.000864475803
       3        0.000758321181     0.000543432606    -0.000017282014
       4       -0.000463346879    -0.000493407712     0.000120533995
       5       -0.000010150871     0.000005407336     0.000012163636
       6        0.000008488458    -0.000014553963    -0.000009227109
       7       -0.000005503838    -0.000002478628     0.000013101006
       8       -0.000002727871     0.000012435318    -0.000007366400
       9        0.000003689659    -0.000013171723    -0.000000810237
      10        0.000002828371    -0.000000021140    -0.000005307643
      11        0.000000711814    -0.000005139257     0.000008043082
      12        0.000000950029     0.000005123196    -0.000000608181
      13       -0.000002544232     0.000001356480    -0.000001603229
      14        0.000005221636    -0.000000171190    -0.000000363123
      15        0.000002430350     0.000002291645    -0.000000807790

  **** Optimization is complete! (in 7 steps) ****
    Final optimized geometry and variables:
    Molecular point group: c1

    Geometry (in Angstrom), charge = 0, multiplicity = 1:

    H            2.540922298586    -0.376266172208    -0.657235907696
    O            1.667507631653    -0.665278558408    -0.442982473004
    C            1.137748131069     0.120151946268     0.600650403822
    C            0.016294660361     1.023848000646     0.102016671463
    H            1.916019931880     0.724995153889     1.058899133868
    H            0.772242735105    -0.554445295694     1.366319714138
    C           -1.141376195235     0.285951837561    -0.578661464923
    H            0.439062237544     1.738556409234    -0.600630927593
    H           -0.359770124897     1.600136459974     0.946522078161
    C           -1.927211515620    -0.646010899510     0.345318547506
    H           -0.752869681210    -0.278968341148    -1.419078868231
    H           -1.821169434551     1.027994941134    -0.990287441790
    H           -2.776851130248    -1.075526832316    -0.176429609610
    H           -1.317253833202    -1.469436092287     0.701657608990
    H           -2.308730830981    -0.112836543309     1.212555185952

  Mulliken Charges: (a.u.)
   Center  Symbol    Alpha    Beta     Spin     Total
       1     H     0.27943  0.27943  0.00000  0.44115
       2     O     4.37215  4.37215  0.00000 -0.74429
       3     C     3.00263  3.00263  0.00000 -0.00527
       4     C     3.15839  3.15839  0.00000 -0.31678
       5     H     0.42878  0.42878  0.00000  0.14244
       6     H     0.41944  0.41944  0.00000  0.16111
       7     C     3.15377  3.15377  0.00000 -0.30754
       8     H     0.42295  0.42295  0.00000  0.15411
       9     H     0.42643  0.42643  0.00000  0.14715
      10     C     3.24362  3.24362  0.00000 -0.48725
      11     H     0.40833  0.40833  0.00000  0.18335
      12     H     0.42306  0.42306  0.00000  0.15387
      13     H     0.41911  0.41911  0.00000  0.16179
      14     H     0.41685  0.41685  0.00000  0.16630
      15     H     0.42507  0.42507  0.00000  0.14987

   Total alpha = 21.00000, Total beta = 21.00000, Total charge =  0.00000
