  ==> Input File <==

--------------------------------------------------------------------------
set {
	reference rhf
	basis 6-31G*
}

set_num_threads( 4 )
memory 2 gb

molecule MOL {
0 1

H	 -2.353491	 -0.452523	 -0.077439
O	 -1.422729	 -0.573567	 -0.196946
C	 -0.731407	 0.539437	 0.309156
C	 0.680193	 0.672443	 -0.251532
H	 -1.319765	 1.404033	 0.030086
H	 -0.700012	 0.506517	 1.397677
C	 1.599139	 -0.492137	 0.118598
H	 0.616402	 0.758534	 -1.332349
H	 1.107032	 1.602637	 0.117369
H	 1.239738	 -1.428634	 -0.297334
H	 2.601428	 -0.335055	 -0.265730
H	 1.674954	 -0.608418	 1.197020

	symmetry c1
}
set optking {
	frozen_dihedral = ("
		1 2 3 4
	")
}

ee = optimize('scf')
oeprop('DIPOLE', 'QUADRUPOLE', 'MULLIKEN_CHARGES')
f=open( 'psi4out.xyz', 'w' )
f.write( "12  " )
f.write( str(ee) + "\n" )
f.write( MOL.save_string_xyz() )
f.close()
--------------------------------------------------------------------------

    Molecular point group: c1
  Charge       = 0
  Multiplicity = 1
  Basis Set: 6-31G*
  Basis Set:
  @DF-RHF Final Energy:  -193.10812833422887
    Total Energy =                       -193.1081283342289225
    Molecular point group: c1
  Basis Set: 6-31G*
  Basis Set:
  Basis Set: 6-31G*
  Basis Set:
  @DF-RHF Final Energy:  -193.10955891124766
    Total Energy =                       -193.1095589112476887
  Basis Set: 6-31G*
  Basis Set:
  Basis Set: 6-31G*
  Basis Set:
  @DF-RHF Final Energy:  -193.10996734485076
    Total Energy =                       -193.1099673448507872
  Basis Set: 6-31G*
  Basis Set:
  Basis Set: 6-31G*
  Basis Set:
  @DF-RHF Final Energy:  -193.10997278799275
    Total Energy =                       -193.1099727879927173
  Basis Set: 6-31G*
  Basis Set:
  Basis Set: 6-31G*
  Basis Set:
  @DF-RHF Final Energy:  -193.10997396092978
    Total Energy =                       -193.1099739609297217
  Basis Set: 6-31G*
  Basis Set:
  Charge       = 0
  Multiplicity = 1
  Basis Set: 6-31G*
  Basis Set:

    Orbital Energies (a.u.)
    -----------------------

    Doubly Occupied:

       1A    -20.552731     2A    -11.268214     3A    -11.214107
       4A    -11.202137     5A     -1.359553     6A     -1.046041
       7A     -0.917367     8A     -0.798061     9A     -0.704437
      10A     -0.642337    11A     -0.584631    12A     -0.575995
      13A     -0.537990    14A     -0.498151    15A     -0.480133
      16A     -0.463840    17A     -0.432446

  @DF-RHF Final Energy:  -193.10997435573699

   => Energetics <=

    Nuclear Repulsion Energy =            133.2990276888849053
    One-Electron Energy =                -526.2616642487407717
    Two-Electron Energy =                 199.8526622041188148
    DFT Exchange-Correlation Energy =       0.0000000000000000
    Empirical Dispersion Energy =           0.0000000000000000
    PCM Polarization Energy =               0.0000000000000000
    EFP Energy =                            0.0000000000000000
    Total Energy =                       -193.1099743557370516
    Molecular point group: c1
  Basis Set: 6-31G*
  Basis Set:

  -Total Gradient:
     Atom            X                  Y                   Z
    ------   -----------------  -----------------  -----------------
       1       -0.000069800860     0.000733856472    -0.001505810794
       2       -0.000046582450    -0.000709482183     0.001566663278
       3        0.000484902331    -0.000609428265     0.000692870655
       4       -0.000361041189     0.000597534514    -0.000756409062
       5        0.000012501688    -0.000015741375     0.000002896354
       6        0.000012216770     0.000013779651    -0.000004517740
       7       -0.000012635803     0.000003640288     0.000004176284
       8       -0.000019732893     0.000000136076     0.000003485519
       9        0.000010140273    -0.000005151205    -0.000000987495
      10       -0.000002890668    -0.000013224920    -0.000003892811
      11       -0.000014550449    -0.000001434332    -0.000001799961
      12        0.000007473253     0.000005515279     0.000003325773

  **** Optimization is complete! (in 6 steps) ****
    Final optimized geometry and variables:
    Molecular point group: c1

    Geometry (in Angstrom), charge = 0, multiplicity = 1:

    H           -2.273565451109    -0.538641397462    -0.122107365929
    O           -1.333789523548    -0.605120453671    -0.206386762223
    C           -0.724710966711     0.545835362315     0.324455264554
    C            0.680138167952     0.665854190087    -0.242171549139
    H           -1.296784521191     1.433835093982     0.063073623091
    H           -0.688436933920     0.487488510709     1.411380365746
    C            1.579552948067    -0.513682154685     0.124691960575
    H            0.606549479533     0.752197661287    -1.322268287030
    H            1.117193133590     1.592403834644     0.123650931462
    H            1.166367019316    -1.444089686840    -0.245225497370
    H            2.571043335794    -0.390331339470    -0.299872999586
    H            1.689095913208    -0.600216456564     1.202453001576

  Mulliken Charges: (a.u.)
   Center  Symbol    Alpha    Beta     Spin     Total
       1     H     0.28009  0.28009  0.00000  0.43981
       2     O     4.37039  4.37039  0.00000 -0.74079
       3     C     2.99659  2.99659  0.00000  0.00681
       4     C     3.15770  3.15770  0.00000 -0.31540
       5     H     0.43066  0.43066  0.00000  0.13867
       6     H     0.43091  0.43091  0.00000  0.13819
       7     C     3.24182  3.24182  0.00000 -0.48365
       8     H     0.41614  0.41614  0.00000  0.16772
       9     H     0.42412  0.42412  0.00000  0.15175
      10     H     0.40592  0.40592  0.00000  0.18816
      11     H     0.42123  0.42123  0.00000  0.15754
      12     H     0.42441  0.42441  0.00000  0.15118

   Total alpha = 17.00000, Total beta = 17.00000, Total charge = -0.00000
