  ==> Input File <==

--------------------------------------------------------------------------
set {
	reference rhf
	basis 6-31G*
}

set_num_threads( 4 )
memory 2 gb

molecule MOL {
0 1

O	 0.911081	 0.913022	 -0.861875
C	 1.122059	 0.121804	 -0.000188
C	 0.259367	 -0.100813	 1.218047
O	 2.172624	 -0.688929	 0.000216
C	 -0.964933	 0.807984	 1.268240
H	 -0.027717	 -1.148803	 1.225432
H	 0.889570	 0.038982	 2.092150
C	 -1.820853	 0.562192	 2.511765
H	 -1.561781	 0.654896	 0.374460
H	 -0.643168	 1.844457	 1.241929
C	 -3.049010	 1.469474	 2.570704
H	 -2.139902	 -0.477907	 2.533619
H	 -1.217307	 0.714401	 3.404309
H	 -3.690844	 1.315990	 1.708065
H	 -3.638431	 1.274839	 3.461195
H	 -2.761642	 2.516774	 2.585603
C	 3.452279	 -0.082609	 0.000533
H	 3.583069	 0.529321	 -0.880332
H	 4.163299	 -0.894027	 0.001117
H	 3.582335	 0.529955	 0.881077

	symmetry c1
}
set optking {
	frozen_dihedral = ("
		1 2 4 17
	")
}

ee = optimize('scf')
oeprop('DIPOLE', 'QUADRUPOLE', 'MULLIKEN_CHARGES')
f=open( 'psi4out.xyz', 'w' )
f.write( "20  " )
f.write( str(ee) + "\n" )
f.write( MOL.save_string_xyz() )
f.close()
--------------------------------------------------------------------------

    Molecular point group: c1
  Charge       = 0
  Multiplicity = 1
  Basis Set: 6-31G*
  Basis Set:
  @DF-RHF Final Energy:  -383.92648889377853
    Total Energy =                       -383.9264888937784690
    Molecular point group: c1
  Basis Set: 6-31G*
  Basis Set:
  Basis Set: 6-31G*
  Basis Set:
  @DF-RHF Final Energy:  -383.92422588675771
    Total Energy =                       -383.9242258867577675
  Basis Set: 6-31G*
  Basis Set:
  Basis Set: 6-31G*
  Basis Set:
  @DF-RHF Final Energy:  -383.92740062511911
    Total Energy =                       -383.9274006251188212
  Basis Set: 6-31G*
  Basis Set:
  Basis Set: 6-31G*
  Basis Set:
  @DF-RHF Final Energy:  -383.92750006753107
    Total Energy =                       -383.9275000675305591
  Basis Set: 6-31G*
  Basis Set:
  Basis Set: 6-31G*
  Basis Set:
  @DF-RHF Final Energy:  -383.92750552471966
    Total Energy =                       -383.9275055247196633
  Basis Set: 6-31G*
  Basis Set:
  Charge       = 0
  Multiplicity = 1
  Basis Set: 6-31G*
  Basis Set:

    Orbital Energies (a.u.)
    -----------------------

    Doubly Occupied:

       1A    -20.589636     2A    -20.553930     3A    -11.374603
       4A    -11.287337     5A    -11.237530     6A    -11.221492
       7A    -11.220562     8A    -11.211533     9A     -1.460900
      10A     -1.365499    11A     -1.089268    12A     -1.021366
      13A     -0.969184    14A     -0.891252    15A     -0.805745
      16A     -0.765480    17A     -0.695909    18A     -0.678230
      19A     -0.673006    20A     -0.643636    21A     -0.609132
      22A     -0.592496    23A     -0.584257    24A     -0.546586
      25A     -0.535839    26A     -0.513711    27A     -0.502260
      28A     -0.482660    29A     -0.477230    30A     -0.471057
      31A     -0.452021    32A     -0.433668

  @DF-RHF Final Energy:  -383.92750617578781

   => Energetics <=

    Nuclear Repulsion Energy =            380.5308028140926808
    One-Electron Energy =               -1277.0025881215547088
    Two-Electron Energy =                 512.5442791316741022
    DFT Exchange-Correlation Energy =       0.0000000000000000
    Empirical Dispersion Energy =           0.0000000000000000
    PCM Polarization Energy =               0.0000000000000000
    EFP Energy =                            0.0000000000000000
    Total Energy =                       -383.9275061757879257
    Molecular point group: c1
  Basis Set: 6-31G*
  Basis Set:

  -Total Gradient:
     Atom            X                  Y                   Z
    ------   -----------------  -----------------  -----------------
       1       -0.005123732191    -0.005834387601    -0.004008931230
       2        0.007726996127     0.008616928847     0.009197982780
       3        0.000047268721     0.000041042929    -0.000005117260
       4       -0.003022404000    -0.002902298125    -0.012057204477
       5       -0.000017527368    -0.000014235675     0.000003908193
       6       -0.000003666037    -0.000009349963    -0.000014256115
       7       -0.000009995027    -0.000018837205    -0.000012199586
       8       -0.000012189284     0.000007330295     0.000004227580
       9        0.000005880840    -0.000001712865     0.000004166635
      10       -0.000003782527     0.000005101091     0.000001897768
      11        0.000001058968     0.000001300071     0.000003466067
      12       -0.000001953882    -0.000000781057    -0.000003826358
      13        0.000001883936    -0.000001739828    -0.000001377225
      14       -0.000000997059    -0.000001920103    -0.000000171172
      15        0.000002865548     0.000000829675    -0.000000130388
      16       -0.000000140874     0.000002522984    -0.000000529086
      17        0.000397603708     0.000131223872     0.006883509773
      18        0.000007811684    -0.000015771981     0.000001478947
      19       -0.000001560869     0.000004645462    -0.000003093737
      20        0.000006579581    -0.000009890820     0.000006198895

  **** Optimization is complete! (in 6 steps) ****
    Final optimized geometry and variables:
    Molecular point group: c1

    Geometry (in Angstrom), charge = 0, multiplicity = 1:

    O            0.649010633143     0.575107611240    -1.642448430167
    C            0.859580210698    -0.206230575829    -0.778165027103
    C           -0.022384665037    -0.435029172059     0.423011946495
    O            1.886329929405    -1.076628105504    -0.822242929492
    C           -1.272423623127     0.438234217177     0.447212860006
    H           -0.275403185747    -1.491892624874     0.435205389148
    H            0.589620799802    -0.272940813110     1.307995988550
    C           -2.141430245577     0.178998122042     1.678899567960
    H           -1.849703680787     0.259492586566    -0.454735784101
    H           -0.980692779720     1.483589177636     0.416094014603
    C           -3.396320705385     1.050363315330     1.709084971802
    H           -2.430192505085    -0.869727794904     1.705432431124
    H           -1.557514455933     0.357034051519     2.579784962396
    H           -4.019277939924     0.869613301914     0.837978966480
    H           -3.994114283270     0.847071760812     2.592009795092
    H           -3.140016341601     2.105793129180     1.717893859255
    C            3.188759328566    -0.530894460655    -0.899521050627
    H            3.276890871314     0.139020740912    -1.743279456213
    H            3.863682132738    -1.363889066480    -1.020138565114
    H            3.430253773283    -0.002806681133     0.016350386320

  Mulliken Charges: (a.u.)
   Center  Symbol    Alpha    Beta     Spin     Total
       1     O     4.26422  4.26422  0.00000 -0.52844
       2     C     2.60770  2.60770  0.00000  0.78460
       3     C     3.21151  3.21151  0.00000 -0.42302
       4     O     4.31519  4.31519  0.00000 -0.63038
       5     C     3.15176  3.15176  0.00000 -0.30352
       6     H     0.39796  0.39796  0.00000  0.20408
       7     H     0.40591  0.40591  0.00000  0.18818
       8     C     3.15411  3.15411  0.00000 -0.30823
       9     H     0.41114  0.41114  0.00000  0.17773
      10     H     0.41265  0.41265  0.00000  0.17471
      11     C     3.23936  3.23936  0.00000 -0.47871
      12     H     0.42238  0.42238  0.00000  0.15524
      13     H     0.42348  0.42348  0.00000  0.15304
      14     H     0.41958  0.41958  0.00000  0.16084
      15     H     0.41859  0.41859  0.00000  0.16282
      16     H     0.42011  0.42011  0.00000  0.15977
      17     C     3.09474  3.09474  0.00000 -0.18948
      18     H     0.40394  0.40394  0.00000  0.19211
      19     H     0.40508  0.40508  0.00000  0.18984
      20     H     0.42059  0.42059  0.00000  0.15882

   Total alpha = 32.00000, Total beta = 32.00000, Total charge =  0.00000
