  ==> Input File <==

--------------------------------------------------------------------------
set {
	reference rhf
	basis cc-pvtz
}

set_num_threads( 4 )
memory 2 gb

molecule MOL {
0 1

H	 -2.278370	 -0.259769	 2.492806
C	 -2.057544	 -1.318439	 2.377320
O	 -0.868216	 -1.517538	 1.689279
H	 -1.950552	 -1.760084	 3.357315
H	 -2.896843	 -1.791438	 1.870632
C	 -0.860668	 -1.006383	 0.396877
C	 0.506228	 -1.185118	 -0.214674
H	 -1.593719	 -1.527089	 -0.219134
H	 -1.115603	 0.051175	 0.399702
O	 1.401606	 -0.295166	 0.366636
H	 0.832932	 -2.212056	 -0.066038
H	 0.438970	 -1.005869	 -1.287669
C	 2.714315	 -0.441627	 -0.061017
H	 2.765292	 -0.641548	 -1.128869
H	 3.305661	 0.447341	 0.150952
H	 3.143725	 -1.278506	 0.470147

	symmetry c1
}
set optking {
	frozen_dihedral = ("
		7 10 13 14
	")
}

ee = optimize('scf')
oeprop('DIPOLE', 'QUADRUPOLE', 'MULLIKEN_CHARGES')
f=open( 'psi4out.xyz', 'w' )
f.write( "16  " )
f.write( str(ee) + "\n" )
f.write( MOL.save_string_xyz() )
f.close()
--------------------------------------------------------------------------

    Molecular point group: c1
  Charge       = 0
  Multiplicity = 1
  Basis Set: CC-PVTZ
  Basis Set:
  @DF-RHF Final Energy:  -307.09615422947866
    Total Energy =                       -307.0961542294788842
    Molecular point group: c1
  Basis Set: CC-PVTZ
  Basis Set:
  Basis Set: CC-PVTZ
  Basis Set:
  @DF-RHF Final Energy:  -307.09686374312935
    Total Energy =                       -307.0968637431293473
  Basis Set: CC-PVTZ
  Basis Set:
  Basis Set: CC-PVTZ
  Basis Set:
  @DF-RHF Final Energy:  -307.09703167679407
    Total Energy =                       -307.0970316767940744
  Basis Set: CC-PVTZ
  Basis Set:
  Charge       = 0
  Multiplicity = 1
  Basis Set: CC-PVTZ
  Basis Set:

    Orbital Energies (a.u.)
    -----------------------

    Doubly Occupied:

       1A    -20.547783     2A    -20.546863     3A    -11.267625
       4A    -11.266880     5A    -11.261570     6A    -11.261502
       7A     -1.391210     8A     -1.373924     9A     -1.031989
      10A     -0.937154    11A     -0.892267    12A     -0.824447
      13A     -0.686037    14A     -0.682495    15A     -0.659596
      16A     -0.636911    17A     -0.632183    18A     -0.598574
      19A     -0.550601    20A     -0.537631    21A     -0.509680
      22A     -0.480154    23A     -0.464763    24A     -0.422218
      25A     -0.412865

  @DF-RHF Final Energy:  -307.09703282459003

   => Energetics <=

    Nuclear Repulsion Energy =            258.8609642828684514
    One-Electron Energy =                -932.1621493484715302
    Two-Electron Energy =                 366.2041522410132188
    DFT Exchange-Correlation Energy =       0.0000000000000000
    Empirical Dispersion Energy =           0.0000000000000000
    PCM Polarization Energy =               0.0000000000000000
    EFP Energy =                            0.0000000000000000
    Total Energy =                       -307.0970328245898031
    Molecular point group: c1
  Basis Set: CC-PVTZ
  Basis Set:

  -Total Gradient:
     Atom            X                  Y                   Z
    ------   -----------------  -----------------  -----------------
       1        0.000001538713     0.000000149583    -0.000001595212
       2        0.000002539456    -0.000005618801     0.000007832459
       3       -0.000016724666    -0.000012736203     0.000014772332
       4       -0.000002963564     0.000000121754     0.000000889612
       5       -0.000001185755    -0.000000246716    -0.000000282903
       6        0.000077938821     0.000071160711     0.000061230234
       7       -0.000292889042     0.001244806307    -0.001602143629
       8        0.000050970651    -0.000003101087    -0.000014463641
       9       -0.000019445700     0.000016732024    -0.000007269113
      10        0.000451798766    -0.002528516311     0.002259425735
      11        0.000020962093     0.000025908741     0.000020089495
      12       -0.000004652278    -0.000006431136    -0.000013336959
      13        0.000027289945     0.003611717772    -0.001211386378
      14       -0.000190212845    -0.002433354947     0.000452293252
      15       -0.000070141857     0.000019685156     0.000014320065
      16       -0.000034822740    -0.000000276846     0.000019624655

  **** Optimization is complete! (in 4 steps) ****
    Final optimized geometry and variables:
    Molecular point group: c1

    Geometry (in Angstrom), charge = 0, multiplicity = 1:

    H           -2.413366006625     0.706058450503     1.732873260355
    C           -2.199080350377    -0.353495008508     1.613382876940
    O           -1.012242550924    -0.557298175931     0.922414561626
    H           -2.092933280007    -0.799151504225     2.591647950648
    H           -3.042105001904    -0.819762180439     1.106618313135
    C           -1.003981963858    -0.041790768768    -0.368255587843
    C            0.360607766770    -0.225910665405    -0.983001872473
    H           -1.740763130653    -0.556485572634    -0.984918369874
    H           -1.252968385092     1.017171742756    -0.361529890062
    O            1.259829147060     0.660727463974    -0.401952583518
    H            0.680832729381    -1.255361683590    -0.836561264015
    H            0.293163838267    -0.043524137919    -2.054990657194
    C            2.576398237901     0.510852064723    -0.821659997131
    H            2.637084783086     0.308410236942    -1.888528074948
    H            3.107358801586     1.425749428675    -0.602203281891
    H            3.062203600313    -0.310751033531    -0.300234875972

  Mulliken Charges: (a.u.)
   Center  Symbol    Alpha    Beta     Spin     Total
       1     H     0.47015  0.47015  0.00000  0.05970
       2     C     3.03200  3.03200  0.00000 -0.06400
       3     O     4.17055  4.17055  0.00000 -0.34110
       4     H     0.44636  0.44636  0.00000  0.10728
       5     H     0.47368  0.47368  0.00000  0.05264
       6     C     2.96127  2.96127  0.00000  0.07746
       7     C     2.96015  2.96015  0.00000  0.07969
       8     H     0.47606  0.47606  0.00000  0.04787
       9     H     0.47085  0.47085  0.00000  0.05829
      10     O     4.17180  4.17180  0.00000 -0.34361
      11     H     0.47150  0.47150  0.00000  0.05701
      12     H     0.47519  0.47519  0.00000  0.04962
      13     C     3.03106  3.03106  0.00000 -0.06211
      14     H     0.47531  0.47531  0.00000  0.04938
      15     H     0.44857  0.44857  0.00000  0.10286
      16     H     0.46549  0.46549  0.00000  0.06902

   Total alpha = 25.00000, Total beta = 25.00000, Total charge = -0.00000
