                              Psi4 1.0.54 Driver

  ==> Input File <==

--------------------------------------------------------------------------
set {
	reference rhf
	basis cc-pvtz
}

set_num_threads( 4 )
memory 2 gb

molecule MOL {
0 1

H	 -3.941973	 0.934228	 -0.390224
C	 -3.240162	 0.342701	 0.161016
C	 -2.105997	 -0.000418	 -0.398703
H	 -3.485368	 0.047206	 1.162193
O	 -1.857689	 0.207286	 -1.712105
H	 -1.306244	 -0.454655	 0.157347
C	 -0.679850	 -0.279327	 -2.249714
C	 -0.843806	 -1.683548	 -2.794062
H	 0.128468	 -0.294093	 -1.528481
H	 -0.399105	 0.358048	 -3.074562
F	 0.294611	 -2.084753	 -3.323326
F	 -1.169748	 -2.540975	 -1.850618
F	 -1.764778	 -1.746965	 -3.724786

	symmetry c1
}
set optking {
	frozen_dihedral = ("
		6 3 2 1
	")
}

ee,wfn = optimize('scf', return_wfn=True)
oeprop( wfn, 'DIPOLE', 'QUADRUPOLE', 'MULLIKEN_CHARGES')
f=open( 'psi4out.xyz', 'w' )
f.write( "13  " )
f.write( str(ee) + "\n" )
f.write( MOL.save_string_xyz() )
f.close()
--------------------------------------------------------------------------

    Molecular point group: c1
  Charge       = 0
  Multiplicity = 1
  Basis Set: CC-PVTZ
  Basis Set:
  @DF-RHF Final Energy:  -527.73951731180296
    Total Energy =                       -527.7395173118030698
    Molecular point group: c1
  Basis Set: CC-PVTZ
  Basis Set:
  Basis Set: CC-PVTZ
  Basis Set:
  @DF-RHF Final Energy:  -527.74056957679034
    Total Energy =                       -527.7405695767906764
  Basis Set: CC-PVTZ
  Basis Set:
  Basis Set: CC-PVTZ
  Basis Set:
  @DF-RHF Final Energy:  -527.74107653217936
    Total Energy =                       -527.7410765321794770
  Basis Set: CC-PVTZ
  Basis Set:
  Basis Set: CC-PVTZ
  Basis Set:
  @DF-RHF Final Energy:  -527.74109286901717
    Total Energy =                       -527.7410928690171659
  Basis Set: CC-PVTZ
  Basis Set:
  Basis Set: CC-PVTZ
  Basis Set:
  @DF-RHF Final Energy:  -527.74109421676712
    Total Energy =                       -527.7410942167671237
  Basis Set: CC-PVTZ
  Basis Set:
  Charge       = 0
  Multiplicity = 1
  Basis Set: CC-PVTZ
  Basis Set:

    Orbital Energies (a.u.)
    -----------------------

    Doubly Occupied:

       1A    -26.341698     2A    -26.340323     3A    -26.337856
       4A    -20.604038     5A    -11.497685     6A    -11.320189
       7A    -11.299018     8A    -11.213954     9A     -1.750302
      10A     -1.646802    11A     -1.645196    12A     -1.444624
      13A     -1.088325    14A     -1.020564    15A     -0.932154
      16A     -0.843859    17A     -0.839447    18A     -0.827000
      19A     -0.798476    20A     -0.728711    21A     -0.719121
      22A     -0.703777    23A     -0.681720    24A     -0.667973
      25A     -0.661446    26A     -0.650743    27A     -0.640523
      28A     -0.587980    29A     -0.566293    30A     -0.528881
      31A     -0.518988    32A     -0.356278

  @DF-RHF Final Energy:  -527.74109484054668

   => Energetics <=

    Nuclear Repulsion Energy =            413.2854966882579220
    One-Electron Energy =               -1550.4452962193643089
    Two-Electron Energy =                 609.4187046905601619
    DFT Exchange-Correlation Energy =       0.0000000000000000
    Empirical Dispersion Energy =           0.0000000000000000
    PCM Polarization Energy =               0.0000000000000000
    EFP Energy =                            0.0000000000000000
    Total Energy =                       -527.7410948405461113
    Molecular point group: c1
  Basis Set: CC-PVTZ
  Basis Set:

  -Total Gradient:
     Atom            X                  Y                   Z
    ------   -----------------  -----------------  -----------------
       1        0.002833889693     0.005244943004     0.001767674314
       2       -0.002976220075    -0.004957753169    -0.002181313422
       3       -0.002358086091    -0.005866681186    -0.000302004722
       4        0.000018022230    -0.000044215420     0.000015013221
       5        0.000024892234    -0.000092205187    -0.000075860340
       6        0.002451642885     0.005669089707     0.000769045164
       7        0.000009968436     0.000042146179     0.000002889378
       8       -0.000002610335     0.000001172281    -0.000009029531
       9        0.000001061244     0.000001791942     0.000001427920
      10        0.000005750214     0.000006686944     0.000003756324
      11       -0.000020155426     0.000005270288     0.000006665378
      12        0.000008517914    -0.000013937892     0.000018471898
      13        0.000003327070     0.000003692507    -0.000016735580

  **** Optimization is complete! (in 6 steps) ****
    Final optimized geometry and variables:
    Molecular point group: c1

    Geometry (in Angstrom), charge = 0, multiplicity = 1:

    H           -2.585055341478     2.072050593074     1.704640529622
    C           -1.852571412562     1.506374763458     2.246065135098
    C           -0.741010758420     1.099554824541     1.682927947318
    H           -1.992909853399     1.355650000388     3.296931075021
    O           -0.488715381180     1.290218620686     0.367534878242
    H            0.066063961807     0.672036004458     2.249440077541
    C            0.686015865501     0.788641006996    -0.162994665428
    C            0.508321991352    -0.616913100762    -0.699645425380
    H            1.491950601809     0.769276120228     0.560766784681
    H            0.976631234808     1.418190594849    -0.990469700902
    F            1.644628600602    -1.034665665386    -1.220571887634
    F            0.167519677758    -1.464466627075     0.247330988740
    F           -0.408493419233    -0.675093813742    -1.634852530754

  Mulliken Charges: (a.u.)
   Center  Symbol    Alpha    Beta     Spin     Total
       1     H     0.42484  0.42484  0.00000  0.15033
       2     C     3.19704  3.19704  0.00000 -0.39408
       3     C     2.95820  2.95820  0.00000  0.08360
       4     H     0.42575  0.42575  0.00000  0.14849
       5     O     4.14474  4.14474  0.00000 -0.28949
       6     H     0.43456  0.43456  0.00000  0.13088
       7     C     3.01923  3.01923  0.00000 -0.03846
       8     C     2.67570  2.67570  0.00000  0.64860
       9     H     0.45523  0.45523  0.00000  0.08954
      10     H     0.43514  0.43514  0.00000  0.12971
      11     F     4.61266  4.61266  0.00000 -0.22532
      12     F     4.61020  4.61020  0.00000 -0.22039
      13     F     4.60671  4.60671  0.00000 -0.21341

   Total alpha = 32.00000, Total beta = 32.00000, Total charge = -0.00000

*** Psi4 exiting successfully. Buy a developer a beer!
