                              Psi4 1.0.54 Driver

  ==> Input File <==

--------------------------------------------------------------------------
set {
	reference rhf
	basis cc-pvtz
}

set_num_threads( 4 )
memory 2 gb

molecule MOL {
0 1

H	 2.973455	 -1.627713	 3.955608
C	 2.539531	 -1.765657	 2.972354
C	 1.277024	 -0.926911	 2.807328
H	 3.290656	 -1.491000	 2.239269
H	 2.330221	 -2.823086	 2.849680
C	 0.633291	 -1.091240	 1.438543
H	 1.503745	 0.122334	 2.960452
H	 0.558542	 -1.203199	 3.575460
N	 -0.547603	 -0.265744	 1.305202
H	 1.341240	 -0.792108	 0.671407
H	 0.418744	 -2.149788	 1.263818
C	 -1.215959	 -0.382435	 0.027143
H	 -1.189389	 -0.474215	 2.041388
C	 -2.451944	 0.502410	 -0.038737
H	 -0.517017	 -0.079846	 -0.746870
H	 -1.497411	 -1.415333	 -0.198655
C	 -3.752217	 -0.292550	 0.005776
H	 -2.407325	 1.093801	 -0.946480
H	 -2.431979	 1.206234	 0.790023
H	 -3.817783	 -0.982946	 -0.828547
H	 -4.612613	 0.364348	 -0.042306
H	 -3.830160	 -0.871666	 0.919868

	symmetry c1
}
set optking {
	frozen_dihedral = ("
		15 12 14 18
	")
}

ee,wfn = optimize('scf', return_wfn=True)
oeprop( wfn, 'DIPOLE', 'QUADRUPOLE', 'MULLIKEN_CHARGES')
f=open( 'psi4out.xyz', 'w' )
f.write( "22  " )
f.write( str(ee) + "\n" )
f.write( MOL.save_string_xyz() )
f.close()
--------------------------------------------------------------------------

    Molecular point group: c1
  Charge       = 0
  Multiplicity = 1
  Basis Set: CC-PVTZ
  Basis Set:
  @DF-RHF Final Energy:  -290.48414638532540
    Total Energy =                       -290.4841463853252321
    Molecular point group: c1
  Basis Set: CC-PVTZ
  Basis Set:
  Basis Set: CC-PVTZ
  Basis Set:
  @DF-RHF Final Energy:  -290.48446136363413
    Total Energy =                       -290.4844613636342956
  Basis Set: CC-PVTZ
  Basis Set:
  Basis Set: CC-PVTZ
  Basis Set:
  @DF-RHF Final Energy:  -290.48466175644728
    Total Energy =                       -290.4846617564474514
  Basis Set: CC-PVTZ
  Basis Set:
  Basis Set: CC-PVTZ
  Basis Set:
  @DF-RHF Final Energy:  -290.48466433344851
    Total Energy =                       -290.4846643334485634
  Basis Set: CC-PVTZ
  Basis Set:
  Charge       = 0
  Multiplicity = 1
  Basis Set: CC-PVTZ
  Basis Set:

    Orbital Energies (a.u.)
    -----------------------

    Doubly Occupied:

       1A    -15.528892     2A    -11.236270     3A    -11.236033
       4A    -11.211876     5A    -11.211552     6A    -11.208707
       7A    -11.207576     8A     -1.207206     9A     -1.058928
      10A     -1.025624    11A     -0.928713    12A     -0.873214
      13A     -0.809792    14A     -0.794220    15A     -0.667000
      16A     -0.633818    17A     -0.619719    18A     -0.594990
      19A     -0.576256    20A     -0.565901    21A     -0.548944
      22A     -0.527596    23A     -0.506302    24A     -0.488993
      25A     -0.479967    26A     -0.470708    27A     -0.466268
      28A     -0.451857    29A     -0.360629

  @DF-RHF Final Energy:  -290.48466478373780

   => Energetics <=

    Nuclear Repulsion Energy =            315.2514093125226964
    One-Electron Energy =               -1016.4770549716477035
    Two-Electron Energy =                 410.7409808753873790
    DFT Exchange-Correlation Energy =       0.0000000000000000
    Empirical Dispersion Energy =           0.0000000000000000
    PCM Polarization Energy =               0.0000000000000000
    EFP Energy =                            0.0000000000000000
    Total Energy =                       -290.4846647837376281
    Molecular point group: c1
  Basis Set: CC-PVTZ
  Basis Set:

  -Total Gradient:
     Atom            X                  Y                   Z
    ------   -----------------  -----------------  -----------------
       1       -0.000005311488     0.000004118916     0.000002940025
       2       -0.000002030852    -0.000000561568    -0.000016948730
       3       -0.000000736549     0.000008522898     0.000023589961
       4        0.000009705790     0.000002121099    -0.000002258066
       5        0.000000578320    -0.000010469528     0.000001875592
       6        0.000043982735    -0.000029978428    -0.000017191483
       7        0.000003687496     0.000009579300     0.000006511607
       8       -0.000005027807    -0.000001169804     0.000008250742
       9       -0.000030778769     0.000025532640     0.000018513084
      10        0.000003873490     0.000003558793    -0.000004768594
      11       -0.000006341200    -0.000001812955    -0.000006892357
      12        0.001581794497     0.002787902348     0.002783093085
      13       -0.000013596851     0.000004013210     0.000010528249
      14       -0.001794849795    -0.003053564004    -0.002432184877
      15       -0.001065284354    -0.001843919462    -0.001969340101
      16        0.000006458837    -0.000013432949     0.000001234274
      17        0.000022456354    -0.000018543840     0.000022935436
      18        0.001254730604     0.002112725793     0.001560079864
      19        0.000002058375     0.000013645077     0.000011336250
      20        0.000006445027     0.000001161937    -0.000013123371
      21       -0.000000780537     0.000017480408     0.000004041331
      22       -0.000011033324    -0.000016909883     0.000007778083

  **** Optimization is complete! (in 5 steps) ****
    Final optimized geometry and variables:
    Molecular point group: c1

    Geometry (in Angstrom), charge = 0, multiplicity = 1:

    H            3.439306550588    -1.051145693811     2.770336829249
    C            3.035352953953    -1.146900119358     1.769432902891
    C            1.756705966935    -0.331158925461     1.613780610059
    H            3.798406056095    -0.815498157783     1.073025539396
    H            2.856319896932    -2.201014158234     1.585487365349
    C            1.154748432813    -0.436669223136     0.220329144439
    H            1.952380134484     0.713359696908     1.829189081194
    H            1.024993493528    -0.666012296065     2.345284286914
    N           -0.042291619533     0.366740056293     0.097420027279
    H            1.875123251526    -0.079235168553    -0.509565894227
    H            0.971962799375    -1.488839426990    -0.017372352677
    C           -0.666599209537     0.303976108158    -1.208564111893
    H           -0.701056319649     0.097404858153     0.798505147814
    C           -1.976441248513     1.105529996451    -1.260113911217
    H            0.034435583097     0.686727586722    -1.941565293233
    H           -0.865934118136    -0.728504826881    -1.509782484544
    C           -3.233294014954     0.241159047963    -1.258395060055
    H           -1.975080418489     1.753982244512    -2.129052569732
    H           -1.992963937317     1.773482247948    -0.405786248817
    H           -3.275804138312    -0.392187137001    -2.137817127262
    H           -4.128740986864     0.851988573376    -1.246469822761
    H           -3.264841788961    -0.405968865310    -0.387148821884

  Mulliken Charges: (a.u.)
   Center  Symbol    Alpha    Beta     Spin     Total
       1     H     0.44772  0.44772  0.00000  0.10457
       2     C     3.15348  3.15348  0.00000 -0.30696
       3     C     3.08012  3.08012  0.00000 -0.16024
       4     H     0.45471  0.45471  0.00000  0.09058
       5     H     0.45614  0.45614  0.00000  0.08772
       6     C     3.02154  3.02154  0.00000 -0.04307
       7     H     0.44909  0.44909  0.00000  0.10182
       8     H     0.45981  0.45981  0.00000  0.08037
       9     N     3.63579  3.63579  0.00000 -0.27157
      10     H     0.45910  0.45910  0.00000  0.08180
      11     H     0.47428  0.47428  0.00000  0.05143
      12     C     3.03258  3.03258  0.00000 -0.06515
      13     H     0.44545  0.44545  0.00000  0.10910
      14     C     3.09560  3.09560  0.00000 -0.19121
      15     H     0.45480  0.45480  0.00000  0.09039
      16     H     0.47478  0.47478  0.00000  0.05043
      17     C     3.14576  3.14576  0.00000 -0.29153
      18     H     0.44852  0.44852  0.00000  0.10296
      19     H     0.44952  0.44952  0.00000  0.10097
      20     H     0.45482  0.45482  0.00000  0.09035
      21     H     0.44871  0.44871  0.00000  0.10258
      22     H     0.45768  0.45768  0.00000  0.08464

   Total alpha = 29.00000, Total beta = 29.00000, Total charge = -0.00000

*** Psi4 exiting successfully. Buy a developer a beer!
