  ==> Input File <==

--------------------------------------------------------------------------
set {
	reference rhf
	basis 6-31G*
}

set_num_threads( 4 )
memory 2 gb

molecule MOL {
0 1

H	 2.591676	 2.013956	 0.335017
O	 3.341076	 1.666752	 -0.126416
C	 3.569581	 0.339145	 0.272707
C	 2.539767	 -0.640285	 -0.279495
H	 4.553106	 0.084646	 -0.100901
H	 3.608576	 0.269204	 1.359154
C	 1.115811	 -0.397273	 0.226630
H	 2.556196	 -0.582511	 -1.364741
H	 2.852081	 -1.648031	 -0.010655
C	 0.115918	 -1.429151	 -0.302766
H	 0.797950	 0.599468	 -0.066350
H	 1.109961	 -0.420744	 1.316472
C	 -1.331538	 -0.933090	 -0.398337
H	 0.443064	 -1.775232	 -1.281567
H	 0.139082	 -2.299725	 0.349358
C	 -1.567263	 0.171646	 -1.432005
H	 -1.967564	 -1.780541	 -0.645551
H	 -1.658061	 -0.586449	 0.580979
C	 -3.041678	 0.558715	 -1.565103
H	 -1.194477	 -0.157743	 -2.400842
H	 -0.993983	 1.057705	 -1.170181
C	 -3.278995	 1.665758	 -2.591651
H	 -3.620809	 -0.319669	 -1.841755
H	 -3.418515	 0.878887	 -0.595892
H	 -2.942127	 1.363420	 -3.579242
H	 -4.332891	 1.916094	 -2.664253
H	 -2.742023	 2.571360	 -2.323492

	symmetry c1
}
set optking {
	frozen_dihedral = ("
		14 10 7 4
	")
}

ee = optimize('scf')
oeprop('DIPOLE', 'QUADRUPOLE', 'MULLIKEN_CHARGES')
f=open( 'psi4out.xyz', 'w' )
f.write( "27  " )
f.write( str(ee) + "\n" )
f.write( MOL.save_string_xyz() )
f.close()
--------------------------------------------------------------------------

    Molecular point group: c1
  Charge       = 0
  Multiplicity = 1
  Basis Set: 6-31G*
  Basis Set:
  @DF-RHF Final Energy:  -388.27895100758673
    Total Energy =                       -388.2789510075862154
    Molecular point group: c1
  Basis Set: 6-31G*
  Basis Set:
  Basis Set: 6-31G*
  Basis Set:
  @DF-RHF Final Energy:  -388.27915647177184
    Total Energy =                       -388.2791564717715573
  Basis Set: 6-31G*
  Basis Set:
  Basis Set: 6-31G*
  Basis Set:
  @DF-RHF Final Energy:  -388.27940640121733
    Total Energy =                       -388.2794064012174431
  Basis Set: 6-31G*
  Basis Set:
  Basis Set: 6-31G*
  Basis Set:
  @DF-RHF Final Energy:  -388.27941527469125
    Total Energy =                       -388.2794152746909049
  Basis Set: 6-31G*
  Basis Set:
  Basis Set: 6-31G*
  Basis Set:
  @DF-RHF Final Energy:  -388.27944173648092
    Total Energy =                       -388.2794417364810897
  Basis Set: 6-31G*
  Basis Set:
  Basis Set: 6-31G*
  Basis Set:
  @DF-RHF Final Energy:  -388.27944442068429
    Total Energy =                       -388.2794444206847402
  Basis Set: 6-31G*
  Basis Set:
  Charge       = 0
  Multiplicity = 1
  Basis Set: 6-31G*
  Basis Set:

    Orbital Energies (a.u.)
    -----------------------

    Doubly Occupied:

       1A    -20.552346     2A    -11.266932     3A    -11.219656
       4A    -11.217049     5A    -11.215706     6A    -11.215485
       7A    -11.215413     8A    -11.213523     9A    -11.208563
      10A     -1.359036    11A     -1.094282    12A     -1.060867
      13A     -1.011174    14A     -0.948176    15A     -0.887423
      16A     -0.820516    17A     -0.798810    18A     -0.780866
      19A     -0.694554    20A     -0.645909    21A     -0.638267
      22A     -0.615000    23A     -0.604794    24A     -0.582112
      25A     -0.577891    26A     -0.553336    27A     -0.540969
      28A     -0.527338    29A     -0.506131    30A     -0.495661
      31A     -0.483053    32A     -0.473763    33A     -0.469927
      34A     -0.460413    35A     -0.450637    36A     -0.440938
      37A     -0.422958

  @DF-RHF Final Energy:  -388.27944473099620

   => Energetics <=

    Nuclear Repulsion Energy =            461.1839278384854310
    One-Electron Energy =               -1440.3877959693827506
    Two-Electron Energy =                 590.9244233999012295
    DFT Exchange-Correlation Energy =       0.0000000000000000
    Empirical Dispersion Energy =           0.0000000000000000
    PCM Polarization Energy =               0.0000000000000000
    EFP Energy =                            0.0000000000000000
    Total Energy =                       -388.2794447309960333
    Molecular point group: c1
  Basis Set: 6-31G*
  Basis Set:

  -Total Gradient:
     Atom            X                  Y                   Z
    ------   -----------------  -----------------  -----------------
       1        0.000018455841     0.000017804818    -0.000004681710
       2       -0.000014635886     0.000011789573     0.000024798698
       3        0.000001776004    -0.000004057912    -0.000013927411
       4       -0.000506173331     0.001670050575    -0.002096935429
       5       -0.000009325882    -0.000018304251    -0.000001965256
       6        0.000000574843     0.000000229750     0.000000870952
       7        0.001137911235    -0.003022495736     0.003276226596
       8        0.000040515639     0.000031391276     0.000002929754
       9       -0.000019711198     0.000000833023    -0.000008707854
      10       -0.002561556409     0.004159145604    -0.002672413652
      11       -0.000012111380    -0.000045579993    -0.000003387709
      12        0.000038350299    -0.000005649275     0.000004044058
      13        0.000021464218    -0.000022929058    -0.000050431487
      14        0.001926088518    -0.002808488370     0.001523815326
      15       -0.000039985566     0.000018293481     0.000042456601
      16       -0.000010529715     0.000031066563    -0.000030358106
      17        0.000007848229    -0.000046258052     0.000010810222
      18        0.000011232380    -0.000000209513    -0.000027471502
      19        0.000024925406     0.000053245309     0.000041062135
      20        0.000000392164    -0.000000144232    -0.000012790239
      21       -0.000057264998    -0.000002006772    -0.000004148845
      22       -0.000000665280    -0.000033367191    -0.000016213657
      23        0.000012106517     0.000006659666     0.000011595986
      24       -0.000010714228     0.000018966022     0.000007426381
      25        0.000010739488     0.000006985582    -0.000008607775
      26       -0.000001118454    -0.000015010236    -0.000005112120
      27       -0.000008588461    -0.000001960654     0.000011116043

  **** Optimization is complete! (in 7 steps) ****
    Final optimized geometry and variables:
    Molecular point group: c1

    Geometry (in Angstrom), charge = 0, multiplicity = 1:

    H            2.434779447845     1.814054777951     1.255093086905
    O            3.182906471304     1.509455166714     0.762426168049
    C            3.396886144549     0.145286723115     1.022577553817
    C            2.358085291734    -0.759953760870     0.370546899017
    H            4.378822613669    -0.079521830027     0.626438974394
    H            3.431955029591    -0.036883339198     2.096025747294
    C            0.931313115103    -0.537024097575     0.877969926178
    H            2.384944461474    -0.602264827073    -0.704181399975
    H            2.651368895521    -1.794086313536     0.546816033734
    C           -0.076628846732    -1.544142366920     0.301018556799
    H            0.627946922084     0.472779131241     0.615146319317
    H            0.908900209388    -0.590915437857     1.965387049675
    C           -1.527296802171    -1.051827640067     0.256687755903
    H            0.243276475055    -1.856643792541    -0.690996913307
    H           -0.034380412379    -2.447738888901     0.905635826538
    C           -1.815050286614    -0.024593813963    -0.841814414467
    H           -2.182034648964    -1.907746939684     0.108261134067
    H           -1.793632991107    -0.633197918052     1.226235116641
    C           -3.270781036101     0.446523050769    -0.853746427050
    H           -1.572151177927    -0.462257963945    -1.808743494955
    H           -1.165495374004     0.840214036336    -0.729132070739
    C           -3.563792922421     1.453944763230    -1.964995252242
    H           -3.926890681283    -0.414138632807    -0.965339434283
    H           -3.513290008261     0.891140115045     0.109270301847
    H           -3.362103291406     1.027731277211    -2.943679572385
    H           -4.603244580243     1.766877785555    -1.948629605021
    H           -2.948989062705     2.343498715375    -1.860294586830

  Mulliken Charges: (a.u.)
   Center  Symbol    Alpha    Beta     Spin     Total
       1     H     0.27980  0.27980  0.00000  0.44039
       2     O     4.37100  4.37100  0.00000 -0.74201
       3     C     2.99769  2.99769  0.00000  0.00461
       4     C     3.16226  3.16226  0.00000 -0.32451
       5     H     0.41447  0.41447  0.00000  0.17106
       6     H     0.43193  0.43193  0.00000  0.13614
       7     C     3.16398  3.16398  0.00000 -0.32796
       8     H     0.41453  0.41453  0.00000  0.17093
       9     H     0.42423  0.42423  0.00000  0.15153
      10     C     3.15436  3.15436  0.00000 -0.30872
      11     H     0.42283  0.42283  0.00000  0.15433
      12     H     0.42375  0.42375  0.00000  0.15250
      13     C     3.15457  3.15457  0.00000 -0.30914
      14     H     0.42074  0.42074  0.00000  0.15853
      15     H     0.42052  0.42052  0.00000  0.15896
      16     C     3.15209  3.15209  0.00000 -0.30418
      17     H     0.42123  0.42123  0.00000  0.15754
      18     H     0.42435  0.42435  0.00000  0.15130
      19     C     3.15124  3.15124  0.00000 -0.30249
      20     H     0.42342  0.42342  0.00000  0.15315
      21     H     0.42257  0.42257  0.00000  0.15486
      22     C     3.23924  3.23924  0.00000 -0.47848
      23     H     0.42309  0.42309  0.00000  0.15381
      24     H     0.42355  0.42355  0.00000  0.15291
      25     H     0.42146  0.42146  0.00000  0.15708
      26     H     0.41942  0.41942  0.00000  0.16116
      27     H     0.42166  0.42166  0.00000  0.15669

   Total alpha = 37.00000, Total beta = 37.00000, Total charge =  0.00000
