  ==> Input File <==

--------------------------------------------------------------------------
set {
	reference rhf
	basis 6-31G*
}

set_num_threads( 4 )
memory 2 gb

molecule MOL {
0 1

H	 -4.031818	 -0.453427	 -0.000094
C	 -2.967712	 -0.297022	 -0.000064
C	 -2.458620	 0.992929	 0.000032
C	 -2.109895	 -1.385637	 -0.000122
H	 -3.124998	 1.836319	 0.000077
C	 -1.090278	 1.193236	 0.000070
H	 -2.506361	 -2.384847	 -0.000198
C	 -0.739812	 -1.187531	 -0.000085
H	 -0.678594	 2.184290	 0.000146
C	 -0.226438	 0.104061	 0.000012
H	 -0.072310	 -2.027032	 -0.000131
C	 1.239129	 0.373821	 0.000060
O	 1.639395	 1.067127	 -1.055268
O	 1.983084	 0.008463	 0.855573
C	 3.021068	 1.369015	 -1.135993
H	 3.328932	 1.962085	 -0.287299
H	 3.146606	 1.928323	 -2.049923
H	 3.605503	 0.461080	 -1.167786

	symmetry c1
}
set optking {
	frozen_dihedral = ("
		13 12 10 6
	")
}

ee = optimize('scf')
oeprop('DIPOLE', 'QUADRUPOLE', 'MULLIKEN_CHARGES')
f=open( 'psi4out.xyz', 'w' )
f.write( "18  " )
f.write( str(ee) + "\n" )
f.write( MOL.save_string_xyz() )
f.close()
--------------------------------------------------------------------------

    Molecular point group: c1
  Charge       = 0
  Multiplicity = 1
  Basis Set: 6-31G*
  Basis Set:
  @DF-RHF Final Energy:  -457.34115850076563
    Total Energy =                       -457.3411585007658005
    Molecular point group: c1
  Basis Set: 6-31G*
  Basis Set:
  Basis Set: 6-31G*
  Basis Set:
  @DF-RHF Final Energy:  -457.34175924569007
    Total Energy =                       -457.3417592456901275
  Basis Set: 6-31G*
  Basis Set:
  Basis Set: 6-31G*
  Basis Set:
  @DF-RHF Final Energy:  -457.34090776251622
    Total Energy =                       -457.3409077625165082
  Basis Set: 6-31G*
  Basis Set:
  Basis Set: 6-31G*
  Basis Set:
  @DF-RHF Final Energy:  -457.34241523763228
    Total Energy =                       -457.3424152376319398
  Basis Set: 6-31G*
  Basis Set:
  Basis Set: 6-31G*
  Basis Set:
  @DF-RHF Final Energy:  -457.34243106168611
    Total Energy =                       -457.3424310616862840
  Basis Set: 6-31G*
  Basis Set:
  Basis Set: 6-31G*
  Basis Set:
  @DF-RHF Final Energy:  -457.34243248101802
    Total Energy =                       -457.3424324810179087
  Basis Set: 6-31G*
  Basis Set:
  Charge       = 0
  Multiplicity = 1
  Basis Set: 6-31G*
  Basis Set:

    Orbital Energies (a.u.)
    -----------------------

    Doubly Occupied:

       1A    -20.609465     2A    -20.549136     3A    -11.379652
       4A    -11.283447     5A    -11.249533     6A    -11.244740
       7A    -11.243060     8A    -11.241737     9A    -11.239119
      10A    -11.238507    11A     -1.474539    12A     -1.367060
      13A     -1.166299    14A     -1.048580    15A     -1.025578
      16A     -0.979626    17A     -0.859815    18A     -0.837401
      19A     -0.779758    20A     -0.737695    21A     -0.684566
      22A     -0.679113    23A     -0.675788    24A     -0.629960
      25A     -0.629227    26A     -0.597187    27A     -0.590235
      28A     -0.551497    29A     -0.534925    30A     -0.516910
      31A     -0.506026    32A     -0.501798    33A     -0.459115
      34A     -0.445330    35A     -0.342972    36A     -0.341922

  @DF-RHF Final Energy:  -457.34243264153753

   => Energetics <=

    Nuclear Repulsion Energy =            491.9234044059647317
    One-Electron Energy =               -1598.0490313260952462
    Two-Electron Energy =                 648.7831942785931005
    DFT Exchange-Correlation Energy =       0.0000000000000000
    Empirical Dispersion Energy =           0.0000000000000000
    PCM Polarization Energy =               0.0000000000000000
    EFP Energy =                            0.0000000000000000
    Total Energy =                       -457.3424326415374708
    Molecular point group: c1
  Basis Set: 6-31G*
  Basis Set:

  -Total Gradient:
     Atom            X                  Y                   Z
    ------   -----------------  -----------------  -----------------
       1        0.000000135966     0.000002770784    -0.000005537836
       2        0.000018729359    -0.000100678012     0.000015293408
       3        0.000077936847     0.000055020538     0.000015761835
       4       -0.000097229620     0.000025173695    -0.000000385458
       5       -0.000002519871    -0.000002605757    -0.000002322840
       6       -0.000217624057    -0.000223288558     0.005714906494
       7        0.000001832944    -0.000004765560     0.000002519438
       8        0.000063662510     0.000033111821    -0.000041085293
       9        0.000006766877    -0.000002328590     0.000014371076
      10        0.000463672674    -0.001250473014    -0.009486108257
      11       -0.000011031935    -0.000003345993     0.000016482754
      12       -0.001143666472     0.006172981395     0.006787361986
      13        0.000814725040    -0.004693957204    -0.003004345299
      14        0.000018790301    -0.000012999062    -0.000020643742
      15        0.000002965652     0.000018398674     0.000005179880
      16        0.000000335868    -0.000003418877    -0.000006301505
      17        0.000002168512    -0.000003239144    -0.000003836438
      18        0.000000349401    -0.000006357135    -0.000001310198

  **** Optimization is complete! (in 7 steps) ****
    Final optimized geometry and variables:
    Molecular point group: c1

    Geometry (in Angstrom), charge = 0, multiplicity = 1:

    H           -3.984736524716    -0.735396073670     0.235496118459
    C           -2.924563149619    -0.559883732406     0.197218736776
    C           -2.438472582729     0.737494035649     0.168391923449
    C           -2.045254927637    -1.631235235550     0.186032862204
    H           -3.118812722965     1.569503134522     0.191784874945
    C           -1.073878965471     0.964556294070     0.109655683125
    H           -2.420800332505    -2.637994674472     0.218091425177
    C           -0.679904495564    -1.406010362013     0.151433999036
    H           -0.694958365012     1.969839186626     0.075753337416
    C           -0.193887212402    -0.108007495574     0.083952368094
    H            0.008176705390    -2.230827703485     0.177505738224
    C            1.284042608656     0.113676327977     0.128894849165
    O            1.715081661087     0.839379975981    -0.891117502263
    O            2.003199976201    -0.351274451800     0.953481950192
    C            3.104974809694     1.113027237128    -0.940937672312
    H            3.418874339637     1.650475690713    -0.057701428545
    H            3.253544884001     1.718150443850    -1.821390919914
    H            3.667434420199     0.193919666732    -1.017134909222

  Mulliken Charges: (a.u.)
   Center  Symbol    Alpha    Beta     Spin     Total
       1     H     0.39614  0.39614  0.00000  0.20773
       2     C     3.09487  3.09487  0.00000 -0.18975
       3     C     3.10193  3.10193  0.00000 -0.20386
       4     C     3.10276  3.10276  0.00000 -0.20552
       5     H     0.39606  0.39606  0.00000  0.20789
       6     C     3.09388  3.09388  0.00000 -0.18776
       7     H     0.39556  0.39556  0.00000  0.20887
       8     C     3.09478  3.09478  0.00000 -0.18955
       9     H     0.38948  0.38948  0.00000  0.22104
      10     C     3.02256  3.02256  0.00000 -0.04512
      11     H     0.38599  0.38599  0.00000  0.22803
      12     C     2.63055  2.63055  0.00000  0.73890
      13     O     4.29882  4.29882  0.00000 -0.59763
      14     O     4.27989  4.27989  0.00000 -0.55978
      15     C     3.09409  3.09409  0.00000 -0.18818
      16     H     0.40861  0.40861  0.00000  0.18278
      17     H     0.40670  0.40670  0.00000  0.18659
      18     H     0.40734  0.40734  0.00000  0.18532

   Total alpha = 36.00000, Total beta = 36.00000, Total charge = -0.00000
