  ==> Input File <==

--------------------------------------------------------------------------
set {
	reference rhf
	basis 6-31G*
}

set_num_threads( 4 )
memory 2 gb

molecule MOL {
0 1

H	 -3.420663	 1.227371	 -1.044276
O	 -3.452007	 0.283848	 -0.965577
C	 -3.181085	 -0.079926	 0.364119
C	 -1.765924	 0.277073	 0.805136
H	 -3.327791	 -1.152017	 0.410903
H	 -3.905698	 0.375695	 1.036898
C	 -0.677594	 -0.417312	 -0.014550
H	 -1.637766	 1.358238	 0.744969
H	 -1.659588	 0.017670	 1.857098
C	 0.738335	 -0.034840	 0.421385
H	 -0.814977	 -0.178223	 -1.064632
H	 -0.802730	 -1.495410	 0.071702
C	 1.008596	 -0.343304	 1.896476
H	 1.455242	 -0.559860	 -0.205366
H	 0.897560	 1.027896	 0.242933
C	 2.384561	 0.103440	 2.403718
H	 0.893579	 -1.412569	 2.067175
H	 0.244371	 0.143022	 2.499191
C	 3.565767	 -0.636396	 1.773003
H	 2.418084	 -0.041684	 3.480800
H	 2.498735	 1.173006	 2.238809
H	 3.472125	 -1.710274	 1.911406
H	 4.501869	 -0.326168	 2.227215
H	 3.642984	 -0.445587	 0.707736

	symmetry c1
}
set optking {
	frozen_dihedral = ("
		13 10 7 11
	")
}

ee = optimize('scf')
oeprop('DIPOLE', 'QUADRUPOLE', 'MULLIKEN_CHARGES')
f=open( 'psi4out.xyz', 'w' )
f.write( "24  " )
f.write( str(ee) + "\n" )
f.write( MOL.save_string_xyz() )
f.close()
--------------------------------------------------------------------------

    Molecular point group: c1
  Charge       = 0
  Multiplicity = 1
  Basis Set: 6-31G*
  Basis Set:
  @DF-RHF Final Energy:  -349.24432360663212
    Total Energy =                       -349.2443236066324062
    Molecular point group: c1
  Basis Set: 6-31G*
  Basis Set:
  Basis Set: 6-31G*
  Basis Set:
  @DF-RHF Final Energy:  -349.24492419234525
    Total Energy =                       -349.2449241923453656
  Basis Set: 6-31G*
  Basis Set:
  Basis Set: 6-31G*
  Basis Set:
  @DF-RHF Final Energy:  -349.24566552792305
    Total Energy =                       -349.2456655279229381
  Basis Set: 6-31G*
  Basis Set:
  Basis Set: 6-31G*
  Basis Set:
  @DF-RHF Final Energy:  -349.24566773457963
    Total Energy =                       -349.2456677345796265
  Basis Set: 6-31G*
  Basis Set:
  Basis Set: 6-31G*
  Basis Set:
  @DF-RHF Final Energy:  -349.24569738474150
    Total Energy =                       -349.2456973847417885
  Basis Set: 6-31G*
  Basis Set:
  Basis Set: 6-31G*
  Basis Set:
  @DF-RHF Final Energy:  -349.24570779813735
    Total Energy =                       -349.2457077981371185
  Basis Set: 6-31G*
  Basis Set:
  Basis Set: 6-31G*
  Basis Set:
  @DF-RHF Final Energy:  -349.24570978838619
    Total Energy =                       -349.2457097883861366
  Basis Set: 6-31G*
  Basis Set:
  Charge       = 0
  Multiplicity = 1
  Basis Set: 6-31G*
  Basis Set:

    Orbital Energies (a.u.)
    -----------------------

    Doubly Occupied:

       1A    -20.553701     2A    -11.267723     3A    -11.216849
       4A    -11.215025     5A    -11.212853     6A    -11.212275
       7A    -11.211147     8A    -11.207524     9A     -1.360283
      10A     -1.088783    11A     -1.046886    12A     -0.984390
      13A     -0.916678    14A     -0.853550    15A     -0.806435
      16A     -0.768864    17A     -0.679537    18A     -0.640786
      19A     -0.633117    20A     -0.619206    21A     -0.601010
      22A     -0.583450    23A     -0.556895    24A     -0.547964
      25A     -0.516794    26A     -0.508000    27A     -0.499195
      28A     -0.478117    29A     -0.471060    30A     -0.455807
      31A     -0.454667    32A     -0.437612    33A     -0.424423

  @DF-RHF Final Energy:  -349.24571061293898

   => Energetics <=

    Nuclear Repulsion Energy =            387.6785317596742289
    One-Electron Energy =               -1241.7872759134584157
    Two-Electron Energy =                 504.8630335408454926
    DFT Exchange-Correlation Energy =       0.0000000000000000
    Empirical Dispersion Energy =           0.0000000000000000
    PCM Polarization Energy =               0.0000000000000000
    EFP Energy =                            0.0000000000000000
    Total Energy =                       -349.2457106129386943
    Molecular point group: c1
  Basis Set: 6-31G*
  Basis Set:

  -Total Gradient:
     Atom            X                  Y                   Z
    ------   -----------------  -----------------  -----------------
       1       -0.000001691415     0.000009965134    -0.000010540924
       2       -0.000019793953     0.000032024647     0.000011463948
       3        0.000014475908    -0.000060822982    -0.000008500693
       4       -0.000005262602     0.000029464878    -0.000007916757
       5       -0.000003223687    -0.000006547242     0.000011681747
       6        0.000003699461     0.000004175003    -0.000006547319
       7        0.000503864325    -0.001222198633    -0.000371474122
       8        0.000007480987     0.000008096598     0.000004878946
       9       -0.000004779428     0.000002065924    -0.000009584806
      10        0.000441671516    -0.001113302890    -0.000311753902
      11       -0.000555007461     0.001323518571     0.000395476039
      12        0.000006218461     0.000001657054    -0.000001922776
      13       -0.000398044677     0.000996074962     0.000290866304
      14       -0.000000793870     0.000005884073    -0.000005999345
      15       -0.000003332293    -0.000004414511     0.000007887780
      16        0.000002895548    -0.000005986663     0.000009476245
      17        0.000003091726     0.000007227635    -0.000003134065
      18       -0.000008318430    -0.000004379120    -0.000001432408
      19        0.000001012374    -0.000000877923     0.000003541350
      20        0.000015678191     0.000005056308     0.000005195747
      21       -0.000002633054    -0.000007346988    -0.000000728710
      22       -0.000004355526     0.000006164361     0.000004074273
      23        0.000005558377     0.000000430067    -0.000004783626
      24        0.000001589527    -0.000005928266    -0.000000222926

  **** Optimization is complete! (in 8 steps) ****
    Final optimized geometry and variables:
    Molecular point group: c1

    Geometry (in Angstrom), charge = 0, multiplicity = 1:

    H           -3.142953351182     1.394443015708    -1.849920713292
    O           -3.166032857010     0.447463542686    -1.856495214135
    C           -2.999665276349    -0.029404412942    -0.545445321096
    C           -1.629866739167     0.294608105917     0.042376066247
    H           -3.136706613820    -1.102210874620    -0.603460448114
    H           -3.782576392971     0.362270642598     0.101644414343
    C           -0.477088428551    -0.338573974210    -0.741771664413
    H           -1.504246934024     1.377898130359     0.070224536689
    H           -1.621726205439    -0.039541471395     1.076514815013
    C            0.922944716010     0.109634180102    -0.304951097197
    H           -0.608899397759    -0.089740541613    -1.789547538204
    H           -0.550744758338    -1.422294977938    -0.667298088279
    C            1.262604383862    -0.174988889835     1.161555226285
    H            1.646785802180    -0.379302262884    -0.950417007832
    H            1.027428744969     1.178575631593    -0.488279034879
    C            2.687506028144     0.221183143798     1.568925868738
    H            1.113401957759    -1.234243442003     1.368934719105
    H            0.567405104451     0.360743040067     1.801742573979
    C            3.792667686158    -0.620349894924     0.927847747910
    H            2.771946608793     0.137771429778     2.649754599031
    H            2.849521231368     1.271248096510     1.333411888162
    H            3.652157284657    -1.676312149943     1.142688154592
    H            4.766662407763    -0.332995694240     1.312091899231
    H            3.822161297181    -0.503294887209    -0.150145261903

  Mulliken Charges: (a.u.)
   Center  Symbol    Alpha    Beta     Spin     Total
       1     H     0.28334  0.28334  0.00000  0.43332
       2     O     4.36837  4.36837  0.00000 -0.73674
       3     C     2.99615  2.99615  0.00000  0.00770
       4     C     3.17113  3.17113  0.00000 -0.34227
       5     H     0.41628  0.41628  0.00000  0.16744
       6     H     0.42802  0.42802  0.00000  0.14397
       7     C     3.15428  3.15428  0.00000 -0.30857
       8     H     0.42898  0.42898  0.00000  0.14204
       9     H     0.42015  0.42015  0.00000  0.15969
      10     C     3.15501  3.15501  0.00000 -0.31001
      11     H     0.40876  0.40876  0.00000  0.18248
      12     H     0.42386  0.42386  0.00000  0.15228
      13     C     3.15482  3.15482  0.00000 -0.30963
      14     H     0.41886  0.41886  0.00000  0.16228
      15     H     0.42592  0.42592  0.00000  0.14817
      16     C     3.15207  3.15207  0.00000 -0.30414
      17     H     0.42517  0.42517  0.00000  0.14965
      18     H     0.42114  0.42114  0.00000  0.15773
      19     C     3.24098  3.24098  0.00000 -0.48197
      20     H     0.42140  0.42140  0.00000  0.15720
      21     H     0.42373  0.42373  0.00000  0.15255
      22     H     0.42221  0.42221  0.00000  0.15557
      23     H     0.41948  0.41948  0.00000  0.16103
      24     H     0.41989  0.41989  0.00000  0.16022

   Total alpha = 33.00000, Total beta = 33.00000, Total charge =  0.00000
