  ==> Input File <==

--------------------------------------------------------------------------
set {
	reference rhf
	basis 6-31G*
}

set_num_threads( 1 )
memory 2 gb

molecule MOL {
0 1

O	 1.846825	 1.296220	 0.000415
C	 1.705091	 0.115954	 0.001797
C	 0.381791	 -0.609817	 0.001258
O	 2.721346	 -0.737485	 -0.000216
C	 -0.823008	 0.326187	 0.001381
H	 0.371250	 -1.265087	 -0.865474
H	 0.370908	 -1.265746	 0.867490
C	 -1.799948	 0.014593	 1.136088
H	 -1.332331	 0.253549	 -0.954392
H	 -0.478597	 1.352415	 0.082288
C	 -3.015098	 0.943602	 1.150662
H	 -2.138887	 -1.016889	 1.051470
H	 -1.282664	 0.086771	 2.091645
C	 -3.990254	 0.632561	 2.285375
H	 -3.534423	 0.870746	 0.197701
H	 -2.678188	 1.974302	 1.236028
H	 -4.372025	 -0.381558	 2.207739
H	 -4.840225	 1.307643	 2.269168
H	 -3.508806	 0.730333	 3.254375
C	 4.024888	 -0.184556	 -0.001949
H	 4.179030	 0.422472	 -0.882452
H	 4.701782	 -1.024608	 -0.003642
H	 4.181981	 0.421185	 0.878906

	symmetry c1
}
set optking {
	frozen_dihedral = ("
		15 11 8 12,
		9 5 8 12,
		1 2 3 6,
		1 2 4 20
	")
}

ee = energy('scf')
oeprop('DIPOLE', 'QUADRUPOLE', 'MULLIKEN_CHARGES')
f=open( 'psi4out.xyz', 'w' )
f.write( "23  " )
f.write( str(ee) + "\n" )
f.write( MOL.save_string_xyz() )
f.close()
--------------------------------------------------------------------------

    Molecular point group: c1

    Geometry (in Angstrom), charge = 0, multiplicity = 1:

       Center              X                  Y                   Z               Mass
    ------------   -----------------  -----------------  -----------------  -----------------
           O          1.689815969839     1.094189617391    -0.510108754341    15.994914619560
           C          1.548081969839    -0.086076382609    -0.508726754341    12.000000000000
           C          0.224781969839    -0.811847382609    -0.509265754341    12.000000000000
           O          2.564336969839    -0.939515382609    -0.510739754341    15.994914619560
           C         -0.980017030161     0.124156617391    -0.509142754341    12.000000000000
           H          0.214240969839    -1.467117382609    -1.375997754341     1.007825032070
           H          0.213898969839    -1.467776382609     0.356966245659     1.007825032070
           C         -1.956957030161    -0.187437382609     0.625564245659    12.000000000000
           H         -1.489340030161     0.051518617391    -1.464915754341     1.007825032070
           H         -0.635606030161     1.150384617391    -0.428235754341     1.007825032070
           C         -3.172107030161     0.741571617391     0.640138245659    12.000000000000
           H         -2.295896030161    -1.218919382609     0.540946245659     1.007825032070
           H         -1.439673030161    -0.115259382609     1.581121245659     1.007825032070
           C         -4.147263030161     0.430530617391     1.774851245659    12.000000000000
           H         -3.691432030161     0.668715617391    -0.312822754341     1.007825032070
           H         -2.835197030161     1.772271617391     0.725504245659     1.007825032070
           H         -4.529034030161    -0.583588382609     1.697215245659     1.007825032070
           H         -4.997234030161     1.105612617391     1.758644245659     1.007825032070
           H         -3.665815030161     0.528302617391     2.743851245659     1.007825032070
           C          3.867878969839    -0.386586382609    -0.512472754341    12.000000000000
           H          4.022020969839     0.220441617391    -1.392975754341     1.007825032070
           H          4.544772969839    -1.226638382609    -0.514165754341     1.007825032070
           H          4.024971969839     0.219154617391     0.368382245659     1.007825032070

  Charge       = 0
  Multiplicity = 1
  Basis Set: 6-31G*
  Basis Set:

    Orbital Energies (a.u.)
    -----------------------

    Doubly Occupied:

       1A    -20.604353     2A    -20.546406     3A    -11.372989
       4A    -11.281211     5A    -11.234040     6A    -11.216341
       7A    -11.214789     8A    -11.214557     9A    -11.208322
      10A     -1.470086    11A     -1.363908    12A     -1.091879
      13A     -1.042540    14A     -0.986603    15A     -0.931048
      16A     -0.842990    17A     -0.794821    18A     -0.766817
      19A     -0.702363    20A     -0.681513    21A     -0.672807
      22A     -0.644286    23A     -0.611973    24A     -0.599992
      25A     -0.570201    26A     -0.556675    27A     -0.555279
      28A     -0.528226    29A     -0.523515    30A     -0.501150
      31A     -0.484638    32A     -0.468566    33A     -0.461967
      34A     -0.457882    35A     -0.454566    36A     -0.438290

  @DF-RHF Final Energy:  -422.97151263531595

   => Energetics <=

    Nuclear Repulsion Energy =            455.1199157820357755
    One-Electron Energy =               -1477.9877213064235093
    Two-Electron Energy =                 599.8962928890707644
    DFT Exchange-Correlation Energy =       0.0000000000000000
    Empirical Dispersion Energy =           0.0000000000000000
    PCM Polarization Energy =               0.0000000000000000
    EFP Energy =                            0.0000000000000000
    Total Energy =                       -422.9715126353169126

  Mulliken Charges: (a.u.)
   Center  Symbol    Alpha    Beta     Spin     Total
       1     O     4.28462  4.28462  0.00000 -0.56923
       2     C     2.61111  2.61111  0.00000  0.77779
       3     C     3.21065  3.21065  0.00000 -0.42130
       4     O     4.30577  4.30577  0.00000 -0.61155
       5     C     3.16244  3.16244  0.00000 -0.32489
       6     H     0.39750  0.39750  0.00000  0.20500
       7     H     0.39776  0.39776  0.00000  0.20448
       8     C     3.15557  3.15557  0.00000 -0.31115
       9     H     0.41894  0.41894  0.00000  0.16213
      10     H     0.39268  0.39268  0.00000  0.21464
      11     C     3.15244  3.15244  0.00000 -0.30489
      12     H     0.42458  0.42458  0.00000  0.15084
      13     H     0.42222  0.42222  0.00000  0.15556
      14     C     3.23948  3.23948  0.00000 -0.47897
      15     H     0.42284  0.42284  0.00000  0.15432
      16     H     0.41999  0.41999  0.00000  0.16002
      17     H     0.42232  0.42232  0.00000  0.15537
      18     H     0.41888  0.41888  0.00000  0.16223
      19     H     0.42152  0.42152  0.00000  0.15697
      20     C     3.09225  3.09225  0.00000 -0.18449
      21     H     0.40897  0.40897  0.00000  0.18206
      22     H     0.40839  0.40839  0.00000  0.18322
      23     H     0.40909  0.40909  0.00000  0.18182

   Total alpha = 36.00000, Total beta = 36.00000, Total charge = -0.00000
