  ==> Input File <==

--------------------------------------------------------------------------
set {
	reference rhf
	basis cc-pvtz
}

set_num_threads( 4 )
memory 2 gb

molecule MOL {
0 1

H	 -3.485191	 -2.299087	 0.970508
O	 -3.066446	 -1.726945	 0.354472
C	 -1.818368	 -1.317160	 0.847214
C	 -1.175688	 -0.398187	 -0.171891
H	 -1.935824	 -0.795315	 1.794661
H	 -1.177846	 -2.178511	 1.025078
C	 0.196029	 0.106276	 0.266738
H	 -1.842305	 0.440342	 -0.347134
H	 -1.093384	 -0.932542	 -1.112959
C	 1.330220	 -0.826136	 -0.155230
H	 0.359542	 1.097229	 -0.145561
H	 0.212134	 0.218135	 1.348778
C	 2.719700	 -0.407669	 0.328325
H	 1.339388	 -0.911200	 -1.239363
H	 1.119001	 -1.821953	 0.224128
C	 3.241564	 0.893452	 -0.276737
H	 3.418299	 -1.204729	 0.093035
H	 2.711776	 -0.323368	 1.411960
H	 3.254204	 0.841071	 -1.360784
H	 2.634460	 1.745075	 0.005842
H	 4.254264	 1.092401	 0.054971

	symmetry c1
}
set optking {
	frozen_dihedral = ("
		8 4 7 10
	")
}

ee = optimize('scf')
oeprop('DIPOLE', 'QUADRUPOLE', 'MULLIKEN_CHARGES')
f=open( 'psi4out.xyz', 'w' )
f.write( "21  " )
f.write( str(ee) + "\n" )
f.write( MOL.save_string_xyz() )
f.close()
--------------------------------------------------------------------------

    Molecular point group: c1
  Charge       = 0
  Multiplicity = 1
  Basis Set: CC-PVTZ
  Basis Set:
  @DF-RHF Final Energy:  -310.32992077099595
    Total Energy =                       -310.3299207709961820
    Molecular point group: c1
  Basis Set: CC-PVTZ
  Basis Set:
  Basis Set: CC-PVTZ
  Basis Set:
  @DF-RHF Final Energy:  -310.33015900138997
    Total Energy =                       -310.3301590013899158
  Basis Set: CC-PVTZ
  Basis Set:
  Basis Set: CC-PVTZ
  Basis Set:
  @DF-RHF Final Energy:  -310.33018234262005
    Total Energy =                       -310.3301823426196506
  Basis Set: CC-PVTZ
  Basis Set:
  Basis Set: CC-PVTZ
  Basis Set:
  @DF-RHF Final Energy:  -310.33018666898727
    Total Energy =                       -310.3301866689874373
  Basis Set: CC-PVTZ
  Basis Set:
  Basis Set: CC-PVTZ
  Basis Set:
  @DF-RHF Final Energy:  -310.33019289994212
    Total Energy =                       -310.3301928999420625
  Basis Set: CC-PVTZ
  Basis Set:
  Charge       = 0
  Multiplicity = 1
  Basis Set: CC-PVTZ
  Basis Set:

    Orbital Energies (a.u.)
    -----------------------

    Doubly Occupied:

       1A    -20.545460     2A    -11.265066     3A    -11.213625
       4A    -11.213228     5A    -11.211826     6A    -11.208918
       7A    -11.206143     8A     -1.363370     9A     -1.087065
      10A     -1.033236    11A     -0.953333    12A     -0.881218
      13A     -0.810100    14A     -0.776328    15A     -0.698191
      16A     -0.650932    17A     -0.631625    18A     -0.609548
      19A     -0.589051    20A     -0.564638    21A     -0.544518
      22A     -0.519157    23A     -0.512492    24A     -0.494138
      25A     -0.476389    26A     -0.460486    27A     -0.452717
      28A     -0.449082    29A     -0.432527

  @DF-RHF Final Energy:  -310.33019344836720

   => Energetics <=

    Nuclear Repulsion Energy =            315.3415599996927199
    One-Electron Energy =               -1045.6346970111756036
    Two-Electron Energy =                 419.9629435631155161
    DFT Exchange-Correlation Energy =       0.0000000000000000
    Empirical Dispersion Energy =           0.0000000000000000
    PCM Polarization Energy =               0.0000000000000000
    EFP Energy =                            0.0000000000000000
    Total Energy =                       -310.3301934483674245
    Molecular point group: c1
  Basis Set: CC-PVTZ
  Basis Set:

  -Total Gradient:
     Atom            X                  Y                   Z
    ------   -----------------  -----------------  -----------------
       1        0.000007196137    -0.000000559287     0.000000201299
       2       -0.000003532400     0.000015028144    -0.000000564995
       3        0.000012007371    -0.000016406669    -0.000002827647
       4       -0.000711090961     0.000275747195     0.002118404122
       5       -0.000002459459     0.000001788054    -0.000000659525
       6        0.000001757016     0.000002419588     0.000001432036
       7       -0.000047962329    -0.001090485112     0.001459161138
       8        0.000614660502     0.000034273868    -0.002155096952
       9       -0.000000289498    -0.000004082486     0.000005410768
      10        0.000129400201     0.000782492309    -0.001441931720
      11       -0.000001909812    -0.000003395083    -0.000002052325
      12       -0.000002199708    -0.000000777072     0.000001632747
      13       -0.000005655435    -0.000005910731     0.000032585909
      14       -0.000004599413    -0.000008243906    -0.000004922602
      15       -0.000007177427     0.000010307657    -0.000000204832
      16        0.000008993910     0.000003995568    -0.000012331109
      17       -0.000005042248     0.000010285297    -0.000001451933
      18        0.000012941328    -0.000007665443     0.000008309704
      19        0.000006732892     0.000004212670    -0.000004748610
      20        0.000002299530    -0.000008421482    -0.000000187229
      21       -0.000004070196     0.000005396917    -0.000000158249

  **** Optimization is complete! (in 6 steps) ****
    Final optimized geometry and variables:
    Molecular point group: c1

    Geometry (in Angstrom), charge = 0, multiplicity = 1:

    H           -3.613710720784    -1.770971081774     0.809616910209
    O           -3.196827280797    -1.209415270347     0.182718954768
    C           -1.969462762470    -0.751818991243     0.684741124994
    C           -1.336312199587     0.159018393501    -0.348653761242
    H           -2.118098389548    -0.203964807549     1.612817196184
    H           -1.312037241784    -1.590385638739     0.901876266524
    C            0.055052273378     0.663202068303     0.054554713531
    H           -2.003383255405     0.994135620228    -0.529370479171
    H           -1.275334046148    -0.381258230792    -1.288024868962
    C            1.189387886809    -0.274775451255    -0.361671362963
    H            0.215881022763     1.634730162054    -0.397155023881
    H            0.090800791994     0.824255366724     1.129973644361
    C            2.575528868670     0.132960218814     0.140439912383
    H            1.207139446613    -0.343516589848    -1.446517852236
    H            0.976888575298    -1.276860577456    -0.000316962310
    C            3.098458856017     1.450004299234    -0.428213276093
    H            3.276925669927    -0.656758450129    -0.110861588796
    H            2.561264057673     0.190097927892     1.225815055983
    H            3.114433096610     1.426558196394    -1.513213321814
    H            2.489940978800     2.293280875301    -0.124825474571
    H            4.110019395000     1.640313865907    -0.088177100401

  Mulliken Charges: (a.u.)
   Center  Symbol    Alpha    Beta     Spin     Total
       1     H     0.39732  0.39732  0.00000  0.20536
       2     O     4.19445  4.19445  0.00000 -0.38889
       3     C     2.95924  2.95924  0.00000  0.08151
       4     C     3.09195  3.09195  0.00000 -0.18389
       5     H     0.47447  0.47447  0.00000  0.05106
       6     H     0.47508  0.47508  0.00000  0.04985
       7     C     3.11376  3.11376  0.00000 -0.22751
       8     H     0.44568  0.44568  0.00000  0.10863
       9     H     0.45201  0.45201  0.00000  0.09599
      10     C     3.09363  3.09363  0.00000 -0.18726
      11     H     0.44355  0.44355  0.00000  0.11290
      12     H     0.45580  0.45580  0.00000  0.08840
      13     C     3.08980  3.08980  0.00000 -0.17961
      14     H     0.45246  0.45246  0.00000  0.09507
      15     H     0.44963  0.44963  0.00000  0.10074
      16     C     3.15281  3.15281  0.00000 -0.30562
      17     H     0.44872  0.44872  0.00000  0.10255
      18     H     0.45507  0.45507  0.00000  0.08987
      19     H     0.45450  0.45450  0.00000  0.09099
      20     H     0.45358  0.45358  0.00000  0.09284
      21     H     0.44649  0.44649  0.00000  0.10701

   Total alpha = 29.00000, Total beta = 29.00000, Total charge =  0.00000
