                              Psi4 1.0.54 Driver

  ==> Input File <==

--------------------------------------------------------------------------
set {
	reference rhf
	basis cc-pvtz
}

set_num_threads( 4 )
memory 2 gb

molecule MOL {
0 1

O	 -2.440701	 -0.934798	 -0.415053
C	 -1.922978	 0.063265	 -0.045005
C	 -2.632749	 1.372204	 0.158357
O	 -0.637375	 0.157174	 0.243149
H	 -2.187724	 2.129143	 -0.474664
H	 -3.677681	 1.257276	 -0.079438
H	 -2.516788	 1.693160	 1.185542
C	 0.162530	 -1.009518	 0.097799
C	 1.587210	 -0.664190	 0.477086
H	 0.096803	 -1.356267	 -0.924704
H	 -0.233803	 -1.785900	 0.736810
C	 2.632831	 -1.633690	 -0.067442
H	 1.637549	 -0.647117	 1.562402
H	 1.806421	 0.344056	 0.139115
C	 4.051011	 -1.269542	 0.358911
H	 2.399608	 -2.638411	 0.274963
H	 2.574026	 -1.655480	 -1.149528
H	 4.771715	 -1.975216	 -0.037315
H	 4.149076	 -1.268537	 1.439547
H	 4.325094	 -0.282241	 0.002356

	symmetry c1
}
set optking {
	frozen_dihedral = ("
		12 9 8 10
	")
}

ee,wfn = optimize('scf', return_wfn=True)
oeprop( wfn, 'DIPOLE', 'QUADRUPOLE', 'MULLIKEN_CHARGES')
f=open( 'psi4out.xyz', 'w' )
f.write( "20  " )
f.write( str(ee) + "\n" )
f.write( MOL.save_string_xyz() )
f.close()
--------------------------------------------------------------------------

    Molecular point group: c1
  Charge       = 0
  Multiplicity = 1
  Basis Set: CC-PVTZ
  Basis Set:
  @DF-RHF Final Energy:  -384.08588530013930
    Total Energy =                       -384.0858853001395232
    Molecular point group: c1
  Basis Set: CC-PVTZ
  Basis Set:
  Basis Set: CC-PVTZ
  Basis Set:
  @DF-RHF Final Energy:  -384.08631794246281
    Total Energy =                       -384.0863179424630971
  Basis Set: CC-PVTZ
  Basis Set:
  Basis Set: CC-PVTZ
  Basis Set:
  @DF-RHF Final Energy:  -384.08577779782172
    Total Energy =                       -384.0857777978213790
  Basis Set: CC-PVTZ
  Basis Set:
  Basis Set: CC-PVTZ
  Basis Set:
  @DF-RHF Final Energy:  -384.08639365477927
    Total Energy =                       -384.0863936547792719
  Basis Set: CC-PVTZ
  Basis Set:
  Basis Set: CC-PVTZ
  Basis Set:
  @DF-RHF Final Energy:  -384.08639891471211
    Total Energy =                       -384.0863989147124471
  Basis Set: CC-PVTZ
  Basis Set:
  Basis Set: CC-PVTZ
  Basis Set:
  @DF-RHF Final Energy:  -384.08640105592519
    Total Energy =                       -384.0864010559248527
  Basis Set: CC-PVTZ
  Basis Set:
  Charge       = 0
  Multiplicity = 1
  Basis Set: CC-PVTZ
  Basis Set:

    Orbital Energies (a.u.)
    -----------------------

    Doubly Occupied:

       1A    -20.594703     2A    -20.532630     3A    -11.366524
       4A    -11.279323     5A    -11.231392     6A    -11.223884
       7A    -11.222146     8A    -11.213593     9A     -1.471218
      10A     -1.365309    11A     -1.088622    12A     -1.030679
      13A     -0.981296    14A     -0.882274    15A     -0.808659
      16A     -0.779011    17A     -0.693806    18A     -0.689046
      19A     -0.672212    20A     -0.639030    21A     -0.595303
      22A     -0.595151    23A     -0.571688    24A     -0.560947
      25A     -0.545950    26A     -0.521462    27A     -0.508646
      28A     -0.484859    29A     -0.482456    30A     -0.475968
      31A     -0.454817    32A     -0.440655

  @DF-RHF Final Energy:  -384.08640117344544

   => Energetics <=

    Nuclear Repulsion Energy =            379.5733002690851663
    One-Electron Energy =               -1275.3128861563870942
    Two-Electron Energy =                 511.6531847138565468
    DFT Exchange-Correlation Energy =       0.0000000000000000
    Empirical Dispersion Energy =           0.0000000000000000
    PCM Polarization Energy =               0.0000000000000000
    EFP Energy =                            0.0000000000000000
    Total Energy =                       -384.0864011734453811
    Molecular point group: c1
  Basis Set: CC-PVTZ
  Basis Set:

  -Total Gradient:
     Atom            X                  Y                   Z
    ------   -----------------  -----------------  -----------------
       1       -0.000009736772    -0.000008256500    -0.000010424353
       2        0.000043417529     0.000031496149     0.000030359002
       3       -0.000004931013    -0.000002953167     0.000001363580
       4       -0.000056961525     0.000000430371    -0.000007203753
       5       -0.000002712768    -0.000005260219     0.000003511638
       6       -0.000004878673     0.000004344194    -0.000000959213
       7        0.000001590587    -0.000001268395    -0.000011235039
       8       -0.000571438853     0.004899145141    -0.002501253197
       9       -0.000194783456    -0.002848236090     0.003453913468
      10        0.000549967118    -0.003472336940     0.001289817113
      11        0.000005516580     0.000007817600    -0.000000054096
      12        0.000244886185     0.001397295456    -0.002241066128
      13        0.000004729683    -0.000001585080    -0.000006117072
      14       -0.000004523516    -0.000003967901     0.000002765880
      15        0.000005377131     0.000001496281    -0.000007831059
      16       -0.000000835525    -0.000000022230     0.000002103428
      17        0.000000463893     0.000002772675     0.000004122509
      18       -0.000000919127     0.000001201106    -0.000002151386
      19       -0.000004185739    -0.000003312691    -0.000001513889
      20       -0.000000041743     0.000001200243     0.000001852568

  **** Optimization is complete! (in 7 steps) ****
    Final optimized geometry and variables:
    Molecular point group: c1

    Geometry (in Angstrom), charge = 0, multiplicity = 1:

    O           -2.524264224402    -0.477864062818    -0.477686710126
    C           -2.014910269803     0.537556162463    -0.145529093171
    C           -2.738960234812     1.841934126160     0.032451430779
    O           -0.725135558762     0.658229519813     0.114137048203
    H           -2.314600837216     2.585650385526    -0.629624584935
    H           -3.786167398857     1.706588359536    -0.183642005358
    H           -2.609472723433     2.193740935849     1.047773353800
    C            0.086455965874    -0.498845203139    -0.009444979114
    C            1.508350620781    -0.131836626025     0.371110296682
    H            0.032593292447    -0.881942522688    -1.019567033271
    H           -0.304788477788    -1.272901257096     0.637114298210
    C            2.525961852006    -1.142663613733    -0.150715648333
    H            1.585384713406    -0.037132540197     1.449222032043
    H            1.733344793751     0.845097332331    -0.044313023035
    C            3.953803642013    -0.815579504978     0.272118171194
    H            2.267654147315    -2.138683093790     0.199706325971
    H            2.468452973399    -1.176380760470    -1.234436085265
    H            4.654632599670    -1.540633619344    -0.124453206750
    H            4.052083673017    -0.816313447019     1.352292810991
    H            4.252191058608     0.164082144995    -0.085685590725

  Mulliken Charges: (a.u.)
   Center  Symbol    Alpha    Beta     Spin     Total
       1     O     4.19678  4.19678  0.00000 -0.39355
       2     C     2.80928  2.80928  0.00000  0.38144
       3     C     3.13799  3.13799  0.00000 -0.27598
       4     O     4.15028  4.15028  0.00000 -0.30056
       5     H     0.44592  0.44592  0.00000  0.10816
       6     H     0.43816  0.43816  0.00000  0.12369
       7     H     0.44579  0.44579  0.00000  0.10841
       8     C     2.97991  2.97991  0.00000  0.04017
       9     C     3.08272  3.08272  0.00000 -0.16543
      10     H     0.45582  0.45582  0.00000  0.08837
      11     H     0.45323  0.45323  0.00000  0.09354
      12     C     3.09198  3.09198  0.00000 -0.18397
      13     H     0.45140  0.45140  0.00000  0.09721
      14     H     0.45097  0.45097  0.00000  0.09806
      15     C     3.14974  3.14974  0.00000 -0.29948
      16     H     0.45299  0.45299  0.00000  0.09401
      17     H     0.45197  0.45197  0.00000  0.09606
      18     H     0.44707  0.44707  0.00000  0.10587
      19     H     0.45399  0.45399  0.00000  0.09202
      20     H     0.45402  0.45402  0.00000  0.09196

   Total alpha = 32.00000, Total beta = 32.00000, Total charge = -0.00000

*** Psi4 exiting successfully. Buy a developer a beer!
