                              Psi4 1.0.54 Driver

  ==> Input File <==

--------------------------------------------------------------------------
set {
	reference rhf
	basis cc-pvtz
}

set_num_threads( 4 )
memory 2 gb

molecule MOL {
0 1

H	 2.190573	 -0.629143	 -0.208718
O	 1.355408	 -0.529451	 0.208662
C	 0.700177	 0.619554	 -0.266242
C	 -0.713111	 0.588314	 0.266177
H	 0.678680	 0.627133	 -1.351786
H	 1.199747	 1.521489	 0.077736
O	 -1.421673	 -0.521378	 -0.196983
H	 -1.244794	 1.469161	 -0.069059
H	 -0.685100	 0.604721	 1.352683
H	 -2.153343	 -0.669859	 0.376286

	symmetry c1
}
set optking {
	frozen_dihedral = ("
		10 7 4 3
	")
}

ee,wfn = optimize('scf', return_wfn=True)
oeprop( wfn, 'DIPOLE', 'QUADRUPOLE', 'MULLIKEN_CHARGES')
f=open( 'psi4out.xyz', 'w' )
f.write( "10  " )
f.write( str(ee) + "\n" )
f.write( MOL.save_string_xyz() )
f.close()
--------------------------------------------------------------------------

    Molecular point group: c1
  Charge       = 0
  Multiplicity = 1
  Basis Set: CC-PVTZ
  Basis Set:
  @DF-RHF Final Energy:  -229.02226605291924
    Total Energy =                       -229.0222660529191785
    Molecular point group: c1
  Basis Set: CC-PVTZ
  Basis Set:
  Basis Set: CC-PVTZ
  Basis Set:
  @DF-RHF Final Energy:  -228.72650598337469
    Total Energy =                       -228.7265059833746363
  Basis Set: CC-PVTZ
  Basis Set:
  Basis Set: CC-PVTZ
  Basis Set:
  @DF-RHF Final Energy:  -228.87020553476248
    Total Energy =                       -228.8702055347623912
  Basis Set: CC-PVTZ
  Basis Set:
  Basis Set: CC-PVTZ
  Basis Set:
  @DF-RHF Final Energy:  -229.00964080639145
    Total Energy =                       -229.0096408063914168
  Basis Set: CC-PVTZ
  Basis Set:
  @DF-RHF Final Energy:  -229.02367218362815
    Total Energy =                       -229.0236721836282072
  @DF-RHF Final Energy:  -229.02415823185817
    Total Energy =                       -229.0241582318582800
  Basis Set: CC-PVTZ
  Basis Set:
  @DF-RHF Final Energy:  -229.02418668202500
    Total Energy =                       -229.0241866820251175
  Basis Set: CC-PVTZ
  Basis Set:
  Basis Set: CC-PVTZ
  Basis Set:
  @DF-RHF Final Energy:  -229.02419596132262
    Total Energy =                       -229.0241959613226470
  Basis Set: CC-PVTZ
  Basis Set:
  Basis Set: CC-PVTZ
  Basis Set:
  @DF-RHF Final Energy:  -229.02419832699741
    Total Energy =                       -229.0241983269974639
  Basis Set: CC-PVTZ
  Basis Set:
  Charge       = 0
  Multiplicity = 1
  Basis Set: CC-PVTZ
  Basis Set:

    Orbital Energies (a.u.)
    -----------------------

    Doubly Occupied:

       1A    -20.546145     2A    -20.545748     3A    -11.268323
       4A    -11.267638     5A     -1.375138     6A     -1.355217
       7A     -1.003861     8A     -0.831935     9A     -0.717595
      10A     -0.711653    11A     -0.613059    12A     -0.602565
      13A     -0.594170    14A     -0.529766    15A     -0.473486
      16A     -0.445206    17A     -0.444059

  @DF-RHF Final Energy:  -229.02419881923285

   => Energetics <=

    Nuclear Repulsion Energy =            133.5144569497762461
    One-Electron Energy =                -578.4261839576942066
    Two-Electron Energy =                 215.8875281886851099
    DFT Exchange-Correlation Energy =       0.0000000000000000
    Empirical Dispersion Energy =           0.0000000000000000
    PCM Polarization Energy =               0.0000000000000000
    EFP Energy =                            0.0000000000000000
    Total Energy =                       -229.0241988192328790
    Molecular point group: c1
  Basis Set: CC-PVTZ
  Basis Set:

  -Total Gradient:
     Atom            X                  Y                   Z
    ------   -----------------  -----------------  -----------------
       1       -0.000010326607     0.000024322395     0.000033925452
       2       -0.000023873120     0.000026504973    -0.000043545714
       3        0.000082790722    -0.000131708261     0.000106310930
       4        0.000042787445     0.000126499939    -0.000090872172
       5       -0.000000624692     0.000006336503     0.000017913396
       6       -0.000032937605     0.000005218051    -0.000003027702
       7       -0.000141207676     0.000148625083    -0.000044619548
       8        0.000003767319    -0.000033431787    -0.000000264707
       9       -0.000009153065    -0.000003291446    -0.000024831580
      10        0.000088777278    -0.000169075450     0.000049011645

  **** Optimization is complete! (in 10 steps) ****
    Final optimized geometry and variables:
    Molecular point group: c1

    Geometry (in Angstrom), charge = 0, multiplicity = 1:

    H            1.351803662861    -1.580196049368    -1.015573543481
    O            1.024650115538    -1.107161325870    -0.273567955715
    C            0.649407173827     0.186886017735    -0.651274283954
    C           -0.179124018679     0.805024712261     0.446673227517
    H            0.063755391868     0.175282254884    -1.565546774014
    H            1.526984581509     0.808059877059    -0.816694925542
    O           -1.450154153303     0.218951059782     0.455483468845
    H           -0.253637230404     1.875164651497     0.267180935000
    H            0.330130262798     0.653917801338     1.393373410199
    H           -1.865559769802     0.353801814142     1.286279419135

  Mulliken Charges: (a.u.)
   Center  Symbol    Alpha    Beta     Spin     Total
       1     H     0.39412  0.39412  0.00000  0.21176
       2     O     4.19642  4.19642  0.00000 -0.39285
       3     C     2.96067  2.96067  0.00000  0.07865
       4     C     2.96180  2.96180  0.00000  0.07640
       5     H     0.47081  0.47081  0.00000  0.05837
       6     H     0.47780  0.47780  0.00000  0.04439
       7     O     4.19739  4.19739  0.00000 -0.39477
       8     H     0.47716  0.47716  0.00000  0.04568
       9     H     0.47056  0.47056  0.00000  0.05888
      10     H     0.39326  0.39326  0.00000  0.21348

   Total alpha = 17.00000, Total beta = 17.00000, Total charge =  0.00000

*** Psi4 exiting successfully. Buy a developer a beer!
