                              Psi4 1.0.54 Driver

  ==> Input File <==

--------------------------------------------------------------------------
set {
	reference rhf
	basis cc-pvtz
}

set_num_threads( 4 )
memory 2 gb

molecule MOL {
0 1

O	 -2.071633	 -1.227563	 -0.223463
C	 -1.652164	 -0.152425	 0.058082
C	 -0.327811	 0.006324	 0.778296
C	 -2.402515	 1.108629	 -0.298924
C	 -0.356201	 -0.688064	 2.145206
H	 0.478220	 -0.399814	 0.176223
H	 -0.152728	 1.066157	 0.912227
C	 0.954860	 -0.535561	 2.910771
H	 -0.573723	 -1.745307	 2.016306
H	 -1.170701	 -0.272738	 2.728694
C	 0.926946	 -1.213866	 4.276159
H	 1.767734	 -0.947586	 2.319166
H	 1.173143	 0.520880	 3.036565
H	 0.745165	 -2.279200	 4.181013
H	 0.143717	 -0.800171	 4.902080
H	 1.868993	 -1.084641	 4.796015
H	 -3.240910	 0.874416	 -0.936711
H	 -1.747554	 1.818823	 -0.790984
H	 -2.760419	 1.579708	 0.610998

	symmetry c1
}
set optking {
	frozen_dihedral = ("
		5 3 2 4
	")
}

ee,wfn = optimize('scf', return_wfn=True)
oeprop( wfn, 'DIPOLE', 'QUADRUPOLE', 'MULLIKEN_CHARGES')
f=open( 'psi4out.xyz', 'w' )
f.write( "19  " )
f.write( str(ee) + "\n" )
f.write( MOL.save_string_xyz() )
f.close()
--------------------------------------------------------------------------

    Molecular point group: c1
  Charge       = 0
  Multiplicity = 1
  Basis Set: CC-PVTZ
  Basis Set:
  @DF-RHF Final Energy:  -309.17630578339202
    Total Energy =                       -309.1763057833920243
    Molecular point group: c1
  Basis Set: CC-PVTZ
  Basis Set:
  Basis Set: CC-PVTZ
  Basis Set:
  @DF-RHF Final Energy:  -309.17543452083794
    Total Energy =                       -309.1754345208380528
  Basis Set: CC-PVTZ
  Basis Set:
  Basis Set: CC-PVTZ
  Basis Set:
  @DF-RHF Final Energy:  -309.17630742657587
    Total Energy =                       -309.1763074265759315
  Basis Set: CC-PVTZ
  Basis Set:
  Basis Set: CC-PVTZ
  Basis Set:
  @DF-RHF Final Energy:  -309.17720600864135
    Total Energy =                       -309.1772060086412921
  Basis Set: CC-PVTZ
  Basis Set:
  Basis Set: CC-PVTZ
  Basis Set:
  @DF-RHF Final Energy:  -309.17723170313451
    Total Energy =                       -309.1772317031343391
  Basis Set: CC-PVTZ
  Basis Set:
  Basis Set: CC-PVTZ
  Basis Set:
  @DF-RHF Final Energy:  -309.17724199937231
    Total Energy =                       -309.1772419993724270
  Basis Set: CC-PVTZ
  Basis Set:
  Basis Set: CC-PVTZ
  Basis Set:
  @DF-RHF Final Energy:  -309.17724756883280
    Total Energy =                       -309.1772475688325130
  Basis Set: CC-PVTZ
  Basis Set:
  Charge       = 0
  Multiplicity = 1
  Basis Set: CC-PVTZ
  Basis Set:

    Orbital Energies (a.u.)
    -----------------------

    Doubly Occupied:

       1A    -20.537081     2A    -11.320314     3A    -11.228459
       4A    -11.227602     5A    -11.223460     6A    -11.220443
       7A    -11.210888     8A     -1.397770     9A     -1.089703
      10A     -1.030078    11A     -0.985424    12A     -0.888594
      13A     -0.804568    14A     -0.733794    15A     -0.663206
      16A     -0.648523    17A     -0.624809    18A     -0.613827
      19A     -0.583274    20A     -0.573910    21A     -0.553965
      22A     -0.536051    23A     -0.516240    24A     -0.495419
      25A     -0.479223    26A     -0.474935    27A     -0.468899
      28A     -0.399705

  @DF-RHF Final Energy:  -309.17724790648839

   => Energetics <=

    Nuclear Repulsion Energy =            301.5684208659891397
    One-Electron Energy =               -1016.4310078422299739
    Two-Electron Energy =                 405.6853390697522173
    DFT Exchange-Correlation Energy =       0.0000000000000000
    Empirical Dispersion Energy =           0.0000000000000000
    PCM Polarization Energy =               0.0000000000000000
    EFP Energy =                            0.0000000000000000
    Total Energy =                       -309.1772479064886738
    Molecular point group: c1
  Basis Set: CC-PVTZ
  Basis Set:

  -Total Gradient:
     Atom            X                  Y                   Z
    ------   -----------------  -----------------  -----------------
       1        0.000021692772     0.000049208730     0.000019691354
       2        0.000061499576     0.000000025784    -0.000211576953
       3        0.000056404533    -0.000193146404     0.000016004634
       4       -0.000073751856    -0.000021503160     0.000139836960
       5       -0.000054346794     0.000155406400     0.000036140917
       6       -0.000011185374     0.000009005143    -0.000010787941
       7        0.000001193075    -0.000000268711    -0.000002986223
       8        0.000002861489    -0.000012316624     0.000003789773
       9        0.000005668818     0.000001537407     0.000003860191
      10       -0.000005826049    -0.000005512974     0.000014722010
      11       -0.000001438246     0.000002433313     0.000001676363
      12       -0.000002256524     0.000001709120    -0.000002693252
      13       -0.000002699486    -0.000000766713     0.000000092593
      14        0.000001125954     0.000003219973    -0.000000626367
      15        0.000001536779    -0.000002151162     0.000001564091
      16       -0.000003483845    -0.000000910915    -0.000002990472
      17       -0.000014081491     0.000001750104    -0.000004602052
      18        0.000015649454     0.000014977175    -0.000014818398
      19        0.000001437216    -0.000002696489     0.000013702766

  **** Optimization is complete! (in 8 steps) ****
    Final optimized geometry and variables:
    Molecular point group: c1

    Geometry (in Angstrom), charge = 0, multiplicity = 1:

    O           -1.307572272353    -0.851432228878    -1.639767849756
    C           -0.933089784960     0.236632851148    -1.345288974503
    C            0.363980173957     0.433841857893    -0.579814540734
    C           -1.720080823259     1.471336391917    -1.709086689703
    C            0.338606367722    -0.273647834222     0.776918202197
    H            1.158454295305     0.019211716956    -1.191891852341
    H            0.570496088909     1.490143573085    -0.449852245092
    C            1.654183505636    -0.140194578179     1.537720669448
    H            0.107828153828    -1.319880172375     0.617783449084
    H           -0.468651116727     0.133317928864     1.381183644608
    C            1.629815875838    -0.842224804633     2.891180592088
    H            2.458921722207    -0.549536024900     0.933469397810
    H            1.885169104712     0.911901698221     1.681524758869
    H            1.433261041391    -1.902745097815     2.777309395274
    H            0.857134451781    -0.430704672097     3.531954407045
    H            2.577742316356    -0.734182720652     3.405308484816
    H           -2.623334623509     1.198403907922    -2.232685867740
    H           -1.114904567011     2.122077307712    -2.331854336455
    H           -1.966743742306     2.028439212994    -0.811063848785

  Mulliken Charges: (a.u.)
   Center  Symbol    Alpha    Beta     Spin     Total
       1     O     4.17667  4.17667  0.00000 -0.35334
       2     C     2.85830  2.85830  0.00000  0.28340
       3     C     3.10238  3.10238  0.00000 -0.20476
       4     C     3.15342  3.15342  0.00000 -0.30683
       5     C     3.09097  3.09097  0.00000 -0.18193
       6     H     0.44215  0.44215  0.00000  0.11571
       7     H     0.44819  0.44819  0.00000  0.10363
       8     C     3.08559  3.08559  0.00000 -0.17117
       9     H     0.43889  0.43889  0.00000  0.12223
      10     H     0.45445  0.45445  0.00000  0.09110
      11     C     3.14946  3.14946  0.00000 -0.29891
      12     H     0.45288  0.45288  0.00000  0.09425
      13     H     0.45495  0.45495  0.00000  0.09011
      14     H     0.45273  0.45273  0.00000  0.09453
      15     H     0.45506  0.45506  0.00000  0.08989
      16     H     0.44799  0.44799  0.00000  0.10403
      17     H     0.43640  0.43640  0.00000  0.12720
      18     H     0.44900  0.44900  0.00000  0.10200
      19     H     0.45056  0.45056  0.00000  0.09888

   Total alpha = 28.00000, Total beta = 28.00000, Total charge = -0.00000

*** Psi4 exiting successfully. Buy a developer a beer!
