  ==> Input File <==

--------------------------------------------------------------------------
set {
	reference rhf
	basis 6-31G*
}

set_num_threads( 1 )
memory 2 gb

molecule MOL {
0 1

H	 -2.646374	 -0.642757	 1.268656
C	 -2.083525	 -0.384536	 0.393091
O	 -0.807605	 -0.127164	 0.768327
F	 -2.118945	 -1.383102	 -0.486752
F	 -2.621877	 0.670592	 -0.209486
C	 0.084052	 0.273579	 -0.209957
C	 1.256999	 0.935445	 0.501584
Cl	 -0.681624	 1.405833	 -1.336436
H	 0.460650	 -0.554340	 -0.784847
F	 2.158419	 1.333468	 -0.370860
F	 1.822286	 0.051945	 1.299905
F	 0.882144	 1.964999	 1.220941

	symmetry c1
}
set optking {
	frozen_dihedral = ("
		10 7 6 9,
		6 3 2 4
	")
}

ee = energy('scf')
oeprop('DIPOLE', 'QUADRUPOLE', 'MULLIKEN_CHARGES')
f=open( 'psi4out.xyz', 'w' )
f.write( "12  " )
f.write( str(ee) + "\n" )
f.write( MOL.save_string_xyz() )
f.close()
--------------------------------------------------------------------------

    Molecular point group: c1

    Geometry (in Angstrom), charge = 0, multiplicity = 1:

       Center              X                  Y                   Z               Mass
    ------------   -----------------  -----------------  -----------------  -----------------
           H         -2.398795456913    -1.218551324596     1.258443584749     1.007825032070
           C         -1.835946456913    -0.960330324596     0.382878584749    12.000000000000
           O         -0.560026456913    -0.702958324596     0.758114584749    15.994914619560
           F         -1.871366456913    -1.958896324596    -0.496964415251    18.998403224000
           F         -2.374298456913     0.094797675404    -0.219698415251    18.998403224000
           C          0.331630543087    -0.302215324596    -0.220169415251    12.000000000000
           C          1.504577543087     0.359650675404     0.491371584749    12.000000000000
          CL         -0.434045456913     0.830038675404    -1.346648415251    34.968852682000
           H          0.708228543087    -1.130134324596    -0.795059415251     1.007825032070
           F          2.405997543087     0.757673675404    -0.381072415251    18.998403224000
           F          2.069864543087    -0.523849324596     1.289692584749    18.998403224000
           F          1.129722543087     1.389204675404     1.210728584749    18.998403224000

  Charge       = 0
  Multiplicity = 1
  Basis Set: 6-31G*
  Basis Set:

    Orbital Energies (a.u.)
    -----------------------

    Doubly Occupied:

       1A   -104.831522     2A    -26.359437     3A    -26.357991
       4A    -26.357097     5A    -26.342221     6A    -26.334437
       7A    -20.648790     8A    -11.527413     9A    -11.486730
      10A    -11.398127    11A    -10.568137    12A     -8.037325
      13A     -8.033856    14A     -8.033627    15A     -1.760420
      16A     -1.713998    17A     -1.656863    18A     -1.655635
      19A     -1.634347    20A     -1.485209    21A     -1.177205
      22A     -1.053517    23A     -0.983786    24A     -0.919062
      25A     -0.854017    26A     -0.851001    27A     -0.844979
      28A     -0.813375    29A     -0.808834    30A     -0.787588
      31A     -0.731731    32A     -0.724534    33A     -0.711391
      34A     -0.692323    35A     -0.679633    36A     -0.673737
      37A     -0.657715    38A     -0.656087    39A     -0.645038
      40A     -0.635823    41A     -0.602992    42A     -0.560605
      43A     -0.530371    44A     -0.463456    45A     -0.452341

  @DF-RHF Final Energy: -1146.28623485321850

   => Energetics <=

    Nuclear Repulsion Energy =            750.9624994644066192
    One-Electron Energy =               -3085.0287374154668214
    Two-Electron Energy =                1187.7800030978396535
    DFT Exchange-Correlation Energy =       0.0000000000000000
    Empirical Dispersion Energy =           0.0000000000000000
    PCM Polarization Energy =               0.0000000000000000
    EFP Energy =                            0.0000000000000000
    Total Energy =                      -1146.2862348532207761

  Mulliken Charges: (a.u.)
   Center  Symbol    Alpha    Beta     Spin     Total
       1     H     0.40090  0.40090  0.00000  0.19819
       2     C     2.55815  2.55815  0.00000  0.88371
       3     O     4.30848  4.30848  0.00000 -0.61695
       4     F     4.68882  4.68882  0.00000 -0.37764
       5     F     4.67907  4.67907  0.00000 -0.35813
       6     C     3.03967  3.03967  0.00000 -0.07934
       7     C     2.43325  2.43325  0.00000  1.13350
       8    CL     8.50128  8.50128  0.00000 -0.00256
       9     H     0.37065  0.37065  0.00000  0.25870
      10     F     4.67429  4.67429  0.00000 -0.34859
      11     F     4.67714  4.67714  0.00000 -0.35429
      12     F     4.66830  4.66830  0.00000 -0.33661

   Total alpha = 45.00000, Total beta = 45.00000, Total charge = -0.00000
