  ==> Input File <==

--------------------------------------------------------------------------
set {
	reference rhf
	basis cc-pvtz
}

set_num_threads( 4 )
memory 2 gb

molecule MOL {
0 1

H	 2.237091	 -0.611392	 -0.120395
C	 1.635663	 -0.887027	 -0.996731
C	 0.341426	 -0.136084	 -1.144490
O	 2.020301	 -1.723327	 -1.738546
C	 -0.554654	 -0.292621	 0.086567
H	 -0.155915	 -0.482858	 -2.040725
H	 0.588546	 0.914881	 -1.279696
C	 -1.846385	 0.513195	 -0.016346
H	 -0.794566	 -1.343342	 0.222089
H	 -0.008989	 0.015887	 0.974680
C	 -3.089953	 -0.365049	 -0.098564
H	 -1.798267	 1.154820	 -0.891143
H	 -1.925398	 1.173265	 0.842889
H	 -3.055079	 -1.012299	 -0.968245
H	 -3.988403	 0.236438	 -0.170014
H	 -3.183055	 -0.995885	 0.779079

	symmetry c1
}
set optking {
	frozen_dihedral = ("
		9 5 8 12
	")
}

ee = optimize('scf')
oeprop('DIPOLE', 'QUADRUPOLE', 'MULLIKEN_CHARGES')
f=open( 'psi4out.xyz', 'w' )
f.write( "16  " )
f.write( str(ee) + "\n" )
f.write( MOL.save_string_xyz() )
f.close()
--------------------------------------------------------------------------

    Molecular point group: c1
  Charge       = 0
  Multiplicity = 1
  Basis Set: CC-PVTZ
  Basis Set:
  @DF-RHF Final Energy:  -270.11323186826922
    Total Energy =                       -270.1132318682691675
    Molecular point group: c1
  Basis Set: CC-PVTZ
  Basis Set:
  Basis Set: CC-PVTZ
  Basis Set:
  @DF-RHF Final Energy:  -270.11349349225839
    Total Energy =                       -270.1134934922580442
  Basis Set: CC-PVTZ
  Basis Set:
  Basis Set: CC-PVTZ
  Basis Set:
  @DF-RHF Final Energy:  -270.11356016954090
    Total Energy =                       -270.1135601695409605
  Basis Set: CC-PVTZ
  Basis Set:
  Basis Set: CC-PVTZ
  Basis Set:
  @DF-RHF Final Energy:  -270.11330494199871
    Total Energy =                       -270.1133049419989902
  Basis Set: CC-PVTZ
  Basis Set:
  Basis Set: CC-PVTZ
  Basis Set:
  @DF-RHF Final Energy:  -270.11358180030663
    Total Energy =                       -270.1135818003064628
  Basis Set: CC-PVTZ
  Basis Set:
  Basis Set: CC-PVTZ
  Basis Set:
  @DF-RHF Final Energy:  -270.11357265896038
    Total Energy =                       -270.1135726589604360
  Basis Set: CC-PVTZ
  Basis Set:
  Basis Set: CC-PVTZ
  Basis Set:
  @DF-RHF Final Energy:  -270.11358534414768
    Total Energy =                       -270.1135853441477366
  Basis Set: CC-PVTZ
  Basis Set:
  Charge       = 0
  Multiplicity = 1
  Basis Set: CC-PVTZ
  Basis Set:

    Orbital Energies (a.u.)
    -----------------------

    Doubly Occupied:

       1A    -20.552154     2A    -11.321066     3A    -11.234714
       4A    -11.234089     5A    -11.227201     6A    -11.216244
       7A     -1.406792     8A     -1.095417     9A     -1.018612
      10A     -0.906866    11A     -0.812636    12A     -0.794453
      13A     -0.678620    14A     -0.651153    15A     -0.625299
      16A     -0.608644    17A     -0.587063    18A     -0.549914
      19A     -0.529105    20A     -0.514626    21A     -0.488352
      22A     -0.478841    23A     -0.475252    24A     -0.411159

  @DF-RHF Final Energy:  -270.11358552984620

   => Energetics <=

    Nuclear Repulsion Energy =            230.3951384738313948
    One-Electron Energy =                -822.1809046736004802
    Two-Electron Energy =                 321.6721806699231365
    DFT Exchange-Correlation Energy =       0.0000000000000000
    Empirical Dispersion Energy =           0.0000000000000000
    PCM Polarization Energy =               0.0000000000000000
    EFP Energy =                            0.0000000000000000
    Total Energy =                       -270.1135855298459774
    Molecular point group: c1
  Basis Set: CC-PVTZ
  Basis Set:

  -Total Gradient:
     Atom            X                  Y                   Z
    ------   -----------------  -----------------  -----------------
       1       -0.000006211156    -0.000005809318     0.000009060095
       2        0.000011589051     0.000007744280    -0.000009994141
       3       -0.000030701656    -0.000023902139     0.000040908989
       4        0.000000667047     0.000009773315    -0.000010211912
       5       -0.000111483670    -0.000015822948     0.001482623678
       6        0.000001117508     0.000004026356    -0.000005884458
       7        0.000015941529    -0.000001636861    -0.000014260220
       8        0.000663261242     0.001209499944     0.000623997084
       9       -0.000002907607    -0.000170702612    -0.001353787468
      10       -0.000010940917     0.000009150040    -0.000004267312
      11        0.000000304184    -0.000011117779    -0.000002194445
      12       -0.000539102089    -0.001003903852    -0.000756639680
      13        0.000009425960    -0.000007973909     0.000002583259
      14       -0.000000893505    -0.000004450385     0.000001155817
      15        0.000003030785     0.000001105947    -0.000003503515
      16       -0.000003096714     0.000004019921     0.000000414230

  **** Optimization is complete! (in 8 steps) ****
    Final optimized geometry and variables:
    Molecular point group: c1

    Geometry (in Angstrom), charge = 0, multiplicity = 1:

    H            2.512622774861    -0.129369535756     0.514741159033
    C            1.892708894538    -0.402932447220    -0.349340618867
    C            0.608843126751     0.367912553899    -0.483483759704
    O            2.251198531955    -1.252951940235    -1.088862632605
    C           -0.280010172906     0.219556855248     0.756191331960
    H            0.097409548982     0.031044207011    -1.375954470087
    H            0.868912080279     1.415671962828    -0.617017676137
    C           -1.596153488395     1.017627663135     0.651327799469
    H           -0.502929275872    -0.833652436236     0.891158393109
    H            0.278112742338     0.531474069757     1.632483822928
    C           -2.832275506321     0.128041618938     0.548965915523
    H           -1.561661756990     1.661663042148    -0.220908382002
    H           -1.699607881292     1.671334259118     1.509592864622
    H           -2.771680148754    -0.527071410928    -0.313782746467
    H           -3.733938471640     0.721539609813     0.451793788241
    H           -2.938366792937    -0.495915092702     1.429698317325

  Mulliken Charges: (a.u.)
   Center  Symbol    Alpha    Beta     Spin     Total
       1     H     0.46539  0.46539  0.00000  0.06922
       2     C     2.91060  2.91060  0.00000  0.17880
       3     C     3.07835  3.07835  0.00000 -0.15670
       4     O     4.16380  4.16380  0.00000 -0.32760
       5     C     3.10919  3.10919  0.00000 -0.21838
       6     H     0.44237  0.44237  0.00000  0.11526
       7     H     0.44936  0.44936  0.00000  0.10127
       8     C     3.08877  3.08877  0.00000 -0.17754
       9     H     0.44598  0.44598  0.00000  0.10804
      10     H     0.44537  0.44537  0.00000  0.10925
      11     C     3.14647  3.14647  0.00000 -0.29294
      12     H     0.45283  0.45283  0.00000  0.09434
      13     H     0.44706  0.44706  0.00000  0.10589
      14     H     0.45275  0.45275  0.00000  0.09450
      15     H     0.44815  0.44815  0.00000  0.10369
      16     H     0.45355  0.45355  0.00000  0.09290

   Total alpha = 24.00000, Total beta = 24.00000, Total charge = -0.00000
