                              Psi4 1.0.54 Driver

  ==> Input File <==

--------------------------------------------------------------------------
set {
	reference rhf
	basis cc-pvtz
}

set_num_threads( 4 )
memory 2 gb

molecule MOL {
0 1

H	 1.925374	 -0.934876	 1.259282
C	 1.936588	 -0.223312	 0.423098
C	 0.683005	 0.590971	 0.261010
O	 2.888728	 -0.144082	 -0.273168
C	 -0.554654	 -0.292621	 0.086567
H	 0.813455	 1.257427	 -0.581400
H	 0.570327	 1.196957	 1.157650
C	 -1.846385	 0.513195	 -0.016346
H	 -0.436344	 -0.900400	 -0.805927
H	 -0.628387	 -0.983687	 0.922428
C	 -3.089953	 -0.365049	 -0.098564
H	 -1.798267	 1.154820	 -0.891143
H	 -1.925398	 1.173265	 0.842889
H	 -3.055079	 -1.012299	 -0.968245
H	 -3.988403	 0.236438	 -0.170014
H	 -3.183055	 -0.995885	 0.779079

	symmetry c1
}
set optking {
	frozen_dihedral = ("
		9 5 8 12
	")
}

ee,wfn = optimize('scf', return_wfn=True)
oeprop( wfn, 'DIPOLE', 'QUADRUPOLE', 'MULLIKEN_CHARGES')
f=open( 'psi4out.xyz', 'w' )
f.write( "16  " )
f.write( str(ee) + "\n" )
f.write( MOL.save_string_xyz() )
f.close()
--------------------------------------------------------------------------

    Molecular point group: c1
  Charge       = 0
  Multiplicity = 1
  Basis Set: CC-PVTZ
  Basis Set:
  @DF-RHF Final Energy:  -270.11917071007787
    Total Energy =                       -270.1191707100776966
    Molecular point group: c1
  Basis Set: CC-PVTZ
  Basis Set:
  Basis Set: CC-PVTZ
  Basis Set:
  @DF-RHF Final Energy:  -270.11917530424159
    Total Energy =                       -270.1191753042413097
  Basis Set: CC-PVTZ
  Basis Set:
  Basis Set: CC-PVTZ
  Basis Set:
  @DF-RHF Final Energy:  -270.11917436120871
    Total Energy =                       -270.1191743612085929
  Basis Set: CC-PVTZ
  Basis Set:
  Charge       = 0
  Multiplicity = 1
  Basis Set: CC-PVTZ
  Basis Set:

    Orbital Energies (a.u.)
    -----------------------

    Doubly Occupied:

       1A    -20.552052     2A    -11.321293     3A    -11.234704
       4A    -11.233935     5A    -11.227543     6A    -11.216650
       7A     -1.406754     8A     -1.097965     9A     -1.020128
      10A     -0.906745    11A     -0.812499    12A     -0.793877
      13A     -0.681340    14A     -0.648944    15A     -0.634346
      16A     -0.605074    17A     -0.582187    18A     -0.552110
      19A     -0.530974    20A     -0.509647    21A     -0.488637
      22A     -0.483134    23A     -0.480346    24A     -0.411489

  @DF-RHF Final Energy:  -270.11917502102250

   => Energetics <=

    Nuclear Repulsion Energy =            229.3657196469426367
    One-Electron Energy =                -820.1050407522120622
    Two-Electron Energy =                 320.6201460842468123
    DFT Exchange-Correlation Energy =       0.0000000000000000
    Empirical Dispersion Energy =           0.0000000000000000
    PCM Polarization Energy =               0.0000000000000000
    EFP Energy =                            0.0000000000000000
    Total Energy =                       -270.1191750210226701
    Molecular point group: c1
  Basis Set: CC-PVTZ
  Basis Set:

  -Total Gradient:
     Atom            X                  Y                   Z
    ------   -----------------  -----------------  -----------------
       1        0.000158939049     0.000172149834     0.000285748534
       2       -0.000617058563    -0.000806088072    -0.000494382440
       3        0.000079409176     0.000306107218     0.000216558324
       4        0.000266475431     0.000305391245     0.000093152037
       5       -0.000693391890    -0.001423628436     0.000472680760
       6        0.000039392667     0.000003151489    -0.000104968709
       7       -0.000084140126     0.000141266439    -0.000026269984
       8        0.000729651663     0.001302938987     0.000744132235
       9        0.000417770161     0.000783905299    -0.000618530555
      10        0.000119756884     0.000048006699     0.000035940482
      11        0.000051278519     0.000010659048    -0.000036851901
      12       -0.000389807446    -0.000775860215    -0.000609008017
      13       -0.000089633493    -0.000031961226     0.000082279530
      14       -0.000012069569    -0.000016457703    -0.000003552756
      15        0.000045751992    -0.000015148543    -0.000022853795
      16       -0.000022324448    -0.000004432065    -0.000014073749

  **** Optimization is complete! (in 4 steps) ****
    Final optimized geometry and variables:
    Molecular point group: c1

    Geometry (in Angstrom), charge = 0, multiplicity = 1:

    H            1.929109395093    -0.929708429841     1.208530692460
    C            1.937058593439    -0.229527680778     0.362536092919
    C            0.684387306019     0.585323128614     0.196357763065
    O            2.888216610552    -0.156859619510    -0.335977608175
    C           -0.554911712747    -0.299043974470     0.033200612383
    H            0.813409398634     1.243354522292    -0.653074334111
    H            0.575025552380     1.200191049341     1.087332364339
    C           -1.845869211787     0.509167250329    -0.062738558119
    H           -0.441124391625    -0.901146793866    -0.863782555900
    H           -0.620846065378    -0.990048769728     0.869457381742
    C           -3.088406245095    -0.369583118043    -0.161683527132
    H           -1.796448088148     1.154773354821    -0.934461871917
    H           -1.930343334881     1.159935118590     0.802792470892
    H           -3.042988066139    -1.014662321684    -1.032595905620
    H           -3.986048341205     0.231823317503    -0.242825561206
    H           -3.192135582250    -1.002769476579     0.713023696522

  Mulliken Charges: (a.u.)
   Center  Symbol    Alpha    Beta     Spin     Total
       1     H     0.46537  0.46537  0.00000  0.06926
       2     C     2.90947  2.90947  0.00000  0.18105
       3     C     3.07655  3.07655  0.00000 -0.15310
       4     O     4.16415  4.16415  0.00000 -0.32829
       5     C     3.10229  3.10229  0.00000 -0.20457
       6     H     0.44245  0.44245  0.00000  0.11511
       7     H     0.45019  0.45019  0.00000  0.09963
       8     C     3.08462  3.08462  0.00000 -0.16924
       9     H     0.44547  0.44547  0.00000  0.10906
      10     H     0.45205  0.45205  0.00000  0.09589
      11     C     3.14913  3.14913  0.00000 -0.29826
      12     H     0.45037  0.45037  0.00000  0.09927
      13     H     0.45334  0.45334  0.00000  0.09331
      14     H     0.45331  0.45331  0.00000  0.09338
      15     H     0.44666  0.44666  0.00000  0.10667
      16     H     0.45458  0.45458  0.00000  0.09084

   Total alpha = 24.00000, Total beta = 24.00000, Total charge = -0.00000

*** Psi4 exiting successfully. Buy a developer a beer!
