  ==> Input File <==

--------------------------------------------------------------------------
set {
	reference rhf
	basis 6-31G*
}

set_num_threads( 4 )
memory 2 gb

molecule MOL {
0 1

H	 -1.597368	 -1.095780	 -0.890759
O	 -2.310168	 -0.871793	 -0.309793
C	 -2.026376	 0.340750	 0.341611
C	 -0.673256	 0.843270	 -0.132153
H	 -2.792215	 1.080697	 0.115987
H	 -2.013526	 0.200402	 1.421792
C	 0.486613	 -0.083066	 0.235839
H	 -0.715586	 0.970948	 -1.210718
H	 -0.508072	 1.829858	 0.297090
C	 1.840406	 0.433480	 -0.254303
H	 0.300215	 -1.068318	 -0.178947
H	 0.519509	 -0.203625	 1.318070
C	 3.000220	 -0.489290	 0.118523
H	 1.809207	 0.553576	 -1.335192
H	 2.021860	 1.424500	 0.157276
H	 2.864959	 -1.479103	 -0.307933
H	 3.946603	 -0.099227	 -0.243630
H	 3.080049	 -0.602997	 1.196117

	symmetry c1
}
set optking {
	frozen_dihedral = ("
		1 2 3 4
	")
}

ee = optimize('scf')
oeprop('DIPOLE', 'QUADRUPOLE', 'MULLIKEN_CHARGES')
f=open( 'psi4out.xyz', 'w' )
f.write( "18  " )
f.write( str(ee) + "\n" )
f.write( MOL.save_string_xyz() )
f.close()
--------------------------------------------------------------------------

    Molecular point group: c1
  Charge       = 0
  Multiplicity = 1
  Basis Set: 6-31G*
  Basis Set:
  @DF-RHF Final Energy:  -271.17427467349995
    Total Energy =                       -271.1742746734999514
    Molecular point group: c1
  Basis Set: 6-31G*
  Basis Set:
  Basis Set: 6-31G*
  Basis Set:
  @DF-RHF Final Energy:  -271.17572648777866
    Total Energy =                       -271.1757264877787748
  Basis Set: 6-31G*
  Basis Set:
  Basis Set: 6-31G*
  Basis Set:
  @DF-RHF Final Energy:  -271.17641047376526
    Total Energy =                       -271.1764104737652588
  Basis Set: 6-31G*
  Basis Set:
  Basis Set: 6-31G*
  Basis Set:
  @DF-RHF Final Energy:  -271.17642980448665
    Total Energy =                       -271.1764298044864745
  Basis Set: 6-31G*
  Basis Set:
  Basis Set: 6-31G*
  Basis Set:
  @DF-RHF Final Energy:  -271.17643859294174
    Total Energy =                       -271.1764385929417358
  Basis Set: 6-31G*
  Basis Set:
  Basis Set: 6-31G*
  Basis Set:
  @DF-RHF Final Energy:  -271.17643995177576
    Total Energy =                       -271.1764399517755351
  Basis Set: 6-31G*
  Basis Set:
  Charge       = 0
  Multiplicity = 1
  Basis Set: 6-31G*
  Basis Set:

    Orbital Energies (a.u.)
    -----------------------

    Doubly Occupied:

       1A    -20.548642     2A    -11.266573     3A    -11.225272
       4A    -11.224254     5A    -11.222684     6A    -11.213905
       7A     -1.356076     8A     -1.086695     9A     -1.015422
      10A     -0.922875    11A     -0.835591    12A     -0.799289
      13A     -0.662174    14A     -0.659829    15A     -0.633476
      16A     -0.612437    17A     -0.577460    18A     -0.559788
      19A     -0.541468    20A     -0.502067    21A     -0.495856
      22A     -0.479742    23A     -0.472404    24A     -0.452047
      25A     -0.427787

  @DF-RHF Final Energy:  -271.17644024604442

   => Energetics <=

    Nuclear Repulsion Energy =            248.7796254965519722
    One-Electron Energy =                -860.3245045298554032
    Two-Electron Energy =                 340.3684387872588673
    DFT Exchange-Correlation Energy =       0.0000000000000000
    Empirical Dispersion Energy =           0.0000000000000000
    PCM Polarization Energy =               0.0000000000000000
    EFP Energy =                            0.0000000000000000
    Total Energy =                       -271.1764402460445922
    Molecular point group: c1
  Basis Set: 6-31G*
  Basis Set:

  -Total Gradient:
     Atom            X                  Y                   Z
    ------   -----------------  -----------------  -----------------
       1        0.000263123436    -0.000351509515     0.000451200531
       2       -0.000368030489     0.000438729213    -0.000685011365
       3        0.000260831137    -0.000327696204     0.000482853426
       4       -0.000172978864     0.000228905746    -0.000269185968
       5        0.000026894756     0.000057185721     0.000039321648
       6        0.000008228757    -0.000018707851    -0.000012988864
       7       -0.000015400706    -0.000024561332     0.000002693885
       8        0.000006480720    -0.000008500803     0.000008594309
       9       -0.000013610106     0.000007434007     0.000004184856
      10       -0.000002782770    -0.000003448440    -0.000023980471
      11        0.000002781036    -0.000007790113    -0.000003319233
      12        0.000000771576    -0.000003945801    -0.000000410423
      13       -0.000004018203     0.000013078461     0.000016613146
      14        0.000008299125    -0.000006327534    -0.000005443838
      15        0.000002888113     0.000002875819    -0.000009016507
      16       -0.000001121899     0.000006002158    -0.000005087480
      17       -0.000002458213     0.000004803417     0.000005806853
      18        0.000000102601    -0.000006526949     0.000003175495

  **** Optimization is complete! (in 7 steps) ****
    Final optimized geometry and variables:
    Molecular point group: c1

    Geometry (in Angstrom), charge = 0, multiplicity = 1:

    H           -1.789162537663    -1.159744257763    -0.893173049583
    O           -2.441389238569    -0.861670604660    -0.277732198362
    C           -2.028187371838     0.334381444481     0.338266418677
    C           -0.666411512620     0.830836914101    -0.134077646888
    H           -2.778249525202     1.092852119978     0.137125605977
    H           -2.008845486608     0.173715579333     1.412336849409
    C            0.499367750516    -0.091340567310     0.235443572326
    H           -0.699197659391     0.975392790973    -1.213459919971
    H           -0.496208065577     1.813465840250     0.299655530580
    C            1.853766255261     0.434893601918    -0.242972590694
    H            0.340693199856    -1.085254174043    -0.179276473488
    H            0.521724312633    -0.219102188804     1.315847309067
    C            3.017017994212    -0.480313295979     0.136985479401
    H            1.830855534634     0.560529473112    -1.323436016415
    H            2.021961756193     1.425036300466     0.174969400107
    H            2.896125081192    -1.469186597528    -0.296191041708
    H            3.962742641893    -0.079293944086    -0.213706268996
    H            3.086827055901    -0.598747518831     1.214462979975

  Mulliken Charges: (a.u.)
   Center  Symbol    Alpha    Beta     Spin     Total
       1     H     0.27844  0.27844  0.00000  0.44312
       2     O     4.37892  4.37892  0.00000 -0.75783
       3     C     2.97450  2.97450  0.00000  0.05100
       4     C     3.18898  3.18898  0.00000 -0.37796
       5     H     0.42299  0.42299  0.00000  0.15401
       6     H     0.42590  0.42590  0.00000  0.14820
       7     C     3.15336  3.15336  0.00000 -0.30671
       8     H     0.42021  0.42021  0.00000  0.15958
       9     H     0.41667  0.41667  0.00000  0.16666
      10     C     3.15126  3.15126  0.00000 -0.30252
      11     H     0.42673  0.42673  0.00000  0.14655
      12     H     0.41874  0.41874  0.00000  0.16253
      13     C     3.23963  3.23963  0.00000 -0.47926
      14     H     0.42254  0.42254  0.00000  0.15492
      15     H     0.42158  0.42158  0.00000  0.15683
      16     H     0.42118  0.42118  0.00000  0.15763
      17     H     0.41799  0.41799  0.00000  0.16402
      18     H     0.42038  0.42038  0.00000  0.15923

   Total alpha = 25.00000, Total beta = 25.00000, Total charge =  0.00000
