                              Psi4 1.0.54 Driver

  ==> Input File <==

--------------------------------------------------------------------------
set {
	reference rhf
	basis cc-pvtz
}

set_num_threads( 4 )
memory 2 gb

molecule MOL {
0 1

O	 -2.081319	 -0.951530	 -0.502732
N	 -1.613558	 0.006676	 0.014756
C	 -0.329345	 -0.171618	 0.743966
O	 -2.068523	 1.100482	 -0.024385
C	 0.835904	 0.041968	 -0.213982
H	 -0.346048	 -1.174374	 1.137184
H	 -0.333613	 0.555559	 1.538590
C	 2.177039	 -0.130175	 0.494460
H	 0.754456	 -0.665923	 -1.030569
H	 0.765464	 1.037260	 -0.637266
C	 2.104542	 0.232397	 1.973570
H	 2.924849	 0.488271	 0.006872
H	 2.510920	 -1.158320	 0.390304
H	 1.805290	 1.265829	 2.108348
H	 1.386591	 -0.391527	 2.494127
H	 3.067251	 0.100563	 2.452081

	symmetry c1
}
set optking {
	frozen_dihedral = ("
		11 8 5 9
	")
}

ee,wfn = optimize('scf', return_wfn=True)
oeprop( wfn, 'DIPOLE', 'QUADRUPOLE', 'MULLIKEN_CHARGES')
f=open( 'psi4out.xyz', 'w' )
f.write( "16  " )
f.write( str(ee) + "\n" )
f.write( MOL.save_string_xyz() )
f.close()
--------------------------------------------------------------------------

    Molecular point group: c1
  Charge       = 0
  Multiplicity = 1
  Basis Set: CC-PVTZ
  Basis Set:
  @DF-RHF Final Energy:  -360.90096679257334
    Total Energy =                       -360.9009667925735698
    Molecular point group: c1
  Basis Set: CC-PVTZ
  Basis Set:
  Basis Set: CC-PVTZ
  Basis Set:
  @DF-RHF Final Energy:  -360.87534018488782
    Total Energy =                       -360.8753401848883868
  Basis Set: CC-PVTZ
  Basis Set:
  Basis Set: CC-PVTZ
  Basis Set:
  @DF-RHF Final Energy:  -360.90270978276459
    Total Energy =                       -360.9027097827644184
  Basis Set: CC-PVTZ
  Basis Set:
  Basis Set: CC-PVTZ
  Basis Set:
  @DF-RHF Final Energy:  -360.90210717953056
    Total Energy =                       -360.9021071795306170
  Basis Set: CC-PVTZ
  Basis Set:
  @DF-RHF Final Energy:  -360.57664808615141
    Total Energy =                       -360.5766480861513514
  @DF-RHF Final Energy:  -360.75024929089790
    Total Energy =                       -360.7502492908979548
  @DF-RHF Final Energy:  -360.87768871257833
    Total Energy =                       -360.8776887125780490
  @DF-RHF Final Energy:  -360.29865180779564
    Total Energy =                       -360.2986518077959204
  @DF-RHF Final Energy:  -360.65071454197761
    Total Energy =                       -360.6507145419780045
  @DF-RHF Final Energy:  -360.83538492845935
    Total Energy =                       -360.8353849284594617
  @DF-RHF Final Energy:  -360.89874413315505
    Total Energy =                       -360.8987441331545938
  @DF-RHF Final Energy:  -360.90282959925491
    Total Energy =                       -360.9028295992549715
  @DF-RHF Final Energy:  -360.90357303245963
    Total Energy =                       -360.9035730324591214
  @DF-RHF Final Energy:  -360.90370545129758
    Total Energy =                       -360.9037054512978102
  @DF-RHF Final Energy:  -360.90370451027849
    Total Energy =                       -360.9037045102786010
  Basis Set: CC-PVTZ
  Basis Set:
  @DF-RHF Final Energy:  -360.90372291998062
    Total Energy =                       -360.9037229199802823
  Basis Set: CC-PVTZ
  Basis Set:
  Basis Set: CC-PVTZ
  Basis Set:
  @DF-RHF Final Energy:  -360.90372624872793
    Total Energy =                       -360.9037262487279349
  Basis Set: CC-PVTZ
  Basis Set:
  Basis Set: CC-PVTZ
  Basis Set:
  @DF-RHF Final Energy:  -360.90372759626877
    Total Energy =                       -360.9037275962687090
  Basis Set: CC-PVTZ
  Basis Set:
  Charge       = 0
  Multiplicity = 1
  Basis Set: CC-PVTZ
  Basis Set:

    Orbital Energies (a.u.)
    -----------------------

    Doubly Occupied:

       1A    -20.589313     2A    -20.589208     3A    -15.835635
       4A    -11.295330     5A    -11.251220     6A    -11.242151
       7A    -11.230042     8A     -1.634749     9A     -1.419032
      10A     -1.135640    11A     -1.056584    12A     -0.952741
      13A     -0.856703    14A     -0.815856    15A     -0.761107
      16A     -0.737542    17A     -0.721632    18A     -0.674792
      19A     -0.620705    20A     -0.606455    21A     -0.574979
      22A     -0.556627    23A     -0.510751    24A     -0.500405
      25A     -0.491906    26A     -0.484174    27A     -0.471901
      28A     -0.451476

  @DF-RHF Final Energy:  -360.90372792483385

   => Energetics <=

    Nuclear Repulsion Energy =            317.1136928040801308
    One-Electron Energy =               -1119.8975306981064932
    Two-Electron Energy =                 441.8801099691927448
    DFT Exchange-Correlation Energy =       0.0000000000000000
    Empirical Dispersion Energy =           0.0000000000000000
    PCM Polarization Energy =               0.0000000000000000
    EFP Energy =                            0.0000000000000000
    Total Energy =                       -360.9037279248336745
    Molecular point group: c1
  Basis Set: CC-PVTZ
  Basis Set:

  -Total Gradient:
     Atom            X                  Y                   Z
    ------   -----------------  -----------------  -----------------
       1        0.000003060509     0.000001827393     0.000008143425
       2       -0.000047346532    -0.000001419573    -0.000070733960
       3       -0.000007695553     0.000004700075     0.000016580632
       4        0.000032560170     0.000008869548     0.000051552742
       5        0.003179498889     0.000669080187    -0.004770424499
       6       -0.000005779015     0.000004350515     0.000001844338
       7       -0.000000034162    -0.000020993342    -0.000001957726
       8       -0.001189352213     0.001544666714    -0.004901628609
       9       -0.002422764614    -0.000995104224     0.005414575172
      10        0.000011029122     0.000007586120     0.000001001944
      11        0.000443158465    -0.001226919834     0.004274289478
      12       -0.000024210365     0.000008066566    -0.000007742799
      13        0.000022489570     0.000002629417    -0.000020716383
      14        0.000003986018     0.000002253972     0.000002299936
      15       -0.000000018062    -0.000008497200     0.000001923607
      16        0.000001417775    -0.000001096331     0.000000992701

  **** Optimization is complete! (in 19 steps) ****
    Final optimized geometry and variables:
    Molecular point group: c1

    Geometry (in Angstrom), charge = 0, multiplicity = 1:

    O            0.122744391023    -2.214749068995     0.654788181334
    N           -0.451793427782    -1.432164012562    -0.025458507133
    C           -0.346063546815     0.004513588030     0.346915757111
    O           -1.082227013277    -1.695919075726    -0.993979414850
    C            0.851416837876     0.614198889097    -0.380849824526
    H           -0.221885892970     0.024044755888     1.416748689605
    H           -1.280494991438     0.451627859620     0.057374204490
    C            1.126870164014     2.077550814349     0.012569993788
    H            1.707946427754     0.010261317321    -0.109624028167
    H            0.686551672153     0.524700593427    -1.446519240126
    C           -0.091679562438     2.920617307107     0.384018593141
    H            1.660847058590     2.550791046347    -0.802340125038
    H            1.805501031100     2.082650024492     0.859184914038
    H           -0.821081077851     2.955793866921    -0.418542404320
    H           -0.588151954841     2.546098283040     1.271075258764
    H            0.212837147262     3.938927019772     0.591517931863

  Mulliken Charges: (a.u.)
   Center  Symbol    Alpha    Beta     Spin     Total
       1     O     4.17408  4.17408  0.00000 -0.34815
       2     N     3.27443  3.27443  0.00000  0.45114
       3     C     3.04458  3.04458  0.00000 -0.08916
       4     O     4.17450  4.17450  0.00000 -0.34900
       5     C     3.10918  3.10918  0.00000 -0.21836
       6     H     0.43323  0.43323  0.00000  0.13354
       7     H     0.43263  0.43263  0.00000  0.13473
       8     C     3.09405  3.09405  0.00000 -0.18810
       9     H     0.43465  0.43465  0.00000  0.13070
      10     H     0.43519  0.43519  0.00000  0.12961
      11     C     3.15965  3.15965  0.00000 -0.31931
      12     H     0.44353  0.44353  0.00000  0.11294
      13     H     0.44775  0.44775  0.00000  0.10449
      14     H     0.44934  0.44934  0.00000  0.10131
      15     H     0.45331  0.45331  0.00000  0.09338
      16     H     0.43989  0.43989  0.00000  0.12023

   Total alpha = 28.00000, Total beta = 28.00000, Total charge = -0.00000

*** Psi4 exiting successfully. Buy a developer a beer!
