  ==> Input File <==

--------------------------------------------------------------------------
set {
	reference rhf
	basis 6-31G*
}

set_num_threads( 4 )
memory 2 gb

molecule MOL {
0 1

H	 -3.161837	 0.500524	 -0.000234
C	 -2.367097	 -0.232926	 -0.000000
O	 -1.158440	 0.455814	 -0.000122
H	 -2.468853	 -0.861886	 -0.882833
H	 -2.468942	 -0.861421	 0.883154
C	 -0.029776	 -0.365156	 0.000148
C	 0.063042	 -1.070455	 1.342012
H	 0.867121	 0.229660	 -0.177815
H	 -0.096482	 -1.095287	 -0.807544
C	 1.275835	 -1.995477	 1.433375
H	 0.105332	 -0.318477	 2.123935
H	 -0.851474	 -1.634216	 1.498644
H	 2.204128	 -1.446100	 1.303445
H	 1.317004	 -2.485613	 2.400287
H	 1.240915	 -2.770890	 0.673165

	symmetry c1
}
set optking {
	frozen_dihedral = ("
		8 6 3 2
	")
}

ee = optimize('scf')
oeprop('DIPOLE', 'QUADRUPOLE', 'MULLIKEN_CHARGES')
f=open( 'psi4out.xyz', 'w' )
f.write( "15  " )
f.write( str(ee) + "\n" )
f.write( MOL.save_string_xyz() )
f.close()
--------------------------------------------------------------------------

    Molecular point group: c1
  Charge       = 0
  Multiplicity = 1
  Basis Set: 6-31G*
  Basis Set:
  @DF-RHF Final Energy:  -232.13229673195508
    Total Energy =                       -232.1322967319551935
    Molecular point group: c1
  Basis Set: 6-31G*
  Basis Set:
  Basis Set: 6-31G*
  Basis Set:
  @DF-RHF Final Energy:  -232.13404547369393
    Total Energy =                       -232.1340454736939591
  Basis Set: 6-31G*
  Basis Set:
  Basis Set: 6-31G*
  Basis Set:
  @DF-RHF Final Energy:  -232.13631965151430
    Total Energy =                       -232.1363196515143841
  Basis Set: 6-31G*
  Basis Set:
  Basis Set: 6-31G*
  Basis Set:
  @DF-RHF Final Energy:  -232.13655245196455
    Total Energy =                       -232.1365524519644055
  Basis Set: 6-31G*
  Basis Set:
  Basis Set: 6-31G*
  Basis Set:
  @DF-RHF Final Energy:  -232.13657032732900
    Total Energy =                       -232.1365703273288545
  Basis Set: 6-31G*
  Basis Set:
  Basis Set: 6-31G*
  Basis Set:
  @DF-RHF Final Energy:  -232.13657163435764
    Total Energy =                       -232.1365716343576082
  Basis Set: 6-31G*
  Basis Set:
  Charge       = 0
  Multiplicity = 1
  Basis Set: 6-31G*
  Basis Set:

    Orbital Energies (a.u.)
    -----------------------

    Doubly Occupied:

       1A    -20.552126     2A    -11.266360     3A    -11.263157
       4A    -11.217287     5A    -11.215515     6A     -1.374790
       7A     -1.056796     8A     -0.959636     9A     -0.883578
      10A     -0.804268    11A     -0.670336    12A     -0.657449
      13A     -0.633455    14A     -0.602719    15A     -0.565383
      16A     -0.531589    17A     -0.522652    18A     -0.497904
      19A     -0.484729    20A     -0.454905    21A     -0.406589

  @DF-RHF Final Energy:  -232.13657204158315

   => Energetics <=

    Nuclear Repulsion Energy =            191.6332544805003124
    One-Electron Energy =                -694.2972024959426562
    Two-Electron Energy =                 270.5273759738590797
    DFT Exchange-Correlation Energy =       0.0000000000000000
    Empirical Dispersion Energy =           0.0000000000000000
    PCM Polarization Energy =               0.0000000000000000
    EFP Energy =                            0.0000000000000000
    Total Energy =                       -232.1365720415832357
    Molecular point group: c1
  Basis Set: 6-31G*
  Basis Set:

  -Total Gradient:
     Atom            X                  Y                   Z
    ------   -----------------  -----------------  -----------------
       1       -0.000005394343     0.000002055946     0.000001107919
       2       -0.000047453232     0.000026788827     0.000941284957
       3        0.000040223115    -0.000018448865    -0.001128817555
       4        0.000004107098     0.000003186032    -0.000001342011
       5        0.000003744837     0.000001799099     0.000003313676
       6       -0.000087690077    -0.000187975822    -0.000924934206
       7       -0.000004096721    -0.000003040390     0.000017912816
       8        0.000102809161     0.000167332969     0.001107876024
       9       -0.000000130502     0.000002224846     0.000000228593
      10        0.000002027436     0.000001596075    -0.000014252332
      11        0.000000286958     0.000001751083    -0.000004647569
      12       -0.000005077959    -0.000001157244     0.000002521531
      13        0.000002545640    -0.000000808233     0.000004787646
      14       -0.000008273642     0.000003315995    -0.000002494389
      15        0.000002372233     0.000001379686    -0.000002545100

  **** Optimization is complete! (in 7 steps) ****
    Final optimized geometry and variables:
    Molecular point group: c1

    Geometry (in Angstrom), charge = 0, multiplicity = 1:

    H           -2.675078757334     1.289110575507    -0.788053407204
    C           -1.958226182995     0.505424888433    -0.583545841789
    O           -0.696984002146     1.096316616980    -0.557129358629
    H           -2.029099718369    -0.245872247083    -1.368652630176
    H           -2.216802989735     0.040775588115     0.363569112760
    C            0.391675663572     0.219980995960    -0.505955814915
    C            0.543945073009    -0.509866579231     0.826147634462
    H            1.267200339265     0.835890724235    -0.673251183382
    H            0.330989540906    -0.499544646667    -1.323253515027
    C            1.833718026624    -1.329139165920     0.879062570295
    H            0.535795751561     0.227373519155     1.623972215317
    H           -0.304066770858    -1.166956460638     0.995964542586
    H            2.708228561714    -0.696445874316     0.757254645355
    H            1.929317075747    -1.844001519232     1.829118055473
    H            1.857380334236    -2.080227183694     0.094243183780

  Mulliken Charges: (a.u.)
   Center  Symbol    Alpha    Beta     Spin     Total
       1     H     0.41228  0.41228  0.00000  0.17543
       2     C     3.08117  3.08117  0.00000 -0.16233
       3     O     4.30680  4.30680  0.00000 -0.61359
       4     H     0.43167  0.43167  0.00000  0.13666
       5     H     0.42823  0.42823  0.00000  0.14354
       6     C     2.98423  2.98423  0.00000  0.03154
       7     C     3.16931  3.16931  0.00000 -0.33862
       8     H     0.41612  0.41612  0.00000  0.16776
       9     H     0.43277  0.43277  0.00000  0.13446
      10     C     3.24689  3.24689  0.00000 -0.49378
      11     H     0.41410  0.41410  0.00000  0.17181
      12     H     0.42096  0.42096  0.00000  0.15807
      13     H     0.41932  0.41932  0.00000  0.16135
      14     H     0.41551  0.41551  0.00000  0.16899
      15     H     0.42064  0.42064  0.00000  0.15871

   Total alpha = 21.00000, Total beta = 21.00000, Total charge = -0.00000
