  ==> Input File <==

--------------------------------------------------------------------------
set {
	reference rhf
	basis 6-31G*
}

set_num_threads( 1 )
memory 2 gb

molecule MOL {
0 1

H	 3.342615	 -0.936461	 1.785384
O	 2.596430	 -1.161904	 1.238447
C	 1.836230	 -0.074951	 1.107895
C	 0.624473	 -0.343591	 0.253101
O	 2.118774	 0.958468	 1.620954
C	 -0.265902	 0.883932	 0.072916
H	 0.984665	 -0.729338	 -0.694967
H	 0.077852	 -1.160403	 0.717618
C	 -1.728698	 0.646073	 0.462102
H	 -0.209144	 1.219470	 -0.958188
H	 0.135059	 1.692851	 0.673903
C	 -2.482460	 -0.343073	 -0.431425
H	 -2.245265	 1.602650	 0.432430
H	 -1.779332	 0.308348	 1.496285
C	 -3.960546	 -0.461025	 -0.060175
H	 -2.395034	 -0.026811	 -1.468912
H	 -2.024850	 -1.327147	 -0.371646
H	 -4.472726	 -1.168004	 -0.705284
H	 -4.465146	 0.496508	 -0.151489
H	 -4.081218	 -0.800940	 0.964585

	symmetry c1
}
set optking {
	frozen_dihedral = ("
		16 12 9 6,
		12 9 6 10,
		5 3 4 7,
		1 2 3 5
	")
}

ee = energy('scf')
oeprop('DIPOLE', 'QUADRUPOLE', 'MULLIKEN_CHARGES')
f=open( 'psi4out.xyz', 'w' )
f.write( "20  " )
f.write( str(ee) + "\n" )
f.write( MOL.save_string_xyz() )
f.close()
--------------------------------------------------------------------------

    Molecular point group: c1

    Geometry (in Angstrom), charge = 0, multiplicity = 1:

       Center              X                  Y                   Z               Mass
    ------------   -----------------  -----------------  -----------------  -----------------
           H          3.459514562065    -0.933003775021     1.231283792135     1.007825032070
           O          2.713329562065    -1.158446775021     0.684346792135    15.994914619560
           C          1.953129562065    -0.071493775021     0.553794792135    12.000000000000
           C          0.741372562065    -0.340133775021    -0.300999207865    12.000000000000
           O          2.235673562065     0.961925224979     1.066853792135    15.994914619560
           C         -0.149002437935     0.887389224979    -0.481184207865    12.000000000000
           H          1.101564562065    -0.725880775021    -1.249067207865     1.007825032070
           H          0.194751562065    -1.156945775021     0.163517792135     1.007825032070
           C         -1.611798437935     0.649530224979    -0.091998207865    12.000000000000
           H         -0.092244437935     1.222927224979    -1.512288207865     1.007825032070
           H          0.251958562065     1.696308224979     0.119802792135     1.007825032070
           C         -2.365560437935    -0.339615775021    -0.985525207865    12.000000000000
           H         -2.128365437935     1.606107224979    -0.121670207865     1.007825032070
           H         -1.662432437935     0.311805224979     0.942184792135     1.007825032070
           C         -3.843646437935    -0.457567775021    -0.614275207865    12.000000000000
           H         -2.278134437935    -0.023353775021    -2.023012207865     1.007825032070
           H         -1.907950437935    -1.323689775021    -0.925746207865     1.007825032070
           H         -4.355826437935    -1.164546775021    -1.259384207865     1.007825032070
           H         -4.348246437935     0.499965224979    -0.705589207865     1.007825032070
           H         -3.964318437935    -0.797482775021     0.410484792135     1.007825032070

  Charge       = 0
  Multiplicity = 1
  Basis Set: 6-31G*
  Basis Set:

    Orbital Energies (a.u.)
    -----------------------

    Doubly Occupied:

       1A    -20.613353     2A    -20.552657     3A    -11.381899
       4A    -11.239053     5A    -11.219521     6A    -11.218837
       7A    -11.218276     8A    -11.211645     9A     -1.475472
      10A     -1.366870    11A     -1.095146    12A     -1.040142
      13A     -0.959838    14A     -0.868986    15A     -0.816157
      16A     -0.774994    17A     -0.701342    18A     -0.693227
      19A     -0.663615    20A     -0.635453    21A     -0.599323
      22A     -0.594402    23A     -0.574096    24A     -0.551788
      25A     -0.543135    26A     -0.508316    27A     -0.497981
      28A     -0.480228    29A     -0.466474    30A     -0.464959
      31A     -0.454890    32A     -0.447011

  @DF-RHF Final Energy:  -383.94435473423147

   => Energetics <=

    Nuclear Repulsion Energy =            377.4660137277898571
    One-Electron Energy =               -1270.9625840475443965
    Two-Electron Energy =                 509.5522155855230721
    DFT Exchange-Correlation Energy =       0.0000000000000000
    Empirical Dispersion Energy =           0.0000000000000000
    PCM Polarization Energy =               0.0000000000000000
    EFP Energy =                            0.0000000000000000
    Total Energy =                       -383.9443547342314105

  Mulliken Charges: (a.u.)
   Center  Symbol    Alpha    Beta     Spin     Total
       1     H     0.26763  0.26763  0.00000  0.46473
       2     O     4.35011  4.35011  0.00000 -0.70022
       3     C     2.62823  2.62823  0.00000  0.74354
       4     C     3.21348  3.21348  0.00000 -0.42695
       5     O     4.27808  4.27808  0.00000 -0.55616
       6     C     3.16541  3.16541  0.00000 -0.33083
       7     H     0.39496  0.39496  0.00000  0.21008
       8     H     0.39617  0.39617  0.00000  0.20766
       9     C     3.15679  3.15679  0.00000 -0.31357
      10     H     0.41822  0.41822  0.00000  0.16356
      11     H     0.39021  0.39021  0.00000  0.21958
      12     C     3.15383  3.15383  0.00000 -0.30766
      13     H     0.41901  0.41901  0.00000  0.16197
      14     H     0.42230  0.42230  0.00000  0.15540
      15     C     3.23923  3.23923  0.00000 -0.47846
      16     H     0.42247  0.42247  0.00000  0.15506
      17     H     0.42330  0.42330  0.00000  0.15340
      18     H     0.41868  0.41868  0.00000  0.16263
      19     H     0.42058  0.42058  0.00000  0.15884
      20     H     0.42130  0.42130  0.00000  0.15739

   Total alpha = 32.00000, Total beta = 32.00000, Total charge =  0.00000
