                              Psi4 1.0.54 Driver

  ==> Input File <==

--------------------------------------------------------------------------
set {
	reference rhf
	basis cc-pvtz
}

set_num_threads( 4 )
memory 2 gb

molecule MOL {
0 1

O	 -2.817697	 1.304178	 0.001046
C	 -2.664672	 0.129869	 0.003507
C	 -3.797908	 -0.860100	 -0.001145
O	 -1.481217	 -0.452708	 0.001092
H	 -4.408836	 -0.679689	 -0.875387
H	 -3.443486	 -1.878443	 -0.002770
H	 -4.412123	 -0.683688	 0.871605
C	 -0.332055	 0.384012	 -0.000250
C	 0.892252	 -0.506059	 -0.000295
H	 -0.360822	 1.020205	 -0.874146
H	 -0.359817	 1.021310	 0.872861
C	 2.188199	 0.299473	 -0.001416
H	 0.857046	 -1.152781	 -0.871031
H	 0.857910	 -1.151798	 0.871202
C	 3.437151	 -0.577593	 -0.000991
H	 2.209565	 0.950707	 -0.871712
H	 2.210062	 0.952234	 0.867721
C	 4.728215	 0.220955	 -0.144113
H	 3.367956	 -1.299389	 -0.809867
H	 3.469609	 -1.153757	 0.919372
H	 4.740666	 0.781850	 -1.072599
H	 5.594449	 -0.430296	 -0.140011
H	 4.842939	 0.928847	 0.669878

	symmetry c1
}
set optking {
	frozen_dihedral = ("
		19 15 12 16
	")
}

ee,wfn = optimize('scf', return_wfn=True)
oeprop( wfn, 'DIPOLE', 'QUADRUPOLE', 'MULLIKEN_CHARGES')
f=open( 'psi4out.xyz', 'w' )
f.write( "23  " )
f.write( str(ee) + "\n" )
f.write( MOL.save_string_xyz() )
f.close()
--------------------------------------------------------------------------

    Molecular point group: c1
  Charge       = 0
  Multiplicity = 1
  Basis Set: CC-PVTZ
  Basis Set:
  @DF-RHF Final Energy:  -423.13468200705256
    Total Energy =                       -423.1346820070525609
    Molecular point group: c1
  Basis Set: CC-PVTZ
  Basis Set:
  Basis Set: CC-PVTZ
  Basis Set:
  @DF-RHF Final Energy:  -423.13447281512720
    Total Energy =                       -423.1344728151269692
  Basis Set: CC-PVTZ
  Basis Set:
  Basis Set: CC-PVTZ
  Basis Set:
  @DF-RHF Final Energy:  -423.13468354155424
    Total Energy =                       -423.1346835415537271
  Basis Set: CC-PVTZ
  Basis Set:
  Basis Set: CC-PVTZ
  Basis Set:
  @DF-RHF Final Energy:  -423.13470866010499
    Total Energy =                       -423.1347086601043657
  Basis Set: CC-PVTZ
  Basis Set:
  Charge       = 0
  Multiplicity = 1
  Basis Set: CC-PVTZ
  Basis Set:

    Orbital Energies (a.u.)
    -----------------------

    Doubly Occupied:

       1A    -20.595967     2A    -20.529541     3A    -11.366424
       4A    -11.279480     5A    -11.230683     6A    -11.222398
       7A    -11.221321     8A    -11.219441     9A    -11.210987
      10A     -1.471182    11A     -1.364022    12A     -1.095317
      13A     -1.043294    14A     -1.004304    15A     -0.931774
      16A     -0.842499    17A     -0.803219    18A     -0.776131
      19A     -0.694847    20A     -0.688341    21A     -0.671238
      22A     -0.647698    23A     -0.607018    24A     -0.589322
      25A     -0.584191    26A     -0.567283    27A     -0.559631
      28A     -0.538725    29A     -0.524033    30A     -0.505725
      31A     -0.491814    32A     -0.478762    33A     -0.470628
      34A     -0.466904    35A     -0.455257    36A     -0.438960

  @DF-RHF Final Energy:  -423.13470889563723

   => Energetics <=

    Nuclear Repulsion Energy =            450.4500000350008122
    One-Electron Energy =               -1468.7926998963114329
    Two-Electron Energy =                 595.2079909656733889
    DFT Exchange-Correlation Energy =       0.0000000000000000
    Empirical Dispersion Energy =           0.0000000000000000
    PCM Polarization Energy =               0.0000000000000000
    EFP Energy =                            0.0000000000000000
    Total Energy =                       -423.1347088956372318
    Molecular point group: c1
  Basis Set: CC-PVTZ
  Basis Set:

  -Total Gradient:
     Atom            X                  Y                   Z
    ------   -----------------  -----------------  -----------------
       1       -0.000027144414     0.000023297219    -0.000003711834
       2        0.000034888832    -0.000040833150    -0.000002007218
       3       -0.000005651600     0.000011886113     0.000007500437
       4       -0.000034162022    -0.000004669333    -0.000019643687
       5        0.000002404679    -0.000001138800     0.000001742358
       6        0.000001843083     0.000005530693    -0.000000216553
       7       -0.000000793117    -0.000001104153    -0.000004037595
       8        0.000028034821     0.000011291873     0.000053414367
       9       -0.000001824589    -0.000009063215    -0.000018725694
      10       -0.000003727262    -0.000008961774    -0.000001668512
      11        0.000007876052    -0.000001471472    -0.000013127590
      12       -0.000765117747    -0.001111612412    -0.000570467156
      13        0.000003240991     0.000000306932     0.000001827972
      14       -0.000003983194     0.000010507881    -0.000004175152
      15        0.000746039143     0.001048440425    -0.000704280911
      16        0.000535062529     0.000770459321     0.000591254034
      17       -0.000000521383    -0.000005419246     0.000000802469
      18        0.000002963571     0.000017838178    -0.000000675724
      19       -0.000510817115    -0.000710495561     0.000684508559
      20        0.000002990088     0.000006795730    -0.000000289315
      21        0.000000963111    -0.000009952735     0.000013860942
      22       -0.000014770929     0.000007614375    -0.000001964354
      23        0.000002206467    -0.000009246889    -0.000009919842

  **** Optimization is complete! (in 5 steps) ****
    Final optimized geometry and variables:
    Molecular point group: c1

    Geometry (in Angstrom), charge = 0, multiplicity = 1:

    O           -2.816745331350     1.305460471594     0.028243546903
    C           -2.664356552769     0.131028648237     0.022972627207
    C           -3.798289445448    -0.858353150721     0.024594087640
    O           -1.481206729994    -0.451934598235     0.015130245425
    H           -4.415597991167    -0.675410062990    -0.844681129563
    H           -3.444470054407    -1.876915755570     0.017866135941
    H           -4.405846854985    -0.683667214365     0.902411923546
    C           -0.331906431590     0.384221990814     0.013318866212
    C            0.892073413099    -0.506207454457     0.002540595700
    H           -0.363920687802     1.025312826318    -0.856976259415
    H           -0.354963249286     1.016950357812     0.889937831586
    C            2.187876425842     0.298729749594    -0.004484493622
    H            0.851133031368    -1.150263345657    -0.869879000317
    H            0.863259450749    -1.154689409616     0.872360901725
    C            3.438129225456    -0.576699401742     0.010825837640
    H            2.213788229794     0.946897965382    -0.877053262194
    H            2.208445142576     0.959666401485     0.858829672313
    C            4.730836555386     0.221833067776    -0.111069525227
    H            3.378916248714    -1.303316293551    -0.794672973207
    H            3.456202476748    -1.152833819288     0.931887673446
    H            4.763258189780     0.774445326711    -1.043982041456
    H            5.597346880781    -0.428392546485    -0.081644675948
    H            4.826727949616     0.937137530186     0.698997534986

  Mulliken Charges: (a.u.)
   Center  Symbol    Alpha    Beta     Spin     Total
       1     O     4.20243  4.20243  0.00000 -0.40486
       2     C     2.81527  2.81527  0.00000  0.36946
       3     C     3.14004  3.14004  0.00000 -0.28008
       4     O     4.14457  4.14457  0.00000 -0.28914
       5     H     0.44211  0.44211  0.00000  0.11578
       6     H     0.44186  0.44186  0.00000  0.11628
       7     H     0.44213  0.44213  0.00000  0.11574
       8     C     2.97896  2.97896  0.00000  0.04207
       9     C     3.08095  3.08095  0.00000 -0.16189
      10     H     0.45405  0.45405  0.00000  0.09190
      11     H     0.45399  0.45399  0.00000  0.09202
      12     C     3.09781  3.09781  0.00000 -0.19562
      13     H     0.45073  0.45073  0.00000  0.09855
      14     H     0.45085  0.45085  0.00000  0.09830
      15     C     3.08499  3.08499  0.00000 -0.16998
      16     H     0.45315  0.45315  0.00000  0.09369
      17     H     0.45279  0.45279  0.00000  0.09441
      18     C     3.14946  3.14946  0.00000 -0.29893
      19     H     0.45388  0.45388  0.00000  0.09224
      20     H     0.45329  0.45329  0.00000  0.09342
      21     H     0.45453  0.45453  0.00000  0.09094
      22     H     0.44768  0.44768  0.00000  0.10464
      23     H     0.45448  0.45448  0.00000  0.09104

   Total alpha = 36.00000, Total beta = 36.00000, Total charge =  0.00000

*** Psi4 exiting successfully. Buy a developer a beer!
