  ==> Input File <==

--------------------------------------------------------------------------
set {
	reference rhf
	basis 6-31G*
}

set_num_threads( 1 )
memory 2 gb

molecule MOL {
0 1

O	 -0.988096	 -1.408613	 0.050699
C	 -0.676749	 -0.249230	 -0.009274
C	 -1.746085	 0.827156	 -0.009539
N	 0.623947	 0.147590	 -0.102813
H	 -1.701500	 1.431508	 -0.908902
H	 -2.703425	 0.330732	 0.036390
H	 -1.647323	 1.487769	 0.845106
C	 1.348967	 -0.131504	 -1.326876
C	 1.442616	 0.514052	 1.031970
H	 1.999278	 0.704403	 -1.560052
H	 0.650238	 -0.276035	 -2.132375
H	 1.961604	 -1.025016	 -1.228215
H	 2.161917	 1.263079	 0.722772
H	 0.851282	 0.938682	 1.827550
H	 1.993864	 -0.337302	 1.427109

	symmetry c1
}
set optking {
	frozen_dihedral = ("
		2 4 8 10
	")
}

ee = energy('scf')
oeprop('DIPOLE', 'QUADRUPOLE', 'MULLIKEN_CHARGES')
f=open( 'psi4out.xyz', 'w' )
f.write( "15  " )
f.write( str(ee) + "\n" )
f.write( MOL.save_string_xyz() )
f.close()
--------------------------------------------------------------------------

    Molecular point group: c1

    Geometry (in Angstrom), charge = 0, multiplicity = 1:

       Center              X                  Y                   Z               Mass
    ------------   -----------------  -----------------  -----------------  -----------------
           O         -0.999024089454    -1.358249490535     0.112393152209    15.994914619560
           C         -0.687677089454    -0.198866490535     0.052420152209    12.000000000000
           C         -1.757013089454     0.877519509465     0.052155152209    12.000000000000
           N          0.613018910546     0.197953509465    -0.041118847791    14.003074004780
           H         -1.712428089454     1.481871509465    -0.847207847791     1.007825032070
           H         -2.714353089454     0.381095509465     0.098084152209     1.007825032070
           H         -1.658251089454     1.538132509465     0.906800152209     1.007825032070
           C          1.338038910546    -0.081140490535    -1.265181847791    12.000000000000
           C          1.431687910546     0.564415509465     1.093664152209    12.000000000000
           H          1.988349910546     0.754766509465    -1.498357847791     1.007825032070
           H          0.639309910546    -0.225671490535    -2.070680847791     1.007825032070
           H          1.950675910546    -0.974652490535    -1.166520847791     1.007825032070
           H          2.150988910546     1.313442509465     0.784466152209     1.007825032070
           H          0.840353910546     0.989045509465     1.889244152209     1.007825032070
           H          1.982935910546    -0.286938490535     1.488803152209     1.007825032070

  Charge       = 0
  Multiplicity = 1
  Basis Set: 6-31G*
  Basis Set:

    Orbital Energies (a.u.)
    -----------------------

    Doubly Occupied:

       1A    -20.545243     2A    -15.549387     3A    -11.347603
       4A    -11.260168     5A    -11.255061     6A    -11.224783
       7A     -1.398204     8A     -1.234001     9A     -1.007049
      10A     -0.972123    11A     -0.914978    12A     -0.738837
      13A     -0.675504    14A     -0.657763    15A     -0.643890
      16A     -0.598996    17A     -0.581287    18A     -0.576316
      19A     -0.557118    20A     -0.545290    21A     -0.535466
      22A     -0.483817    23A     -0.424393    24A     -0.351410

  @DF-RHF Final Energy:  -285.99639992793016

   => Energetics <=

    Nuclear Repulsion Energy =            250.8837304604578264
    One-Electron Energy =                -885.6027351145971807
    Two-Electron Energy =                 348.7226047262082602
    DFT Exchange-Correlation Energy =       0.0000000000000000
    Empirical Dispersion Energy =           0.0000000000000000
    PCM Polarization Energy =               0.0000000000000000
    EFP Energy =                            0.0000000000000000
    Total Energy =                       -285.9963999279310656

  Mulliken Charges: (a.u.)
   Center  Symbol    Alpha    Beta     Spin     Total
       1     O     4.25294  4.25294  0.00000 -0.50588
       2     C     2.66428  2.66428  0.00000  0.67144
       3     C     3.27866  3.27866  0.00000 -0.55731
       4     N     3.82667  3.82667  0.00000 -0.65334
       5     H     0.40752  0.40752  0.00000  0.18495
       6     H     0.39991  0.39991  0.00000  0.20017
       7     H     0.40950  0.40950  0.00000  0.18101
       8     C     3.13272  3.13272  0.00000 -0.26545
       9     C     3.13320  3.13320  0.00000 -0.26639
      10     H     0.41801  0.41801  0.00000  0.16398
      11     H     0.41166  0.41166  0.00000  0.17667
      12     H     0.41748  0.41748  0.00000  0.16504
      13     H     0.41652  0.41652  0.00000  0.16696
      14     H     0.41415  0.41415  0.00000  0.17170
      15     H     0.41678  0.41678  0.00000  0.16645

   Total alpha = 24.00000, Total beta = 24.00000, Total charge = -0.00000
