  ==> Input File <==

--------------------------------------------------------------------------
set {
	reference rhf
	basis 6-31G*
}

set_num_threads( 1 )
memory 2 gb

molecule MOL {
0 1

H	 -0.000158	 1.970498	 0.756846
O	 -0.000074	 1.880206	 -0.189275
C	 -0.000015	 0.544847	 -0.545111
C	 -1.278788	 -0.123820	 -0.051541
C	 1.278802	 -0.123718	 -0.051505
H	 -0.000001	 0.490777	 -1.623619
F	 -1.302554	 -1.378684	 -0.446882
F	 -1.375309	 -0.108271	 1.261015
F	 -2.346872	 0.477246	 -0.551054
F	 2.323327	 0.466644	 -0.591854
F	 1.326242	 -1.401483	 -0.363667
F	 1.388946	 -0.015632	 1.262939

	symmetry c1
}
set optking {
	frozen_dihedral = ("
		6 3 2 1
	")
}

ee = energy('scf')
oeprop('DIPOLE', 'QUADRUPOLE', 'MULLIKEN_CHARGES')
f=open( 'psi4out.xyz', 'w' )
f.write( "12  " )
f.write( str(ee) + "\n" )
f.write( MOL.save_string_xyz() )
f.close()
--------------------------------------------------------------------------

    Molecular point group: c1

    Geometry (in Angstrom), charge = 0, multiplicity = 1:

       Center              X                  Y                   Z               Mass
    ------------   -----------------  -----------------  -----------------  -----------------
           H         -0.001708241685     1.977154586240     0.761848023958     1.007825032070
           O         -0.001624241685     1.886862586240    -0.184272976042    15.994914619560
           C         -0.001565241685     0.551503586240    -0.540108976042    12.000000000000
           C         -1.280338241685    -0.117163413760    -0.046538976042    12.000000000000
           C          1.277251758315    -0.117061413760    -0.046502976042    12.000000000000
           H         -0.001551241685     0.497433586240    -1.618616976042     1.007825032070
           F         -1.304104241685    -1.372027413760    -0.441879976042    18.998403224000
           F         -1.376859241685    -0.101614413760     1.266017023958    18.998403224000
           F         -2.348422241685     0.483902586240    -0.546051976042    18.998403224000
           F          2.321776758315     0.473300586240    -0.586851976042    18.998403224000
           F          1.324691758315    -1.394826413760    -0.358664976042    18.998403224000
           F          1.387395758315    -0.008975413760     1.267941023958    18.998403224000

  Charge       = 0
  Multiplicity = 1
  Basis Set: 6-31G*
  Basis Set:

    Orbital Energies (a.u.)
    -----------------------

    Doubly Occupied:

       1A    -26.366079     2A    -26.363088     3A    -26.361538
       4A    -26.358900     5A    -26.358517     6A    -26.357258
       7A    -20.616799     8A    -11.526330     9A    -11.525614
      10A    -11.349282    11A     -1.764957    12A     -1.758752
      13A     -1.663118    14A     -1.658027    15A     -1.657197
      16A     -1.653438    17A     -1.435586    18A     -1.101834
      19A     -0.996903    20A     -0.938871    21A     -0.863711
      22A     -0.862909    23A     -0.851773    24A     -0.844425
      25A     -0.831887    26A     -0.815853    27A     -0.744366
      28A     -0.726596    29A     -0.724178    30A     -0.717542
      31A     -0.689614    32A     -0.685607    33A     -0.683185
      34A     -0.674269    35A     -0.669520    36A     -0.663091
      37A     -0.656039    38A     -0.654107    39A     -0.621452
      40A     -0.551010    41A     -0.505733

  @DF-RHF Final Energy:  -786.27751510881956

   => Energetics <=

    Nuclear Repulsion Energy =            670.6270999054514732
    One-Electron Energy =               -2428.1111517725130398
    Two-Electron Energy =                 971.2065367582424642
    DFT Exchange-Correlation Energy =       0.0000000000000000
    Empirical Dispersion Energy =           0.0000000000000000
    PCM Polarization Energy =               0.0000000000000000
    EFP Energy =                            0.0000000000000000
    Total Energy =                       -786.2775151088192160

  Mulliken Charges: (a.u.)
   Center  Symbol    Alpha    Beta     Spin     Total
       1     H     0.26637  0.26637  0.00000  0.46727
       2     O     4.36300  4.36300  0.00000 -0.72601
       3     C     3.04501  3.04501  0.00000 -0.09001
       4     C     2.44695  2.44695  0.00000  1.10610
       5     C     2.44569  2.44569  0.00000  1.10863
       6     H     0.37468  0.37468  0.00000  0.25065
       7     F     4.67545  4.67545  0.00000 -0.35091
       8     F     4.67651  4.67651  0.00000 -0.35302
       9     F     4.67722  4.67722  0.00000 -0.35444
      10     F     4.67477  4.67477  0.00000 -0.34955
      11     F     4.67343  4.67343  0.00000 -0.34685
      12     F     4.68092  4.68092  0.00000 -0.36184

   Total alpha = 41.00000, Total beta = 41.00000, Total charge =  0.00000
