  ==> Input File <==

--------------------------------------------------------------------------
set {
	reference rhf
	basis 6-31G*
}

set_num_threads( 4 )
memory 2 gb

molecule MOL {
0 1

O	 -1.756495	 -0.067919	 2.369589
C	 -0.783024	 0.602316	 2.203537
C	 0.486621	 0.001428	 1.626267
C	 -0.772064	 2.079954	 2.525778
C	 0.379448	 -0.143569	 0.099626
H	 0.620454	 -0.977231	 2.074171
H	 1.348578	 0.611168	 1.881754
C	 1.631333	 -0.777471	 -0.511575
H	 -0.497995	 -0.740319	 -0.122563
H	 0.216836	 0.834404	 -0.350788
C	 2.915987	 -0.544314	 0.291766
H	 1.766672	 -0.399098	 -1.523130
H	 1.471257	 -1.849544	 -0.605828
C	 3.373361	 0.914346	 0.347591
H	 3.708709	 -1.142521	 -0.150311
H	 2.780642	 -0.921148	 1.303579
H	 3.506512	 1.320010	 -0.651625
H	 4.322697	 0.999599	 0.867103
H	 2.660624	 1.545032	 0.868198
H	 -0.089492	 2.268975	 3.350176
H	 -1.765477	 2.406444	 2.800222
H	 -0.415631	 2.655969	 1.676680

	symmetry c1
}
set optking {
	frozen_dihedral = ("
		3 5 8 12
	")
}

ee = optimize('scf')
oeprop('DIPOLE', 'QUADRUPOLE', 'MULLIKEN_CHARGES')
f=open( 'psi4out.xyz', 'w' )
f.write( "22  " )
f.write( str(ee) + "\n" )
f.write( MOL.save_string_xyz() )
f.close()
--------------------------------------------------------------------------

    Molecular point group: c1
  Charge       = 0
  Multiplicity = 1
  Basis Set: 6-31G*
  Basis Set:
  @DF-RHF Final Energy:  -348.08732531311301
    Total Energy =                       -348.0873253131127854
    Molecular point group: c1
  Basis Set: 6-31G*
  Basis Set:
  Basis Set: 6-31G*
  Basis Set:
  @DF-RHF Final Energy:  -348.09084602462832
    Total Energy =                       -348.0908460246284335
  Basis Set: 6-31G*
  Basis Set:
  Basis Set: 6-31G*
  Basis Set:
  @DF-RHF Final Energy:  -348.09160774583808
    Total Energy =                       -348.0916077458383597
  Basis Set: 6-31G*
  Basis Set:
  Basis Set: 6-31G*
  Basis Set:
  @DF-RHF Final Energy:  -348.08967922516160
    Total Energy =                       -348.0896792251616603
  Basis Set: 6-31G*
  Basis Set:
  @DF-RHF Final Energy:  -348.09173385320003
    Total Energy =                       -348.0917338531999121
  @DF-RHF Final Energy:  -348.09162724542432
    Total Energy =                       -348.0916272454246041
  @DF-RHF Final Energy:  -348.09075909350281
    Total Energy =                       -348.0907590935025837
  Basis Set: 6-31G*
  Basis Set:
  @DF-RHF Final Energy:  -348.09167143594215
    Total Energy =                       -348.0916714359421462
  Basis Set: 6-31G*
  Basis Set:
  Basis Set: 6-31G*
  Basis Set:
  @DF-RHF Final Energy:  -348.09174925412555
    Total Energy =                       -348.0917492541253182
  Basis Set: 6-31G*
  Basis Set:
  Basis Set: 6-31G*
  Basis Set:
  @DF-RHF Final Energy:  -348.09175088188306
    Total Energy =                       -348.0917508818830584
  Basis Set: 6-31G*
  Basis Set:
  Charge       = 0
  Multiplicity = 1
  Basis Set: 6-31G*
  Basis Set:

    Orbital Energies (a.u.)
    -----------------------

    Doubly Occupied:

       1A    -20.547248     2A    -11.324502     3A    -11.230209
       4A    -11.228768     5A    -11.228374     6A    -11.223018
       7A    -11.222023     8A    -11.216168     9A     -1.393129
      10A     -1.094814    11A     -1.042397    12A     -0.998823
      13A     -0.943100    14A     -0.863307    15A     -0.778973
      16A     -0.733711    17A     -0.663135    18A     -0.653345
      19A     -0.621103    20A     -0.613541    21A     -0.605122
      22A     -0.576177    23A     -0.562801    24A     -0.552030
      25A     -0.534175    26A     -0.520352    27A     -0.509255
      28A     -0.489840    29A     -0.466023    30A     -0.459814
      31A     -0.456008    32A     -0.397161

  @DF-RHF Final Energy:  -348.09175870116400

   => Energetics <=

    Nuclear Repulsion Energy =            380.5039559556717563
    One-Electron Energy =               -1225.6945378745112976
    Two-Electron Energy =                 497.0988232176755446
    DFT Exchange-Correlation Energy =       0.0000000000000000
    Empirical Dispersion Energy =           0.0000000000000000
    PCM Polarization Energy =               0.0000000000000000
    EFP Energy =                            0.0000000000000000
    Total Energy =                       -348.0917587011640535
    Molecular point group: c1
  Basis Set: 6-31G*
  Basis Set:

  -Total Gradient:
     Atom            X                  Y                   Z
    ------   -----------------  -----------------  -----------------
       1        0.000004286448     0.000000066961     0.000004371108
       2        0.000011724197     0.000011891644     0.000009798308
       3        0.002506346832     0.005036020611    -0.000385533211
       4       -0.000008646551     0.000006766806     0.000003829347
       5       -0.002624193236    -0.006108992571     0.001216861095
       6        0.000001209612     0.000001988945    -0.000005511550
       7       -0.000025412846     0.000003006310     0.000013120130
       8       -0.004272626036    -0.004303526640    -0.003772380717
       9       -0.000001482915    -0.000007211613    -0.000016775079
      10        0.000018428074    -0.000002746742     0.000000213748
      11       -0.000018379343     0.000020645664     0.000009589683
      12        0.004424159962     0.005348201623     0.002931226126
      13       -0.000001444041    -0.000000057808     0.000008872727
      14       -0.000027604536    -0.000014809374     0.000000058313
      15       -0.000010444982     0.000011482074    -0.000010677902
      16        0.000006261388    -0.000008452789     0.000000695963
      17        0.000006271803     0.000007514087    -0.000000680114
      18        0.000004566940    -0.000000426840     0.000005805040
      19        0.000012347046    -0.000004612308    -0.000010022976
      20       -0.000002344709    -0.000007712737    -0.000004370355
      21       -0.000002719728     0.000006915632     0.000001075153
      22       -0.000000303376     0.000004049063     0.000000435162

  **** Optimization is complete! (in 11 steps) ****
    Final optimized geometry and variables:
    Molecular point group: c1

    Geometry (in Angstrom), charge = 0, multiplicity = 1:

    O           -2.531917447011    -0.361081852880     1.176120452123
    C           -1.559563386381     0.325155348867     1.088575572843
    C           -0.242163992198    -0.246383132169     0.591939137482
    C           -1.590927564212     1.795051503235     1.444637431980
    C           -0.261941071198    -0.360289574452    -0.942796286380
    H           -0.127631120802    -1.229145820195     1.037392537352
    H            0.582891527352     0.372573389489     0.922278414405
    C            0.974976601582    -1.023506811051    -1.590942296101
    H           -1.150320534401    -0.909089352858    -1.233798013075
    H           -0.379129502925     0.641312940900    -1.351365586287
    C            2.320056699151    -0.839994433752    -0.870702733164
    H            1.107076542258    -0.589982692746    -2.579001310172
    H            0.788565571281    -2.085495449541    -1.715185283648
    C            2.862796087488     0.589853870762    -0.925249526030
    H            3.043198200313    -1.497873862243    -1.345946322433
    H            2.251779979496    -1.172092161573     0.161003173011
    H            3.013716945954     0.905647484167    -1.953798253594
    H            3.818190271932     0.663454980654    -0.414999631075
    H            2.189320914672     1.304121328805    -0.461952903830
    H           -0.971353302268     1.972058726083     2.319877640362
    H           -2.605549085927     2.103239617195     1.655133716320
    H           -1.182960097934     2.395611216697     0.636712694166

  Mulliken Charges: (a.u.)
   Center  Symbol    Alpha    Beta     Spin     Total
       1     O     4.26251  4.26251  0.00000 -0.52503
       2     C     2.73633  2.73633  0.00000  0.52734
       3     C     3.20414  3.20414  0.00000 -0.40829
       4     C     3.28991  3.28991  0.00000 -0.57982
       5     C     3.16593  3.16593  0.00000 -0.33185
       6     H     0.40148  0.40148  0.00000  0.19704
       7     H     0.41362  0.41362  0.00000  0.17276
       8     C     3.15425  3.15425  0.00000 -0.30851
       9     H     0.40224  0.40224  0.00000  0.19553
      10     H     0.42080  0.42080  0.00000  0.15839
      11     C     3.15864  3.15864  0.00000 -0.31729
      12     H     0.41970  0.41970  0.00000  0.16061
      13     H     0.41592  0.41592  0.00000  0.16816
      14     C     3.24123  3.24123  0.00000 -0.48247
      15     H     0.41788  0.41788  0.00000  0.16423
      16     H     0.42029  0.42029  0.00000  0.15942
      17     H     0.42031  0.42031  0.00000  0.15938
      18     H     0.41752  0.41752  0.00000  0.16496
      19     H     0.42367  0.42367  0.00000  0.15265
      20     H     0.40691  0.40691  0.00000  0.18618
      21     H     0.39690  0.39690  0.00000  0.20620
      22     H     0.40979  0.40979  0.00000  0.18042

   Total alpha = 32.00000, Total beta = 32.00000, Total charge =  0.00000
