  ==> Input File <==

--------------------------------------------------------------------------
set {
	reference rhf
	basis 6-31G*
}

set_num_threads( 4 )
memory 2 gb

molecule MOL {
0 1

H	 -1.992153	 -0.909291	 -2.640912
N	 -1.074840	 -1.026700	 -2.256559
C	 -1.146965	 -1.359318	 -0.844728
H	 -0.589720	 -0.157961	 -2.370843
C	 0.248921	 -1.494998	 -0.273564
H	 -1.692708	 -0.626737	 -0.248496
H	 -1.657776	 -2.311430	 -0.738251
O	 0.874168	 -0.245412	 -0.342030
H	 0.201163	 -1.833499	 0.761218
H	 0.809332	 -2.229277	 -0.848028
C	 2.202317	 -0.244239	 0.074611
H	 2.711377	 -1.041390	 -0.449894
H	 2.692099	 0.699270	 -0.159667
H	 2.283185	 -0.418429	 1.145558

	symmetry c1
}
set optking {
	frozen_dihedral = ("
		5 8 11 13
	")
}

ee = optimize('scf')
oeprop('DIPOLE', 'QUADRUPOLE', 'MULLIKEN_CHARGES')
f=open( 'psi4out.xyz', 'w' )
f.write( "14  " )
f.write( str(ee) + "\n" )
f.write( MOL.save_string_xyz() )
f.close()
--------------------------------------------------------------------------

    Molecular point group: c1
  Charge       = 0
  Multiplicity = 1
  Basis Set: 6-31G*
  Basis Set:
  @DF-RHF Final Energy:  -248.12392098993595
    Total Energy =                       -248.1239209899360389
    Molecular point group: c1
  Basis Set: 6-31G*
  Basis Set:
  Basis Set: 6-31G*
  Basis Set:
  @DF-RHF Final Energy:  -248.12476016663749
    Total Energy =                       -248.1247601666373157
  Basis Set: 6-31G*
  Basis Set:
  Basis Set: 6-31G*
  Basis Set:
  @DF-RHF Final Energy:  -248.12501247218310
    Total Energy =                       -248.1250124721831298
  Basis Set: 6-31G*
  Basis Set:
  Basis Set: 6-31G*
  Basis Set:
  @DF-RHF Final Energy:  -248.12501356401711
    Total Energy =                       -248.1250135640172516
  Basis Set: 6-31G*
  Basis Set:
  Charge       = 0
  Multiplicity = 1
  Basis Set: 6-31G*
  Basis Set:

    Orbital Energies (a.u.)
    -----------------------

    Doubly Occupied:

       1A    -20.557314     2A    -15.528399     3A    -11.266219
       4A    -11.265703     5A    -11.240775     6A     -1.381197
       7A     -1.173571     8A     -0.999083     9A     -0.907245
      10A     -0.815194    11A     -0.683598    12A     -0.673991
      13A     -0.645194    14A     -0.610462    15A     -0.605151
      16A     -0.540508    17A     -0.530360    18A     -0.496877
      19A     -0.472557    20A     -0.417446    21A     -0.380058

  @DF-RHF Final Energy:  -248.12501391757826

   => Energetics <=

    Nuclear Repulsion Energy =            194.6591826525065585
    One-Electron Energy =                -723.1865868117481568
    Two-Electron Energy =                 280.4023902416631699
    DFT Exchange-Correlation Energy =       0.0000000000000000
    Empirical Dispersion Energy =           0.0000000000000000
    PCM Polarization Energy =               0.0000000000000000
    EFP Energy =                            0.0000000000000000
    Total Energy =                       -248.1250139175783715
    Molecular point group: c1
  Basis Set: 6-31G*
  Basis Set:

  -Total Gradient:
     Atom            X                  Y                   Z
    ------   -----------------  -----------------  -----------------
       1       -0.000000348749    -0.000002614145     0.000004102922
       2        0.000001982597    -0.000002930874     0.000004563573
       3       -0.000005976281     0.000007091617    -0.000001241808
       4        0.000000053553    -0.000003865362     0.000005093070
       5        0.000350493208    -0.000243527519    -0.001121458775
       6       -0.000000289275    -0.000000021119    -0.000003050996
       7       -0.000003668328    -0.000000870616    -0.000004123867
       8       -0.000400666770     0.000216366190     0.001275419226
       9        0.000002264256     0.000007125390    -0.000002809887
      10        0.000003869334     0.000002798826     0.000001260165
      11       -0.000341074083     0.000559410263     0.001151390649
      12       -0.000000544737    -0.000002049538    -0.000001305208
      13        0.000400979806    -0.000540248359    -0.001301044895
      14       -0.000007074535     0.000003335246    -0.000006794174

  **** Optimization is complete! (in 5 steps) ****
    Final optimized geometry and variables:
    Molecular point group: c1

    Geometry (in Angstrom), charge = 0, multiplicity = 1:

    H           -2.225254633193    -0.035402121366    -1.903549393083
    N           -1.308432335951    -0.159530771170    -1.520223177434
    C           -1.381319122600    -0.495382690877    -0.109140867064
    H           -0.818006280295     0.706413615551    -1.632783191968
    C            0.014132725758    -0.640342779038     0.460988398876
    H           -1.922914348610     0.238437569839     0.489281000141
    H           -1.897045022605    -1.445034416161    -0.004726056270
    O            0.646836499802     0.605412226760     0.392011967483
    H           -0.035791645356    -0.980734134920     1.495206119225
    H            0.570135912588    -1.376555811110    -0.114829786674
    C            1.975103682184     0.603323820221     0.809563763651
    H            2.546198098118    -0.177516545140     0.311637665300
    H            2.403975285079     1.560909794478     0.547066812147
    H            2.054388192423     0.456942320345     1.884970418066

  Mulliken Charges: (a.u.)
   Center  Symbol    Alpha    Beta     Spin     Total
       1     H     0.33283  0.33283  0.00000  0.33434
       2     N     3.92528  3.92528  0.00000 -0.85057
       3     C     3.06896  3.06896  0.00000 -0.13791
       4     H     0.32371  0.32371  0.00000  0.35258
       5     C     2.99008  2.99008  0.00000  0.01983
       6     H     0.42660  0.42660  0.00000  0.14679
       7     H     0.42045  0.42045  0.00000  0.15909
       8     O     4.31005  4.31005  0.00000 -0.62010
       9     H     0.43125  0.43125  0.00000  0.13750
      10     H     0.42223  0.42223  0.00000  0.15553
      11     C     3.07861  3.07861  0.00000 -0.15721
      12     H     0.42839  0.42839  0.00000  0.14321
      13     H     0.41275  0.41275  0.00000  0.17451
      14     H     0.42879  0.42879  0.00000  0.14242

   Total alpha = 21.00000, Total beta = 21.00000, Total charge = -0.00000
