  ==> Input File <==

--------------------------------------------------------------------------
set {
	reference rhf
	basis 6-31G*
}

set_num_threads( 1 )
memory 2 gb

molecule MOL {
0 1

H	 3.893188	 0.355400	 -0.101367
N	 3.092854	 -0.246221	 -0.068770
C	 1.865559	 0.531981	 0.018834
H	 3.199514	 -0.826043	 0.741946
C	 0.645745	 -0.382037	 -0.029944
H	 1.841966	 1.207024	 -0.831236
H	 1.815756	 1.155410	 0.915079
C	 -0.679275	 0.379305	 0.025956
H	 0.698998	 -0.976915	 -0.937203
H	 0.693479	 -1.083846	 0.802235
C	 -1.781821	 -0.383201	 0.763080
H	 -1.012702	 0.598036	 -0.987371
H	 -0.526044	 1.342525	 0.510285
C	 -3.105182	 0.379517	 0.812964
H	 -1.937578	 -1.345357	 0.280163
H	 -1.452503	 -0.600913	 1.776888
H	 -3.478471	 0.582728	 -0.186875
H	 -3.866293	 -0.186627	 1.340974
H	 -2.989737	 1.332641	 1.321508

	symmetry c1
}
set optking {
	frozen_dihedral = ("
		6 3 5 9,
		12 8 11 15,
		1 2 3 6
	")
}

ee = energy('scf')
oeprop('DIPOLE', 'QUADRUPOLE', 'MULLIKEN_CHARGES')
f=open( 'psi4out.xyz', 'w' )
f.write( "19  " )
f.write( str(ee) + "\n" )
f.write( MOL.save_string_xyz() )
f.close()
--------------------------------------------------------------------------

    Molecular point group: c1

    Geometry (in Angstrom), charge = 0, multiplicity = 1:

       Center              X                  Y                   Z               Mass
    ------------   -----------------  -----------------  -----------------  -----------------
           H          3.852949907152     0.304597372158    -0.363224695897     1.007825032070
           N          3.052615907152    -0.297023627842    -0.330627695897    14.003074004780
           C          1.825320907152     0.481178372158    -0.243023695897    12.000000000000
           H          3.159275907152    -0.876845627842     0.480088304103     1.007825032070
           C          0.605506907152    -0.432839627842    -0.291801695897    12.000000000000
           H          1.801727907152     1.156221372158    -1.093093695897     1.007825032070
           H          1.775517907152     1.104607372158     0.653221304103     1.007825032070
           C         -0.719513092848     0.328502372158    -0.235901695897    12.000000000000
           H          0.658759907152    -1.027717627842    -1.199060695897     1.007825032070
           H          0.653240907152    -1.134648627842     0.540377304103     1.007825032070
           C         -1.822059092848    -0.434003627842     0.501222304103    12.000000000000
           H         -1.052940092848     0.547233372158    -1.249228695897     1.007825032070
           H         -0.566282092848     1.291722372158     0.248427304103     1.007825032070
           C         -3.145420092848     0.328714372158     0.551106304103    12.000000000000
           H         -1.977816092848    -1.396159627842     0.018305304103     1.007825032070
           H         -1.492741092848    -0.651715627842     1.515030304103     1.007825032070
           H         -3.518709092848     0.531925372158    -0.448732695897     1.007825032070
           H         -3.906531092848    -0.237429627842     1.079116304103     1.007825032070
           H         -3.029975092848     1.281838372158     1.059650304103     1.007825032070

  Charge       = 0
  Multiplicity = 1
  Basis Set: 6-31G*
  Basis Set:

    Orbital Energies (a.u.)
    -----------------------

    Doubly Occupied:

       1A    -15.532347     2A    -11.240057     3A    -11.214471
       4A    -11.211897     5A    -11.208491     6A    -11.207477
       7A     -1.176574     8A     -1.073133     9A     -0.998227
      10A     -0.900016    11A     -0.814107    12A     -0.789376
      13A     -0.664216    14A     -0.640915    15A     -0.614590
      16A     -0.592841    17A     -0.561467    18A     -0.548749
      19A     -0.534991    20A     -0.493434    21A     -0.485606
      22A     -0.465517    23A     -0.458097    24A     -0.447625
      25A     -0.381288

  @DF-RHF Final Energy:  -251.34868375835637

   => Energetics <=

    Nuclear Repulsion Energy =            246.0750524015554959
    One-Electron Energy =                -826.3363406230482724
    Two-Electron Energy =                 328.9126044631362902
    DFT Exchange-Correlation Energy =       0.0000000000000000
    Empirical Dispersion Energy =           0.0000000000000000
    PCM Polarization Energy =               0.0000000000000000
    EFP Energy =                            0.0000000000000000
    Total Energy =                       -251.3486837583565148

  Mulliken Charges: (a.u.)
   Center  Symbol    Alpha    Beta     Spin     Total
       1     H     0.33255  0.33255  0.00000  0.33490
       2     N     3.92208  3.92208  0.00000 -0.84417
       3     C     3.06220  3.06220  0.00000 -0.12440
       4     H     0.33529  0.33529  0.00000  0.32943
       5     C     3.15256  3.15256  0.00000 -0.30513
       6     H     0.42059  0.42059  0.00000  0.15882
       7     H     0.43445  0.43445  0.00000  0.13110
       8     C     3.15614  3.15614  0.00000 -0.31228
       9     H     0.41147  0.41147  0.00000  0.17707
      10     H     0.42662  0.42662  0.00000  0.14677
      11     C     3.15256  3.15256  0.00000 -0.30513
      12     H     0.42085  0.42085  0.00000  0.15829
      13     H     0.42418  0.42418  0.00000  0.15165
      14     C     3.23969  3.23969  0.00000 -0.47938
      15     H     0.42182  0.42182  0.00000  0.15636
      16     H     0.42359  0.42359  0.00000  0.15283
      17     H     0.42162  0.42162  0.00000  0.15675
      18     H     0.41957  0.41957  0.00000  0.16087
      19     H     0.42217  0.42217  0.00000  0.15566

   Total alpha = 25.00000, Total beta = 25.00000, Total charge =  0.00000
