                              Psi4 1.0.54 Driver

  ==> Input File <==

--------------------------------------------------------------------------
set {
	reference rhf
	basis cc-pvtz
}

set_num_threads( 4 )
memory 2 gb

molecule MOL {
0 1

H	 2.307179	 -0.154739	 -0.313106
O	 1.583947	 -0.677544	 -0.001533
C	 0.489979	 0.078084	 0.002623
C	 -0.763662	 -0.754014	 0.000816
O	 0.539051	 1.259395	 -0.000088
C	 -2.038001	 0.074705	 -0.000833
H	 -0.712945	 -1.405886	 -0.864342
H	 -0.715137	 -1.405770	 0.866182
H	 -2.087267	 0.710831	 -0.874232
H	 -2.903419	 -0.576199	 -0.001922
H	 -2.089467	 0.710909	 0.872389

	symmetry c1
}
set optking {
	frozen_dihedral = ("
		1 2 3 5
	")
}

ee,wfn = optimize('scf', return_wfn=True)
oeprop( wfn, 'DIPOLE', 'QUADRUPOLE', 'MULLIKEN_CHARGES')
f=open( 'psi4out.xyz', 'w' )
f.write( "11  " )
f.write( str(ee) + "\n" )
f.write( MOL.save_string_xyz() )
f.close()
--------------------------------------------------------------------------

    Molecular point group: c1
  Charge       = 0
  Multiplicity = 1
  Basis Set: CC-PVTZ
  Basis Set:
  @DF-RHF Final Energy:  -266.95091950639267
    Total Energy =                       -266.9509195063927791
    Molecular point group: c1
  Basis Set: CC-PVTZ
  Basis Set:
  Basis Set: CC-PVTZ
  Basis Set:
  @DF-RHF Final Energy:  -266.94712303094047
    Total Energy =                       -266.9471230309405314
  Basis Set: CC-PVTZ
  Basis Set:
  Basis Set: CC-PVTZ
  Basis Set:
  @DF-RHF Final Energy:  -266.95112857003210
    Total Energy =                       -266.9511285700321537
  Basis Set: CC-PVTZ
  Basis Set:
  Basis Set: CC-PVTZ
  Basis Set:
  @DF-RHF Final Energy:  -266.95119553763823
    Total Energy =                       -266.9511955376383412
  Basis Set: CC-PVTZ
  Basis Set:
  @DF-RHF Final Energy:  -266.95120142708106
    Total Energy =                       -266.9512014270810027
  @DF-RHF Final Energy:  -266.95107057920893
    Total Energy =                       -266.9510705792087606
  Basis Set: CC-PVTZ
  Basis Set:
  @DF-RHF Final Energy:  -266.95119572907589
    Total Energy =                       -266.9511957290759483
  Basis Set: CC-PVTZ
  Basis Set:
  Basis Set: CC-PVTZ
  Basis Set:
  @DF-RHF Final Energy:  -266.95119255177485
    Total Energy =                       -266.9511925517749091
  Basis Set: CC-PVTZ
  Basis Set:
  Basis Set: CC-PVTZ
  Basis Set:
  @DF-RHF Final Energy:  -266.95120422149398
    Total Energy =                       -266.9512042214938674
  Basis Set: CC-PVTZ
  Basis Set:
  Charge       = 0
  Multiplicity = 1
  Basis Set: CC-PVTZ
  Basis Set:

    Orbital Energies (a.u.)
    -----------------------

    Doubly Occupied:

       1A    -20.603315     2A    -20.542607     3A    -11.374445
       4A    -11.242731     5A    -11.218695     6A     -1.476867
       7A     -1.370742     8A     -1.066220     9A     -0.918240
      10A     -0.803994    11A     -0.706573    12A     -0.692469
      13A     -0.664361    14A     -0.604127    15A     -0.589215
      16A     -0.532765    17A     -0.527158    18A     -0.505915
      19A     -0.486084    20A     -0.448859

  @DF-RHF Final Energy:  -266.95120460150525

   => Energetics <=

    Nuclear Repulsion Energy =            180.0890880090516930
    One-Electron Energy =                -721.3298189934914717
    Two-Electron Energy =                 274.2895263829345254
    DFT Exchange-Correlation Energy =       0.0000000000000000
    Empirical Dispersion Energy =           0.0000000000000000
    PCM Polarization Energy =               0.0000000000000000
    EFP Energy =                            0.0000000000000000
    Total Energy =                       -266.9512046015052533
    Molecular point group: c1
  Basis Set: CC-PVTZ
  Basis Set:

  -Total Gradient:
     Atom            X                  Y                   Z
    ------   -----------------  -----------------  -----------------
       1       -0.001024354685    -0.002287060198    -0.006467339340
       2        0.001063064604     0.002951059705     0.010732621374
       3        0.000252991651    -0.000671458270    -0.010243218232
       4       -0.000012970466    -0.000061475168    -0.000091349371
       5       -0.000294537423     0.000056427567     0.006081468037
       6        0.000000390387    -0.000008522447    -0.000021550678
       7        0.000015651225    -0.000014568652     0.000013648458
       8       -0.000007399067     0.000027618814    -0.000003719804
       9       -0.000002310651     0.000001671836    -0.000008351876
      10        0.000009686870     0.000005505628    -0.000000455199
      11       -0.000000212442     0.000000801187     0.000008246632

  **** Optimization is complete! (in 10 steps) ****
    Final optimized geometry and variables:
    Molecular point group: c1

    Geometry (in Angstrom), charge = 0, multiplicity = 1:

    H            2.330535891239    -0.159229941205    -0.224002362751
    O            1.589101387331    -0.665927362960     0.070064957353
    C            0.489700260701     0.081794525801    -0.025237720178
    C           -0.759344139703    -0.756549844178     0.011730952557
    O            0.531155308001     1.260852970547    -0.083477596714
    C           -2.038621073613     0.063899619673     0.037083703186
    H           -0.726119931196    -1.411546987857    -0.852442935355
    H           -0.684225630202    -1.405387931040     0.877161180447
    H           -2.112267730696     0.696881603437    -0.836827410024
    H           -2.900011302933    -0.592076044885     0.058832407298
    H           -2.073808336149     0.702812337198     0.909420907707

  Mulliken Charges: (a.u.)
   Center  Symbol    Alpha    Beta     Spin     Total
       1     H     0.38110  0.38110  0.00000  0.23780
       2     O     4.16319  4.16319  0.00000 -0.32637
       3     C     2.80349  2.80349  0.00000  0.39302
       4     C     3.10069  3.10069  0.00000 -0.20138
       5     O     4.18731  4.18731  0.00000 -0.37462
       6     C     3.13899  3.13899  0.00000 -0.27798
       7     H     0.44113  0.44113  0.00000  0.11774
       8     H     0.43874  0.43874  0.00000  0.12253
       9     H     0.44762  0.44762  0.00000  0.10475
      10     H     0.44970  0.44970  0.00000  0.10061
      11     H     0.44804  0.44804  0.00000  0.10392

   Total alpha = 20.00000, Total beta = 20.00000, Total charge = -0.00000

*** Psi4 exiting successfully. Buy a developer a beer!
