                              Psi4 1.0.54 Driver

  ==> Input File <==

--------------------------------------------------------------------------
set {
	reference rhf
	basis cc-pvtz
}

set_num_threads( 4 )
memory 2 gb

molecule MOL {
0 1

H	 1.503921	 1.319656	 0.000039
C	 0.848510	 0.439936	 0.000011
C	 -0.623372	 0.750949	 0.000090
O	 1.313145	 -0.646967	 -0.000083
C	 -1.523600	 -0.474395	 -0.000013
H	 -0.813018	 1.382860	 -0.864897
H	 -0.812946	 1.382644	 0.865253
H	 -1.342855	 -1.087420	 -0.873016
H	 -2.565144	 -0.177536	 0.000070
H	 -1.342773	 -1.087636	 0.872820

	symmetry c1
}
ee,wfn = energy('scf', return_wfn=True)
oeprop( wfn, 'DIPOLE', 'QUADRUPOLE', 'MULLIKEN_CHARGES')
oeprop( wfn, 'GRID_ESP')
f=open( 'psi4out.xyz', 'w' )
f.write( "10  " )
f.write( str(ee) + "\n" )
f.write( MOL.save_string_xyz() )
f.close()
--------------------------------------------------------------------------

    Molecular point group: c1

    Geometry (in Angstrom), charge = 0, multiplicity = 1:

       Center              X                  Y                   Z               Mass
    ------------   -----------------  -----------------  -----------------  -----------------
           H          1.503796250245     1.319727957139     0.000039008149     1.007825032070
           C          0.848385250245     0.440007957139     0.000011008149    12.000000000000
           C         -0.623496749755     0.751020957139     0.000090008149    12.000000000000
           O          1.313020250245    -0.646895042861    -0.000082991851    15.994914619560
           C         -1.523724749755    -0.474323042861    -0.000012991851    12.000000000000
           H         -0.813142749755     1.382931957139    -0.864896991851     1.007825032070
           H         -0.813070749755     1.382715957139     0.865253008149     1.007825032070
           H         -1.342979749755    -1.087348042861    -0.873015991851     1.007825032070
           H         -2.565268749755    -0.177464042861     0.000070008149     1.007825032070
           H         -1.342897749755    -1.087564042861     0.872820008149     1.007825032070

  Charge       = 0
  Multiplicity = 1
  Basis Set: CC-PVTZ
  Basis Set:

    Orbital Energies (a.u.)
    -----------------------

    Doubly Occupied:

       1A    -20.553706     2A    -11.323339     3A    -11.239853
       4A    -11.218078     5A     -1.409214     6A     -1.061915
       7A     -0.911771     8A     -0.774027     9A     -0.685917
      10A     -0.636677    11A     -0.634205    12A     -0.543700
      13A     -0.535536    14A     -0.520304    15A     -0.495625
      16A     -0.417072

  @DF-RHF Final Energy:  -192.02485122286024

   => Energetics <=

    Nuclear Repulsion Energy =            119.3781063811429988
    One-Electron Energy =                -496.8839419108512629
    Two-Electron Energy =                 185.4809843068479154
    DFT Exchange-Correlation Energy =       0.0000000000000000
    Empirical Dispersion Energy =           0.0000000000000000
    PCM Polarization Energy =               0.0000000000000000
    EFP Energy =                            0.0000000000000000
    Total Energy =                       -192.0248512228603772

  Mulliken Charges: (a.u.)
   Center  Symbol    Alpha    Beta     Spin     Total
       1     H     0.45353  0.45353  0.00000  0.09293
       2     C     2.91604  2.91604  0.00000  0.16791
       3     C     3.08390  3.08390  0.00000 -0.16780
       4     O     4.16468  4.16468  0.00000 -0.32935
       5     C     3.14054  3.14054  0.00000 -0.28108
       6     H     0.44842  0.44842  0.00000  0.10317
       7     H     0.44842  0.44842  0.00000  0.10316
       8     H     0.44750  0.44750  0.00000  0.10500
       9     H     0.44948  0.44948  0.00000  0.10104
      10     H     0.44750  0.44750  0.00000  0.10501

   Total alpha = 16.00000, Total beta = 16.00000, Total charge = -0.00000

*** Psi4 exiting successfully. Buy a developer a beer!
