                              Psi4 1.0.54 Driver

  ==> Input File <==

--------------------------------------------------------------------------
set {
	reference rhf
	basis cc-pvtz
}

set_num_threads( 4 )
memory 2 gb

molecule MOL {
0 1

O	 -1.278239	 1.034789	 -0.784693
C	 -1.204115	 0.062668	 -0.112312
C	 -2.386398	 -0.667698	 0.460323
O	 -0.068058	 -0.518372	 0.226882
H	 -2.382952	 -1.693172	 0.114333
H	 -3.296656	 -0.175702	 0.158400
H	 -2.312537	 -0.685191	 1.540100
C	 1.169086	 0.037484	 -0.230612
C	 0.885420	 1.489306	 -0.560551
C	 1.680469	 -0.753093	 -1.421445
H	 1.880595	 -0.026657	 0.578542
H	 0.518446	 2.015195	 0.311527
H	 1.791957	 1.976988	 -0.898291
H	 0.141821	 1.566779	 -1.344767
H	 2.611000	 -0.326071	 -1.776780
H	 1.864009	 -1.782882	 -1.148505
H	 0.961117	 -0.726822	 -2.232078

	symmetry c1
}
set optking {
	frozen_dihedral = ("
		11 8 4 2
	")
}

ee,wfn = optimize('scf', return_wfn=True)
oeprop( wfn, 'DIPOLE', 'QUADRUPOLE', 'MULLIKEN_CHARGES')
f=open( 'psi4out.xyz', 'w' )
f.write( "17  " )
f.write( str(ee) + "\n" )
f.write( MOL.save_string_xyz() )
f.close()
--------------------------------------------------------------------------

    Molecular point group: c1
  Charge       = 0
  Multiplicity = 1
  Basis Set: CC-PVTZ
  Basis Set:
  @DF-RHF Final Energy:  -344.98637595904893
    Total Energy =                       -344.9863759590491554
    Molecular point group: c1
  Basis Set: CC-PVTZ
  Basis Set:
  Basis Set: CC-PVTZ
  Basis Set:
  @DF-RHF Final Energy:  -344.92706887683198
    Total Energy =                       -344.9270688768322088
  Basis Set: CC-PVTZ
  Basis Set:
  Basis Set: CC-PVTZ
  Basis Set:
  @DF-RHF Final Energy:  -345.01123717358058
    Total Energy =                       -345.0112371735804118
  Basis Set: CC-PVTZ
  Basis Set:
  Basis Set: CC-PVTZ
  Basis Set:
  @DF-RHF Final Energy:  -345.03131590579108
    Total Energy =                       -345.0313159057910184
  Basis Set: CC-PVTZ
  Basis Set:
  @DF-RHF Final Energy:  -345.03267496361286
    Total Energy =                       -345.0326749636125214
  @DF-RHF Final Energy:  -345.02938220453700
    Total Energy =                       -345.0293822045366596
  @DF-RHF Final Energy:  -345.03336304406690
    Total Energy =                       -345.0333630440668458
  @DF-RHF Final Energy:  -345.03347742739055
    Total Energy =                       -345.0334774273907783
  Basis Set: CC-PVTZ
  Basis Set:
  @DF-RHF Final Energy:  -345.03349094149559
    Total Energy =                       -345.0334909414958133
  Basis Set: CC-PVTZ
  Basis Set:
  Basis Set: CC-PVTZ
  Basis Set:
  @DF-RHF Final Energy:  -345.03349490156739
    Total Energy =                       -345.0334949015672237
  Basis Set: CC-PVTZ
  Basis Set:
  Basis Set: CC-PVTZ
  Basis Set:
  @DF-RHF Final Energy:  -345.03349902038860
    Total Energy =                       -345.0334990203886036
  Basis Set: CC-PVTZ
  Basis Set:
  Charge       = 0
  Multiplicity = 1
  Basis Set: CC-PVTZ
  Basis Set:

    Orbital Energies (a.u.)
    -----------------------

    Doubly Occupied:

       1A    -20.587625     2A    -20.527874     3A    -11.366497
       4A    -11.294493     5A    -11.228030     6A    -11.217077
       7A    -11.211318     8A     -1.462031     9A     -1.363107
      10A     -1.079348    11A     -1.002889    12A     -0.947079
      13A     -0.868071    14A     -0.735931    15A     -0.693052
      16A     -0.675117    17A     -0.661309    18A     -0.618065
      19A     -0.584020    20A     -0.580339    21A     -0.567974
      22A     -0.550897    23A     -0.531184    24A     -0.518445
      25A     -0.506598    26A     -0.481871    27A     -0.444397
      28A     -0.430891

  @DF-RHF Final Energy:  -345.03350000192580

   => Energetics <=

    Nuclear Repulsion Energy =            325.3370756277072928
    One-Electron Energy =               -1115.2700884520804721
    Two-Electron Energy =                 444.8995128224470932
    DFT Exchange-Correlation Energy =       0.0000000000000000
    Empirical Dispersion Energy =           0.0000000000000000
    PCM Polarization Energy =               0.0000000000000000
    EFP Energy =                            0.0000000000000000
    Total Energy =                       -345.0335000019261429
    Molecular point group: c1
  Basis Set: CC-PVTZ
  Basis Set:

  -Total Gradient:
     Atom            X                  Y                   Z
    ------   -----------------  -----------------  -----------------
       1       -0.000062988529    -0.000048192140    -0.000014102676
       2        0.001714881749     0.001148175823     0.004193502946
       3        0.000025183538     0.000063703782     0.000026984620
       4       -0.002888574603    -0.001314589656    -0.005983296772
       5       -0.000017219930    -0.000037339383    -0.000042993963
       6       -0.000009755882     0.000008393202     0.000004776394
       7        0.000031735063    -0.000021962937     0.000003001108
       8        0.001958918003    -0.002795578907    -0.001829115086
       9        0.000134901387     0.000023234114    -0.000052407841
      10       -0.000228013752    -0.000033063183    -0.000001349970
      11       -0.000640811093     0.002997405406     0.003700053733
      12        0.000015783841     0.000002245140    -0.000027792575
      13       -0.000039927307     0.000015392310     0.000021196406
      14       -0.000016631442     0.000003107048    -0.000008388652
      15        0.000013664135     0.000006454338     0.000045651596
      16       -0.000010417223     0.000004883093     0.000001677299
      17        0.000019272046    -0.000022268050    -0.000037396565

  **** Optimization is complete! (in 12 steps) ****
    Final optimized geometry and variables:
    Molecular point group: c1

    Geometry (in Angstrom), charge = 0, multiplicity = 1:

    O           -1.487526903809     0.536482560155     0.463532752899
    C           -0.840236865208    -0.439637029181     0.632458297599
    C           -1.302890361796    -1.625315904807     1.435921105234
    O            0.360821718321    -0.657563341449     0.132666127579
    H           -1.271502100580    -2.516289006041     0.822467987652
    H           -2.305828413319    -1.452084666340     1.790981646599
    H           -0.633153222593    -1.779397212730     2.272445151177
    C            1.200964741848     0.314337096162    -0.513252393788
    C            0.959412655216     1.767953093527    -0.130152799448
    C            1.138911412955     0.078625462014    -2.009697076572
    H            2.179264535762     0.059147509620    -0.129508731527
    H            0.908139491446     1.888789368535     0.943807039050
    H            1.807967496214     2.339939957560    -0.489734493331
    H            0.057419687734     2.169809580436    -0.560965089962
    H            1.859705830258     0.708899078459    -2.517141244608
    H            1.361534628437    -0.954483934518    -2.243344610634
    H            0.151863090516     0.314697550479    -2.388921533969

  Mulliken Charges: (a.u.)
   Center  Symbol    Alpha    Beta     Spin     Total
       1     O     4.19892  4.19892  0.00000 -0.39785
       2     C     2.80463  2.80463  0.00000  0.39073
       3     C     3.13774  3.13774  0.00000 -0.27547
       4     O     4.16428  4.16428  0.00000 -0.32855
       5     H     0.44540  0.44540  0.00000  0.10921
       6     H     0.43926  0.43926  0.00000  0.12149
       7     H     0.44755  0.44755  0.00000  0.10489
       8     C     2.93785  2.93785  0.00000  0.12430
       9     C     3.15741  3.15741  0.00000 -0.31482
      10     C     3.14680  3.14680  0.00000 -0.29359
      11     H     0.44237  0.44237  0.00000  0.11526
      12     H     0.44555  0.44555  0.00000  0.10891
      13     H     0.45108  0.45108  0.00000  0.09784
      14     H     0.43558  0.43558  0.00000  0.12884
      15     H     0.45210  0.45210  0.00000  0.09581
      16     H     0.44632  0.44632  0.00000  0.10736
      17     H     0.44717  0.44717  0.00000  0.10566

   Total alpha = 28.00000, Total beta = 28.00000, Total charge = -0.00000

*** Psi4 exiting successfully. Buy a developer a beer!
