                              Psi4 1.0.54 Driver

  ==> Input File <==

--------------------------------------------------------------------------
set {
	reference rhf
	basis cc-pvtz
}

set_num_threads( 4 )
memory 2 gb

molecule MOL {
0 1

H	 -2.981395	 0.604128	 -1.147299
O	 -2.176450	 0.111177	 -1.200030
C	 -1.605397	 0.107680	 0.001145
C	 -0.310616	 -0.658853	 0.000791
O	 -2.089758	 0.656840	 0.929470
C	 0.926581	 0.227233	 0.000178
H	 -0.327628	 -1.313681	 -0.864448
H	 -0.327041	 -1.313334	 0.866298
C	 2.220156	 -0.582071	 -0.000088
H	 0.899945	 0.878221	 -0.866390
H	 0.900542	 0.878581	 0.866486
C	 3.466689	 0.296012	 -0.000457
H	 2.239073	 -1.234095	 -0.869382
H	 2.239505	 -1.233985	 0.869270
H	 3.493549	 0.935857	 -0.875887
H	 4.368821	 -0.304526	 -0.001199
H	 3.494559	 0.935166	 0.875458

	symmetry c1
}
set optking {
	frozen_dihedral = ("
		2 3 4 7
	")
}

ee,wfn = optimize('scf', return_wfn=True)
oeprop( wfn, 'DIPOLE', 'QUADRUPOLE', 'MULLIKEN_CHARGES')
f=open( 'psi4out.xyz', 'w' )
f.write( "17  " )
f.write( str(ee) + "\n" )
f.write( MOL.save_string_xyz() )
f.close()
--------------------------------------------------------------------------

    Molecular point group: c1
  Charge       = 0
  Multiplicity = 1
  Basis Set: CC-PVTZ
  Basis Set:
  @DF-RHF Final Energy:  -345.04654168353403
    Total Energy =                       -345.0465416835335759
    Molecular point group: c1
  Basis Set: CC-PVTZ
  Basis Set:
  Basis Set: CC-PVTZ
  Basis Set:
  @DF-RHF Final Energy:  -345.04716831450799
    Total Energy =                       -345.0471683145078714
  Basis Set: CC-PVTZ
  Basis Set:
  Basis Set: CC-PVTZ
  Basis Set:
  @DF-RHF Final Energy:  -345.04732989823265
    Total Energy =                       -345.0473298982322490
  Basis Set: CC-PVTZ
  Basis Set:
  Basis Set: CC-PVTZ
  Basis Set:
  @DF-RHF Final Energy:  -345.04737869656782
    Total Energy =                       -345.0473786965677618
  Basis Set: CC-PVTZ
  Basis Set:
  Basis Set: CC-PVTZ
  Basis Set:
  @DF-RHF Final Energy:  -345.04738783127249
    Total Energy =                       -345.0473878312728289
  Basis Set: CC-PVTZ
  Basis Set:
  Charge       = 0
  Multiplicity = 1
  Basis Set: CC-PVTZ
  Basis Set:

    Orbital Energies (a.u.)
    -----------------------

    Doubly Occupied:

       1A    -20.605757     2A    -20.537704     3A    -11.372621
       4A    -11.237441     5A    -11.230425     6A    -11.224216
       7A    -11.213677     8A     -1.477463     9A     -1.367754
      10A     -1.095848    11A     -1.020646    12A     -0.912814
      13A     -0.825698    14A     -0.803553    15A     -0.705968
      16A     -0.686036    17A     -0.654786    18A     -0.641538
      19A     -0.591247    20A     -0.585877    21A     -0.582311
      22A     -0.539169    23A     -0.516915    24A     -0.494193
      25A     -0.484685    26A     -0.479418    27A     -0.471693
      28A     -0.439910

  @DF-RHF Final Energy:  -345.04738873082044

   => Energetics <=

    Nuclear Repulsion Energy =            305.2391609998161357
    One-Electron Energy =               -1074.9743769952960974
    Two-Electron Energy =                 424.6878272646597452
    DFT Exchange-Correlation Energy =       0.0000000000000000
    Empirical Dispersion Energy =           0.0000000000000000
    PCM Polarization Energy =               0.0000000000000000
    EFP Energy =                            0.0000000000000000
    Total Energy =                       -345.0473887308202166
    Molecular point group: c1
  Basis Set: CC-PVTZ
  Basis Set:

  -Total Gradient:
     Atom            X                  Y                   Z
    ------   -----------------  -----------------  -----------------
       1       -0.000009971192     0.000010159249     0.000010174385
       2       -0.000114565224    -0.000322810154     0.000039840727
       3        0.000236411443     0.000415716274    -0.000171769247
       4       -0.000244505237    -0.000427394905     0.000271280654
       5       -0.000008546398     0.000050616878     0.000082776101
       6        0.000005696371    -0.000015701233     0.000014909859
       7        0.000163651237     0.000262014561    -0.000273413228
       8       -0.000011992121     0.000011030829     0.000008337592
       9       -0.000004900415    -0.000008046286     0.000002014183
      10       -0.000009081907    -0.000012317034     0.000000249823
      11        0.000020240337     0.000026305332     0.000011054230
      12       -0.000014936271     0.000015987863     0.000007938266
      13       -0.000012637936    -0.000007000250    -0.000008572513
      14       -0.000003153503    -0.000010373767     0.000009520039
      15        0.000003277382     0.000010216922    -0.000010957017
      16       -0.000002465917    -0.000007104602     0.000000765203
      17        0.000007479355     0.000008700324     0.000005850941

  **** Optimization is complete! (in 6 steps) ****
    Final optimized geometry and variables:
    Molecular point group: c1

    Geometry (in Angstrom), charge = 0, multiplicity = 1:

    H           -3.017364836286     0.557511900702    -0.995668598618
    O           -2.233224442797     0.035559296785    -1.080270975789
    C           -1.615493694621     0.014300965377     0.096075115255
    C           -0.323828860019    -0.757361323276     0.068369312953
    O           -2.048776914275     0.572750411018     1.045056421442
    C            0.877838310260     0.192638184838     0.005348863952
    H           -0.319061890755    -1.425937791172    -0.781365559980
    H           -0.281020593620    -1.343700357661     0.976777666128
    C            2.208501797337    -0.553172021619     0.009776049005
    H            0.807356173379     0.801183836651    -0.891578972260
    H            0.834024146418     0.871166887157     0.849901682323
    C            3.410565236818     0.382928503965    -0.051125892907
    H            2.240616922167    -1.237953487059    -0.832956308960
    H            2.272185753261    -1.165446394208     0.904821582087
    H            3.392141246755     0.985480125683    -0.952980927242
    H            4.339894574613    -0.174346946592    -0.044677159862
    H            3.423339923007     1.058568641764     0.797252994496

  Mulliken Charges: (a.u.)
   Center  Symbol    Alpha    Beta     Spin     Total
       1     H     0.38031  0.38031  0.00000  0.23938
       2     O     4.16167  4.16167  0.00000 -0.32334
       3     C     2.80565  2.80565  0.00000  0.38870
       4     C     3.08727  3.08727  0.00000 -0.17453
       5     O     4.19990  4.19990  0.00000 -0.39979
       6     C     3.09809  3.09809  0.00000 -0.19619
       7     H     0.44071  0.44071  0.00000  0.11858
       8     H     0.43960  0.43960  0.00000  0.12080
       9     C     3.08753  3.08753  0.00000 -0.17505
      10     H     0.44877  0.44877  0.00000  0.10246
      11     H     0.44111  0.44111  0.00000  0.11778
      12     C     3.14930  3.14930  0.00000 -0.29860
      13     H     0.45321  0.45321  0.00000  0.09359
      14     H     0.45236  0.45236  0.00000  0.09527
      15     H     0.45423  0.45423  0.00000  0.09155
      16     H     0.44727  0.44727  0.00000  0.10546
      17     H     0.45303  0.45303  0.00000  0.09394

   Total alpha = 28.00000, Total beta = 28.00000, Total charge =  0.00000

*** Psi4 exiting successfully. Buy a developer a beer!
