  ==> Input File <==

--------------------------------------------------------------------------
set {
	reference rhf
	basis cc-pvtz
}

set_num_threads( 4 )
memory 2 gb

molecule MOL {
0 1

H	 1.651322	 -0.822465	 0.000000
O	 0.729993	 -1.034364	 0.000000
C	 0.037305	 0.100061	 0.000000
C	 0.912666	 1.293192	 0.241371
O	 -1.131444	 0.127983	 -0.173320
H	 1.414239	 1.186381	 1.194515
H	 0.313204	 2.188350	 0.233414
H	 1.673298	 1.344564	 -0.526919

	symmetry c1
}
set optking {
	frozen_dihedral = ("
		4 3 2 1
	")
}

ee = optimize('scf')
oeprop('DIPOLE', 'QUADRUPOLE', 'MULLIKEN_CHARGES')
f=open( 'psi4out.xyz', 'w' )
f.write( "8  " )
f.write( str(ee) + "\n" )
f.write( MOL.save_string_xyz() )
f.close()
--------------------------------------------------------------------------

    Molecular point group: c1
  Charge       = 0
  Multiplicity = 1
  Basis Set: CC-PVTZ
  Basis Set:
  @DF-RHF Final Energy:  -227.89320318364889
    Total Energy =                       -227.8932031836489216
    Molecular point group: c1
  Basis Set: CC-PVTZ
  Basis Set:
  Basis Set: CC-PVTZ
  Basis Set:
  @DF-RHF Final Energy:  -227.89413203685669
    Total Energy =                       -227.8941320368567744
  Basis Set: CC-PVTZ
  Basis Set:
  Basis Set: CC-PVTZ
  Basis Set:
  @DF-RHF Final Energy:  -227.89467194593755
    Total Energy =                       -227.8946719459374890
  Basis Set: CC-PVTZ
  Basis Set:
  Basis Set: CC-PVTZ
  Basis Set:
  @DF-RHF Final Energy:  -227.89473708446130
    Total Energy =                       -227.8947370844612976
  Basis Set: CC-PVTZ
  Basis Set:
  Basis Set: CC-PVTZ
  Basis Set:
  @DF-RHF Final Energy:  -227.89473878845035
    Total Energy =                       -227.8947387884504110
  Basis Set: CC-PVTZ
  Basis Set:
  Basis Set: CC-PVTZ
  Basis Set:
  @DF-RHF Final Energy:  -227.89473998842993
    Total Energy =                       -227.8947399884299330
  Basis Set: CC-PVTZ
  Basis Set:
  Charge       = 0
  Multiplicity = 1
  Basis Set: CC-PVTZ
  Basis Set:

    Orbital Energies (a.u.)
    -----------------------

    Doubly Occupied:

       1A    -20.607464     2A    -20.538296     3A    -11.377903
       4A    -11.250436     5A     -1.474314     6A     -1.376120
       7A     -1.027883     8A     -0.843564     9A     -0.722966
      10A     -0.672549    11A     -0.659205    12A     -0.604839
      13A     -0.573005    14A     -0.557034    15A     -0.483321
      16A     -0.449572

  @DF-RHF Final Energy:  -227.89474059087468

   => Energetics <=

    Nuclear Repulsion Energy =            122.5991291088967046
    One-Electron Energy =                -554.5508014802077241
    Two-Electron Energy =                 204.0569317804363720
    DFT Exchange-Correlation Energy =       0.0000000000000000
    Empirical Dispersion Energy =           0.0000000000000000
    PCM Polarization Energy =               0.0000000000000000
    EFP Energy =                            0.0000000000000000
    Total Energy =                       -227.8947405908746475
    Molecular point group: c1
  Basis Set: CC-PVTZ
  Basis Set:

  -Total Gradient:
     Atom            X                  Y                   Z
    ------   -----------------  -----------------  -----------------
       1       -0.000022902765     0.000008300092    -0.002003617901
       2       -0.000046827800    -0.000058096136     0.003044884970
       3        0.000160720877     0.000181295073    -0.002088782693
       4       -0.000177480359    -0.000119481046     0.001170665239
       5        0.000067407200    -0.000010175194    -0.000122182789
       6        0.000008418552    -0.000002324625     0.000014179521
       7        0.000006772828    -0.000007279313    -0.000005695617
       8        0.000003891465     0.000007761149    -0.000009450729

  **** Optimization is complete! (in 7 steps) ****
    Final optimized geometry and variables:
    Molecular point group: c1

    Geometry (in Angstrom), charge = 0, multiplicity = 1:

    H            1.474707819823    -1.042410389104    -0.043457122670
    O            0.541425224426    -1.161837952365    -0.038406673139
    C           -0.115281202951     0.000986849995    -0.022168758297
    C            0.738743392240     1.219190454910     0.221224284686
    O           -1.281891106339     0.026201922067    -0.161830388519
    H            1.217644200754     1.139847826295     1.190359961512
    H            0.121356003136     2.101287361570     0.193490373622
    H            1.514565386459     1.296200979600    -0.532605786752

  Mulliken Charges: (a.u.)
   Center  Symbol    Alpha    Beta     Spin     Total
       1     H     0.38911  0.38911  0.00000  0.22178
       2     O     4.14314  4.14314  0.00000 -0.28627
       3     C     2.80911  2.80911  0.00000  0.38178
       4     C     3.15377  3.15377  0.00000 -0.30754
       5     O     4.17567  4.17567  0.00000 -0.35134
       6     H     0.44479  0.44479  0.00000  0.11042
       7     H     0.43310  0.43310  0.00000  0.13379
       8     H     0.45131  0.45131  0.00000  0.09739

   Total alpha = 16.00000, Total beta = 16.00000, Total charge =  0.00000
