                              Psi4 1.0.54 Driver

  ==> Input File <==

--------------------------------------------------------------------------
set {
	reference rhf
	basis cc-pvtz
}

set_num_threads( 4 )
memory 2 gb

molecule MOL {
0 1

O	 -2.374409	 1.338660	 -0.336961
C	 -2.104891	 0.204655	 -0.107126
C	 -0.881910	 -0.448129	 -0.720509
C	 -2.949910	 -0.638219	 0.818225
C	 -1.283243	 -1.493905	 -1.768424
H	 -0.330860	 -0.927571	 0.078610
H	 -0.242555	 0.301879	 -1.173917
C	 -0.071869	 -2.181238	 -2.395044
H	 -1.928145	 -2.221630	 -1.292245
H	 -1.869866	 -1.020911	 -2.552292
C	 -0.411122	 -3.193942	 -3.490145
H	 0.501056	 -2.675528	 -1.614395
H	 0.580879	 -1.421849	 -2.816769
C	 -1.167427	 -4.428176	 -3.004811
H	 0.515225	 -3.514214	 -3.956636
H	 -0.986555	 -2.700591	 -4.269129
H	 -0.617256	 -4.938265	 -2.220777
H	 -1.313145	 -5.131754	 -3.816301
H	 -2.145542	 -4.177825	 -2.612516
H	 -3.440322	 -1.417144	 0.243099
H	 -3.694377	 -0.025850	 1.303346
H	 -2.331085	 -1.129829	 1.560495

	symmetry c1
}
set optking {
	frozen_dihedral = ("
		6 3 2 1
	")
}

ee,wfn = optimize('scf', return_wfn=True)
oeprop( wfn, 'DIPOLE', 'QUADRUPOLE', 'MULLIKEN_CHARGES')
f=open( 'psi4out.xyz', 'w' )
f.write( "22  " )
f.write( str(ee) + "\n" )
f.write( MOL.save_string_xyz() )
f.close()
--------------------------------------------------------------------------

    Molecular point group: c1
  Charge       = 0
  Multiplicity = 1
  Basis Set: CC-PVTZ
  Basis Set:
  @DF-RHF Final Energy:  -348.22220542117998
    Total Energy =                       -348.2222054211805471
    Molecular point group: c1
  Basis Set: CC-PVTZ
  Basis Set:
  Basis Set: CC-PVTZ
  Basis Set:
  @DF-RHF Final Energy:  -348.22269637372779
    Total Energy =                       -348.2226963737277856
  Basis Set: CC-PVTZ
  Basis Set:
  Basis Set: CC-PVTZ
  Basis Set:
  @DF-RHF Final Energy:  -348.22156116700103
    Total Energy =                       -348.2215611670012549
  Basis Set: CC-PVTZ
  Basis Set:
  Basis Set: CC-PVTZ
  Basis Set:
  @DF-RHF Final Energy:  -348.22288860529846
    Total Energy =                       -348.2228886052984080
  Basis Set: CC-PVTZ
  Basis Set:
  @DF-RHF Final Energy:  -348.22293205498988
    Total Energy =                       -348.2229320549902241
  @DF-RHF Final Energy:  -348.22288622161597
    Total Energy =                       -348.2228862216162497
  @DF-RHF Final Energy:  -348.22298585822682
    Total Energy =                       -348.2229858582268207
  @DF-RHF Final Energy:  -348.22298962726040
    Total Energy =                       -348.2229896272605174
  @DF-RHF Final Energy:  -348.22299328241121
    Total Energy =                       -348.2229932824111529
  Basis Set: CC-PVTZ
  Basis Set:
  @DF-RHF Final Energy:  -348.22300032436783
    Total Energy =                       -348.2230003243678880
  Basis Set: CC-PVTZ
  Basis Set:
  Basis Set: CC-PVTZ
  Basis Set:
  @DF-RHF Final Energy:  -348.22300520646883
    Total Energy =                       -348.2230052064692245
  Basis Set: CC-PVTZ
  Basis Set:
  Basis Set: CC-PVTZ
  Basis Set:
  @DF-RHF Final Energy:  -348.22300766848758
    Total Energy =                       -348.2230076684876394
  Basis Set: CC-PVTZ
  Basis Set:
  Charge       = 0
  Multiplicity = 1
  Basis Set: CC-PVTZ
  Basis Set:

    Orbital Energies (a.u.)
    -----------------------

    Doubly Occupied:

       1A    -20.537408     2A    -11.319028     3A    -11.229766
       4A    -11.227792     5A    -11.226033     6A    -11.222061
       7A    -11.220493     8A    -11.212881     9A     -1.396880
      10A     -1.099195    11A     -1.046720    12A     -0.998918
      13A     -0.940752    14A     -0.862035    15A     -0.789099
      16A     -0.734221    17A     -0.663009    18A     -0.650160
      19A     -0.628302    20A     -0.623400    21A     -0.598833
      22A     -0.589587    23A     -0.553776    24A     -0.549235
      25A     -0.537799    26A     -0.519336    27A     -0.499330
      28A     -0.494069    29A     -0.473030    30A     -0.467429
      31A     -0.464734    32A     -0.398916

  @DF-RHF Final Energy:  -348.22300773368187

   => Energetics <=

    Nuclear Repulsion Energy =            373.4042133546933542
    One-Electron Energy =               -1211.7059956802243050
    Two-Electron Energy =                 490.0787745918486848
    DFT Exchange-Correlation Energy =       0.0000000000000000
    Empirical Dispersion Energy =           0.0000000000000000
    PCM Polarization Energy =               0.0000000000000000
    EFP Energy =                            0.0000000000000000
    Total Energy =                       -348.2230077336822092
    Molecular point group: c1
  Basis Set: CC-PVTZ
  Basis Set:

  -Total Gradient:
     Atom            X                  Y                   Z
    ------   -----------------  -----------------  -----------------
       1        0.000374332817     0.000210432231     0.000541394721
       2       -0.000439170909    -0.000156822147    -0.000739691271
       3       -0.000320020969    -0.000617432836     0.000097100418
       4        0.000006595260     0.000018241823    -0.000001009868
       5        0.000000844163     0.000003664629     0.000005699436
       6        0.000385931958     0.000555722882     0.000097343391
       7       -0.000001877408     0.000005711477     0.000001586388
       8       -0.000001540040     0.000002719744    -0.000002941715
       9       -0.000006032295    -0.000003187266     0.000005017731
      10       -0.000000508323    -0.000000439685    -0.000003332969
      11        0.000004995554    -0.000000976316     0.000001857065
      12       -0.000001202552    -0.000003378492    -0.000001025361
      13        0.000001251925     0.000000973725    -0.000000021940
      14       -0.000002951904     0.000000445547    -0.000001233719
      15        0.000005181798     0.000001828533    -0.000001047255
      16       -0.000001277123     0.000001643583    -0.000001025097
      17        0.000002933471    -0.000003471459     0.000002071321
      18       -0.000000939496     0.000001556924    -0.000000445513
      19       -0.000004188200     0.000000169919     0.000003221319
      20       -0.000004501693    -0.000014070192    -0.000007306496
      21        0.000000629043    -0.000000480375     0.000000281883
      22        0.000001514924    -0.000002852245     0.000003507531

  **** Optimization is complete! (in 13 steps) ****
    Final optimized geometry and variables:
    Molecular point group: c1

    Geometry (in Angstrom), charge = 0, multiplicity = 1:

    O           -0.905700971194     2.710054118148     1.039447118791
    C           -0.698918922795     1.567683569096     1.292479829293
    C            0.499693729096     0.841749573994     0.714047598093
    C           -1.614008832332     0.792336994148     2.213311481299
    C            0.123290934653    -0.171949052516    -0.372941470403
    H            1.030008702367     0.337163345341     1.516910747054
    H            1.157002481492     1.595841335137     0.302712517854
    C            1.354458301351    -0.825483416919    -0.998276669905
    H           -0.525149342352    -0.933277420044     0.044158246110
    H           -0.446143167805     0.335456046314    -1.146494528228
    C            1.050899996794    -1.785508638373    -2.149654194538
    H            1.910354933666    -1.354314419715    -0.227397808207
    H            2.012353928273    -0.043337617993    -1.364972842944
    C            0.288804563885    -3.045797881100    -1.747292275331
    H            1.991605481731    -2.078605249630    -2.604888108454
    H            0.494634261107    -1.257088354738    -2.919075276185
    H            0.818131161405    -3.590544568220    -0.971981488709
    H            0.172573311634    -3.710502915210    -2.595358450002
    H           -0.703409785566    -2.820205814156    -1.375120298041
    H           -2.011875926281    -0.082854500650     1.713902315367
    H           -2.426040056106     1.425430203408     2.536002030085
    H           -1.056987089655     0.445182511569     3.077057393282

  Mulliken Charges: (a.u.)
   Center  Symbol    Alpha    Beta     Spin     Total
       1     O     4.17372  4.17372  0.00000 -0.34744
       2     C     2.85818  2.85818  0.00000  0.28364
       3     C     3.09411  3.09411  0.00000 -0.18822
       4     C     3.15804  3.15804  0.00000 -0.31609
       5     C     3.10883  3.10883  0.00000 -0.21766
       6     H     0.44956  0.44956  0.00000  0.10088
       7     H     0.43847  0.43847  0.00000  0.12305
       8     C     3.09628  3.09628  0.00000 -0.19257
       9     H     0.44871  0.44871  0.00000  0.10257
      10     H     0.44409  0.44409  0.00000  0.11182
      11     C     3.09023  3.09023  0.00000 -0.18046
      12     H     0.45301  0.45301  0.00000  0.09397
      13     H     0.44537  0.44537  0.00000  0.10926
      14     C     3.15334  3.15334  0.00000 -0.30668
      15     H     0.44703  0.44703  0.00000  0.10594
      16     H     0.45253  0.45253  0.00000  0.09494
      17     H     0.45454  0.45454  0.00000  0.09091
      18     H     0.44453  0.44453  0.00000  0.11094
      19     H     0.45464  0.45464  0.00000  0.09072
      20     H     0.45039  0.45039  0.00000  0.09922
      21     H     0.43418  0.43418  0.00000  0.13163
      22     H     0.45019  0.45019  0.00000  0.09962

   Total alpha = 32.00000, Total beta = 32.00000, Total charge = -0.00000

*** Psi4 exiting successfully. Buy a developer a beer!
