  ==> Input File <==

--------------------------------------------------------------------------
set {
	reference rhf
	basis 6-31G*
}

set_num_threads( 4 )
memory 2 gb

molecule MOL {
0 1

H	 -1.843055	 0.069849	 -1.064088
C	 -1.049282	 -0.484033	 -0.605803
C	 -1.042359	 -1.867295	 -0.601806
C	 0.000000	 0.183220	 0.000000
H	 -1.848008	 -2.404452	 -1.066948
C	 0.000000	 -2.555744	 0.000000
N	 0.000000	 1.642018	 0.000000
C	 1.049282	 -0.484034	 0.605803
H	 0.000000	 -3.630640	 0.000000
C	 1.042359	 -1.867295	 0.601806
O	 1.057097	 2.196749	 0.000000
O	 -1.057097	 2.196749	 0.000000
H	 1.843055	 0.069849	 1.064088
H	 1.848008	 -2.404452	 1.066948

	symmetry c1
}
set optking {
	frozen_dihedral = ("
		2 4 7 11
	")
}

ee = optimize('scf')
oeprop('DIPOLE', 'QUADRUPOLE', 'MULLIKEN_CHARGES')
f=open( 'psi4out.xyz', 'w' )
f.write( "14  " )
f.write( str(ee) + "\n" )
f.write( MOL.save_string_xyz() )
f.close()
--------------------------------------------------------------------------

    Molecular point group: c1
  Charge       = 0
  Multiplicity = 1
  Basis Set: 6-31G*
  Basis Set:
  @DF-RHF Final Energy:  -434.17239041041080
    Total Energy =                       -434.1723904104110261
    Molecular point group: c1
  Basis Set: 6-31G*
  Basis Set:
  Basis Set: 6-31G*
  Basis Set:
  @DF-RHF Final Energy:  -434.16533493550077
    Total Energy =                       -434.1653349355005957
  Basis Set: 6-31G*
  Basis Set:
  Basis Set: 6-31G*
  Basis Set:
  @DF-RHF Final Energy:  -434.17242011961935
    Total Energy =                       -434.1724201196190052
  Basis Set: 6-31G*
  Basis Set:
  Basis Set: 6-31G*
  Basis Set:
  @DF-RHF Final Energy:  -434.17260918049851
    Total Energy =                       -434.1726091804986254
  Basis Set: 6-31G*
  Basis Set:
  Basis Set: 6-31G*
  Basis Set:
  @DF-RHF Final Energy:  -434.17261019634873
    Total Energy =                       -434.1726101963487281
  Basis Set: 6-31G*
  Basis Set:
  Charge       = 0
  Multiplicity = 1
  Basis Set: 6-31G*
  Basis Set:

    Orbital Energies (a.u.)
    -----------------------

    Doubly Occupied:

       1A    -20.602378     2A    -20.602138     3A    -15.855403
       4A    -11.304697     5A    -11.271253     6A    -11.271094
       7A    -11.267279     8A    -11.261731     9A    -11.261590
      10A     -1.634688    11A     -1.418266    12A     -1.202040
      13A     -1.094919    14A     -1.053162    15A     -0.957956
      16A     -0.866564    17A     -0.825486    18A     -0.783133
      19A     -0.733318    20A     -0.728901    21A     -0.710854
      22A     -0.652993    23A     -0.649897    24A     -0.624485
      25A     -0.554853    26A     -0.538444    27A     -0.530253
      28A     -0.489145    29A     -0.488188    30A     -0.450834
      31A     -0.372465    32A     -0.365994

  @DF-RHF Final Energy:  -434.17261182813360

   => Energetics <=

    Nuclear Repulsion Energy =            417.1203232902441300
    One-Electron Energy =               -1417.7370751659759662
    Two-Electron Energy =                 566.4441400475982391
    DFT Exchange-Correlation Energy =       0.0000000000000000
    Empirical Dispersion Energy =           0.0000000000000000
    PCM Polarization Energy =               0.0000000000000000
    EFP Energy =                            0.0000000000000000
    Total Energy =                       -434.1726118281335403
    Molecular point group: c1
  Basis Set: 6-31G*
  Basis Set:

  -Total Gradient:
     Atom            X                  Y                   Z
    ------   -----------------  -----------------  -----------------
       1        0.000002493918    -0.000003804009     0.000001279240
       2        0.001611311901    -0.000075770824    -0.002715130283
       3       -0.000013406490     0.000018166241     0.000000268392
       4       -0.002301209261     0.000062958161     0.002569507276
       5        0.000000917563    -0.000000364525    -0.000001173423
       6        0.000017487583    -0.000000626839     0.000015634361
       7        0.000635036171     0.000050598061     0.003749126774
       8       -0.000022046285     0.000018720511     0.000005647939
       9       -0.000001315745     0.000000619187    -0.000000873835
      10       -0.000003696677    -0.000018137468    -0.000019207435
      11        0.000081908592    -0.000063418223    -0.003609809981
      12       -0.000011396531     0.000008194800     0.000002148190
      13        0.000002830812    -0.000000523363     0.000000770326
      14        0.000001084449     0.000003388288     0.000001812459

  **** Optimization is complete! (in 6 steps) ****
    Final optimized geometry and variables:
    Molecular point group: c1

    Geometry (in Angstrom), charge = 0, multiplicity = 1:

    H           -1.856072114099     0.076133798760    -1.036412739742
    C           -1.056851147034    -0.479953941431    -0.588510498587
    C           -1.040592543249    -1.863530427813    -0.602393723859
    C           -0.011754152424     0.183289572975     0.025532645838
    H           -1.839266574977    -2.400111317592    -1.079996443508
    C            0.002268799075    -2.552355742977    -0.001964995448
    N            0.000131405382     1.639823496390     0.003139485466
    C            1.049849106739    -0.481452527464     0.609454587354
    H            0.006453362020    -3.627189030511    -0.010412308405
    C            1.042490388483    -1.864804829339     0.605276625359
    O            1.063312962585     2.182706050482     0.012851963529
    O           -1.053270590897     2.199194316816    -0.050773248647
    H            1.852086432805     0.073660689130     1.053247910962
    H            1.849308629106    -2.402698543257     1.067470916754

  Mulliken Charges: (a.u.)
   Center  Symbol    Alpha    Beta     Spin     Total
       1     H     0.36738  0.36738  0.00000  0.26524
       2     C     3.08582  3.08582  0.00000 -0.17165
       3     C     3.10785  3.10785  0.00000 -0.21570
       4     C     2.91432  2.91432  0.00000  0.17136
       5     H     0.38846  0.38846  0.00000  0.22308
       6     C     3.08739  3.08739  0.00000 -0.17478
       7     N     3.24982  3.24982  0.00000  0.50036
       8     C     3.08491  3.08491  0.00000 -0.16982
       9     H     0.38913  0.38913  0.00000  0.22174
      10     C     3.10810  3.10810  0.00000 -0.21621
      11     O     4.23034  4.23034  0.00000 -0.46068
      12     O     4.23013  4.23013  0.00000 -0.46025
      13     H     0.36790  0.36790  0.00000  0.26419
      14     H     0.38845  0.38845  0.00000  0.22311

   Total alpha = 32.00000, Total beta = 32.00000, Total charge = -0.00000
