  ==> Input File <==

--------------------------------------------------------------------------
set {
	reference rhf
	basis 6-31G*
}

set_num_threads( 1 )
memory 2 gb

molecule MOL {
0 1

O	 -2.549567	 -1.605221	 0.943368
C	 -1.865696	 -2.293434	 0.248300
C	 -0.744896	 -1.691852	 -0.581285
C	 -2.055945	 -3.792364	 0.182050
C	 0.492618	 -1.415413	 0.287784
H	 -1.109045	 -0.759668	 -0.999297
H	 -0.481526	 -2.351250	 -1.403391
C	 1.631333	 -0.777471	 -0.511575
H	 0.193504	 -0.771196	 1.106868
H	 0.843891	 -2.345676	 0.731593
C	 2.915987	 -0.544314	 0.291766
H	 1.290604	 0.169226	 -0.926778
H	 1.864706	 -1.416536	 -1.360681
C	 3.373361	 0.914346	 0.347591
H	 3.708709	 -1.142521	 -0.150311
H	 2.780642	 -0.921148	 1.303579
H	 3.506512	 1.320010	 -0.651625
H	 4.322697	 0.999599	 0.867103
H	 2.660624	 1.545032	 0.868198
H	 -2.393171	 -4.074183	 -0.811993
H	 -2.789506	 -4.105111	 0.912024
H	 -1.116153	 -4.307372	 0.359146

	symmetry c1
}
set optking {
	frozen_dihedral = ("
		6 3 2 1,
		6 3 5 8,
		3 5 8 12
	")
}

ee = energy('scf')
oeprop('DIPOLE', 'QUADRUPOLE', 'MULLIKEN_CHARGES')
f=open( 'psi4out.xyz', 'w' )
f.write( "22  " )
f.write( str(ee) + "\n" )
f.write( MOL.save_string_xyz() )
f.close()
--------------------------------------------------------------------------

    Molecular point group: c1

    Geometry (in Angstrom), charge = 0, multiplicity = 1:

       Center              X                  Y                   Z               Mass
    ------------   -----------------  -----------------  -----------------  -----------------
           O         -2.703526456382    -0.210145885802     0.784672366987    15.994914619560
           C         -2.019655456382    -0.898358885802     0.089604366987    12.000000000000
           C         -0.898855456382    -0.296776885802    -0.739980633013    12.000000000000
           C         -2.209904456382    -2.397288885802     0.023354366987    12.000000000000
           C          0.338658543618    -0.020337885802     0.129088366987    12.000000000000
           H         -1.263004456382     0.635407114198    -1.157992633013     1.007825032070
           H         -0.635485456382    -0.956174885802    -1.562086633013     1.007825032070
           C          1.477373543618     0.617604114198    -0.670270633013    12.000000000000
           H          0.039544543618     0.623879114198     0.948172366987     1.007825032070
           H          0.689931543618    -0.950600885802     0.572897366987     1.007825032070
           C          2.762027543618     0.850761114198     0.133070366987    12.000000000000
           H          1.136644543618     1.564301114198    -1.085473633013     1.007825032070
           H          1.710746543618    -0.021460885802    -1.519376633013     1.007825032070
           C          3.219401543618     2.309421114198     0.188895366987    12.000000000000
           H          3.554749543618     0.252554114198    -0.309006633013     1.007825032070
           H          2.626682543618     0.473927114198     1.144883366987     1.007825032070
           H          3.352552543618     2.715085114198    -0.810320633013     1.007825032070
           H          4.168737543618     2.394674114198     0.708407366987     1.007825032070
           H          2.506664543618     2.940107114198     0.709502366987     1.007825032070
           H         -2.547130456382    -2.679107885802    -0.970688633013     1.007825032070
           H         -2.943465456382    -2.710035885802     0.753328366987     1.007825032070
           H         -1.270112456382    -2.912296885802     0.200450366987     1.007825032070

  Charge       = 0
  Multiplicity = 1
  Basis Set: 6-31G*
  Basis Set:

    Orbital Energies (a.u.)
    -----------------------

    Doubly Occupied:

       1A    -20.547282     2A    -11.324476     3A    -11.230318
       4A    -11.228876     5A    -11.228203     6A    -11.220894
       7A    -11.219176     8A    -11.212179     9A     -1.393048
      10A     -1.094931    11A     -1.044677    12A     -1.000574
      13A     -0.938496    14A     -0.849409    15A     -0.795574
      16A     -0.732447    17A     -0.662466    18A     -0.644752
      19A     -0.628446    20A     -0.612075    21A     -0.598979
      22A     -0.581584    23A     -0.560608    24A     -0.551990
      25A     -0.530738    26A     -0.510646    27A     -0.504700
      28A     -0.487053    29A     -0.472633    30A     -0.462000
      31A     -0.457602    32A     -0.396104

  @DF-RHF Final Energy:  -348.09375305913346

   => Energetics <=

    Nuclear Repulsion Energy =            369.4058221380060445
    One-Electron Energy =               -1203.5534831576783290
    Two-Electron Energy =                 486.0539079605381403
    DFT Exchange-Correlation Energy =       0.0000000000000000
    Empirical Dispersion Energy =           0.0000000000000000
    PCM Polarization Energy =               0.0000000000000000
    EFP Energy =                            0.0000000000000000
    Total Energy =                       -348.0937530591342011

  Mulliken Charges: (a.u.)
   Center  Symbol    Alpha    Beta     Spin     Total
       1     O     4.26244  4.26244  0.00000 -0.52488
       2     C     2.73722  2.73722  0.00000  0.52556
       3     C     3.20076  3.20076  0.00000 -0.40151
       4     C     3.28955  3.28955  0.00000 -0.57910
       5     C     3.16408  3.16408  0.00000 -0.32816
       6     H     0.40106  0.40106  0.00000  0.19787
       7     H     0.41692  0.41692  0.00000  0.16616
       8     C     3.15449  3.15449  0.00000 -0.30898
       9     H     0.40515  0.40515  0.00000  0.18971
      10     H     0.42044  0.42044  0.00000  0.15913
      11     C     3.15589  3.15589  0.00000 -0.31177
      12     H     0.41753  0.41753  0.00000  0.16494
      13     H     0.42120  0.42120  0.00000  0.15760
      14     C     3.24062  3.24062  0.00000 -0.48124
      15     H     0.41997  0.41997  0.00000  0.16006
      16     H     0.41892  0.41892  0.00000  0.16217
      17     H     0.42119  0.42119  0.00000  0.15762
      18     H     0.41940  0.41940  0.00000  0.16121
      19     H     0.41946  0.41946  0.00000  0.16108
      20     H     0.40692  0.40692  0.00000  0.18616
      21     H     0.39708  0.39708  0.00000  0.20584
      22     H     0.40972  0.40972  0.00000  0.18055

   Total alpha = 32.00000, Total beta = 32.00000, Total charge =  0.00000
