                              Psi4 1.0.54 Driver

  ==> Input File <==

--------------------------------------------------------------------------
set {
	reference rhf
	basis cc-pvtz
}

set_num_threads( 4 )
memory 2 gb

molecule MOL {
0 1

H	 2.120445	 -0.611388	 1.330692
C	 1.948180	 -0.217873	 0.320185
C	 0.692262	 0.592428	 0.156232
O	 2.722577	 -0.446448	 -0.543352
C	 -0.554654	 -0.292621	 0.086567
H	 0.791858	 1.203694	 -0.731051
H	 0.617379	 1.254358	 1.016534
C	 -1.846385	 0.513195	 -0.016346
H	 -0.473986	 -0.956115	 -0.769708
H	 -0.597929	 -0.929215	 0.966651
C	 -3.089953	 -0.365049	 -0.098564
H	 -1.798267	 1.154820	 -0.891143
H	 -1.925398	 1.173265	 0.842889
H	 -3.055079	 -1.012299	 -0.968245
H	 -3.988403	 0.236438	 -0.170014
H	 -3.183055	 -0.995885	 0.779079

	symmetry c1
}
set optking {
	frozen_dihedral = ("
		4 2 3 6
	")
}

ee,wfn = optimize('scf', return_wfn=True)
oeprop( wfn, 'DIPOLE', 'QUADRUPOLE', 'MULLIKEN_CHARGES')
f=open( 'psi4out.xyz', 'w' )
f.write( "16  " )
f.write( str(ee) + "\n" )
f.write( MOL.save_string_xyz() )
f.close()
--------------------------------------------------------------------------

    Molecular point group: c1
  Charge       = 0
  Multiplicity = 1
  Basis Set: CC-PVTZ
  Basis Set:
  @DF-RHF Final Energy:  -270.11876946682139
    Total Energy =                       -270.1187694668213908
    Molecular point group: c1
  Basis Set: CC-PVTZ
  Basis Set:
  Basis Set: CC-PVTZ
  Basis Set:
  @DF-RHF Final Energy:  -270.11776249907268
    Total Energy =                       -270.1177624990725690
  Basis Set: CC-PVTZ
  Basis Set:
  Basis Set: CC-PVTZ
  Basis Set:
  @DF-RHF Final Energy:  -270.11881643643488
    Total Energy =                       -270.1188164364348836
  Basis Set: CC-PVTZ
  Basis Set:
  Basis Set: CC-PVTZ
  Basis Set:
  @DF-RHF Final Energy:  -270.11886579325574
    Total Energy =                       -270.1188657932556794
  Basis Set: CC-PVTZ
  Basis Set:
  Basis Set: CC-PVTZ
  Basis Set:
  @DF-RHF Final Energy:  -270.11886755451201
    Total Energy =                       -270.1188675545122351
  Basis Set: CC-PVTZ
  Basis Set:
  Charge       = 0
  Multiplicity = 1
  Basis Set: CC-PVTZ
  Basis Set:

    Orbital Energies (a.u.)
    -----------------------

    Doubly Occupied:

       1A    -20.552087     2A    -11.321289     3A    -11.234527
       4A    -11.233652     5A    -11.226920     6A    -11.216087
       7A     -1.406805     8A     -1.096959     9A     -1.019380
      10A     -0.906746    11A     -0.812790    12A     -0.791507
      13A     -0.683606    14A     -0.647738    15A     -0.633119
      16A     -0.604440    17A     -0.579325    18A     -0.554092
      19A     -0.528459    20A     -0.512770    21A     -0.487776
      22A     -0.480641    23A     -0.480054    24A     -0.411102

  @DF-RHF Final Energy:  -270.11886722307338

   => Energetics <=

    Nuclear Repulsion Energy =            230.0707841802613132
    One-Electron Energy =                -821.5355615057414980
    Two-Electron Energy =                 321.3459101024065490
    DFT Exchange-Correlation Energy =       0.0000000000000000
    Empirical Dispersion Energy =           0.0000000000000000
    PCM Polarization Energy =               0.0000000000000000
    EFP Energy =                            0.0000000000000000
    Total Energy =                       -270.1188672230736643
    Molecular point group: c1
  Basis Set: CC-PVTZ
  Basis Set:

  -Total Gradient:
     Atom            X                  Y                   Z
    ------   -----------------  -----------------  -----------------
       1        0.000062864865    -0.000013911521     0.000121516683
       2        0.000785113698     0.001455445767     0.000490436263
       3       -0.000760289280    -0.001226898319    -0.000858702630
       4       -0.000435968447    -0.000979956728    -0.000403834603
       5       -0.000026023076    -0.000013278837     0.000019695594
       6        0.000447406722     0.000831454850     0.000591378550
       7       -0.000044545830    -0.000013839539     0.000008160288
       8       -0.000036296196    -0.000025095674     0.000002821387
       9        0.000039791862    -0.000006826921     0.000021293810
      10       -0.000029961723    -0.000013539369     0.000034984974
      11        0.000001382976     0.000010009260    -0.000021140187
      12        0.000000848750     0.000009925135    -0.000008659373
      13        0.000004627716    -0.000008366692     0.000005072193
      14       -0.000003234747    -0.000010013165    -0.000008894842
      15       -0.000010476140     0.000005101930    -0.000003290766
      16        0.000004758852    -0.000000210179     0.000009162658

  **** Optimization is complete! (in 6 steps) ****
    Final optimized geometry and variables:
    Molecular point group: c1

    Geometry (in Angstrom), charge = 0, multiplicity = 1:

    H            2.135406907809    -0.595168924620     1.343697244646
    C            1.969338139243    -0.178157980354     0.341739988706
    C            0.725036961606     0.652580346503     0.185907125414
    O            2.725727292986    -0.423450216105    -0.533500065192
    C           -0.520570034574    -0.238118860950     0.115179181279
    H            0.822489131210     1.255862508500    -0.707343024050
    H            0.645701783523     1.318618125522     1.040938206095
    C           -1.814461093929     0.563815437363     0.009504206340
    H           -0.431209774021    -0.900176370194    -0.740314291720
    H           -0.563155099262    -0.874281403328     0.995935886643
    C           -3.054247592227    -0.319310139354    -0.078488789353
    H           -1.765197803027     1.206394105014    -0.864571615425
    H           -1.899271759054     1.222381203827     0.869289189121
    H           -3.012949055828    -0.966023571064    -0.948245490858
    H           -3.954700569308     0.278813660761    -0.153502032061
    H           -3.148628192301    -0.950865163981     0.798514152727

  Mulliken Charges: (a.u.)
   Center  Symbol    Alpha    Beta     Spin     Total
       1     H     0.46274  0.46274  0.00000  0.07452
       2     C     2.91146  2.91146  0.00000  0.17707
       3     C     3.07665  3.07665  0.00000 -0.15330
       4     O     4.16617  4.16617  0.00000 -0.33235
       5     C     3.10018  3.10018  0.00000 -0.20036
       6     H     0.44288  0.44288  0.00000  0.11423
       7     H     0.45158  0.45158  0.00000  0.09684
       8     C     3.08487  3.08487  0.00000 -0.16973
       9     H     0.44356  0.44356  0.00000  0.11288
      10     H     0.45205  0.45205  0.00000  0.09590
      11     C     3.14917  3.14917  0.00000 -0.29833
      12     H     0.45089  0.45089  0.00000  0.09823
      13     H     0.45346  0.45346  0.00000  0.09309
      14     H     0.45289  0.45289  0.00000  0.09422
      15     H     0.44684  0.44684  0.00000  0.10631
      16     H     0.45461  0.45461  0.00000  0.09079

   Total alpha = 24.00000, Total beta = 24.00000, Total charge = -0.00000

*** Psi4 exiting successfully. Buy a developer a beer!
