  ==> Input File <==

--------------------------------------------------------------------------
set {
	reference rhf
	basis 6-31G*
}

set_num_threads( 1 )
memory 2 gb

molecule MOL {
0 1

H	 -3.420663	 1.227371	 -1.044276
O	 -3.452007	 0.283848	 -0.965577
C	 -3.181085	 -0.079926	 0.364119
C	 -1.765924	 0.277073	 0.805136
H	 -3.327791	 -1.152017	 0.410903
H	 -3.905698	 0.375695	 1.036898
C	 -0.677594	 -0.417312	 -0.014550
H	 -1.637766	 1.358238	 0.744969
H	 -1.659588	 0.017670	 1.857098
C	 0.578926	 -0.731648	 0.800023
H	 -0.417334	 0.207499	 -0.863423
H	 -1.080106	 -1.340777	 -0.427576
C	 1.661455	 -1.431934	 -0.025698
H	 0.970149	 0.193016	 1.217588
H	 0.312571	 -1.361026	 1.648282
C	 2.905506	 -1.847365	 0.767970
H	 1.960965	 -0.784789	 -0.848615
H	 1.230548	 -2.320933	 -0.481567
C	 3.727090	 -0.680518	 1.319218
H	 3.542148	 -2.446377	 0.121316
H	 2.608293	 -2.498701	 1.587500
H	 4.027964	 -0.004880	 0.522898
H	 4.629307	 -1.039765	 1.804793
H	 3.172506	 -0.102895	 2.051306

	symmetry c1
}
set optking {
	frozen_dihedral = ("
		20 16 13 17,
		17 13 10 7,
		13 10 7 11,
		1 2 3 5,
		7 4 3 2
	")
}

ee = energy('scf')
oeprop('DIPOLE', 'QUADRUPOLE', 'MULLIKEN_CHARGES')
f=open( 'psi4out.xyz', 'w' )
f.write( "24  " )
f.write( str(ee) + "\n" )
f.write( MOL.save_string_xyz() )
f.close()
--------------------------------------------------------------------------

    Molecular point group: c1

    Geometry (in Angstrom), charge = 0, multiplicity = 1:

       Center              X                  Y                   Z               Mass
    ------------   -----------------  -----------------  -----------------  -----------------
           H         -3.341660788201     1.779797212828    -1.407360889842     1.007825032070
           O         -3.373004788201     0.836274212828    -1.328661889842    15.994914619560
           C         -3.102082788201     0.472500212828     0.001034110158    12.000000000000
           C         -1.686921788201     0.829499212828     0.442051110158    12.000000000000
           H         -3.248788788201    -0.599590787172     0.047818110158     1.007825032070
           H         -3.826695788201     0.928121212828     0.673813110158     1.007825032070
           C         -0.598591788201     0.135114212828    -0.377634889842    12.000000000000
           H         -1.558763788201     1.910664212828     0.381884110158     1.007825032070
           H         -1.580585788201     0.570096212828     1.494013110158     1.007825032070
           C          0.657928211799    -0.179221787172     0.436938110158    12.000000000000
           H         -0.338331788201     0.759925212828    -1.226507889842     1.007825032070
           H         -1.001103788201    -0.788350787172    -0.790660889842     1.007825032070
           C          1.740457211799    -0.879507787172    -0.388782889842    12.000000000000
           H          1.049151211799     0.745442212828     0.854503110158     1.007825032070
           H          0.391573211799    -0.808599787172     1.285197110158     1.007825032070
           C          2.984508211799    -1.294938787172     0.404885110158    12.000000000000
           H          2.039967211799    -0.232362787172    -1.211699889842     1.007825032070
           H          1.309550211799    -1.768506787172    -0.844651889842     1.007825032070
           C          3.806092211799    -0.128091787172     0.956133110158    12.000000000000
           H          3.621150211799    -1.893950787172    -0.241768889842     1.007825032070
           H          2.687295211799    -1.946274787172     1.224415110158     1.007825032070
           H          4.106966211799     0.547546212828     0.159813110158     1.007825032070
           H          4.708309211799    -0.487338787172     1.441708110158     1.007825032070
           H          3.251508211799     0.449531212828     1.688221110158     1.007825032070

  Charge       = 0
  Multiplicity = 1
  Basis Set: 6-31G*
  Basis Set:

    Orbital Energies (a.u.)
    -----------------------

    Doubly Occupied:

       1A    -20.553027     2A    -11.267573     3A    -11.216659
       4A    -11.214084     5A    -11.212759     6A    -11.211512
       7A    -11.211262     8A    -11.207388     9A     -1.359602
      10A     -1.088840    11A     -1.048357    12A     -0.985296
      13A     -0.914854    14A     -0.851293    15A     -0.800476
      16A     -0.776702    17A     -0.678378    18A     -0.651683
      19A     -0.629554    20A     -0.615938    21A     -0.601886
      22A     -0.580294    23A     -0.553541    24A     -0.546503
      25A     -0.517822    26A     -0.503264    27A     -0.499133
      28A     -0.475510    29A     -0.468941    30A     -0.460359
      31A     -0.454031    32A     -0.448273    33A     -0.418660

  @DF-RHF Final Energy:  -349.24455955591662

   => Energetics <=

    Nuclear Repulsion Energy =            384.1961005129556384
    One-Electron Energy =               -1234.8343936534024579
    Two-Electron Energy =                 501.3937335845307643
    DFT Exchange-Correlation Energy =       0.0000000000000000
    Empirical Dispersion Energy =           0.0000000000000000
    PCM Polarization Energy =               0.0000000000000000
    EFP Energy =                            0.0000000000000000
    Total Energy =                       -349.2445595559161120

  Mulliken Charges: (a.u.)
   Center  Symbol    Alpha    Beta     Spin     Total
       1     H     0.28342  0.28342  0.00000  0.43316
       2     O     4.36865  4.36865  0.00000 -0.73731
       3     C     2.99790  2.99790  0.00000  0.00420
       4     C     3.17015  3.17015  0.00000 -0.34031
       5     H     0.41624  0.41624  0.00000  0.16753
       6     H     0.42894  0.42894  0.00000  0.14212
       7     C     3.14807  3.14807  0.00000 -0.29613
       8     H     0.42638  0.42638  0.00000  0.14724
       9     H     0.42113  0.42113  0.00000  0.15774
      10     C     3.15608  3.15608  0.00000 -0.31216
      11     H     0.41879  0.41879  0.00000  0.16242
      12     H     0.41804  0.41804  0.00000  0.16393
      13     C     3.15260  3.15260  0.00000 -0.30521
      14     H     0.42247  0.42247  0.00000  0.15506
      15     H     0.42500  0.42500  0.00000  0.15000
      16     C     3.15231  3.15231  0.00000 -0.30462
      17     H     0.42409  0.42409  0.00000  0.15182
      18     H     0.42150  0.42150  0.00000  0.15700
      19     C     3.24100  3.24100  0.00000 -0.48199
      20     H     0.42103  0.42103  0.00000  0.15794
      21     H     0.42376  0.42376  0.00000  0.15247
      22     H     0.42242  0.42242  0.00000  0.15516
      23     H     0.41952  0.41952  0.00000  0.16096
      24     H     0.42051  0.42051  0.00000  0.15899

   Total alpha = 33.00000, Total beta = 33.00000, Total charge =  0.00000
