  ==> Input File <==

--------------------------------------------------------------------------
set {
	reference rhf
	basis cc-pvtz
}

set_num_threads( 4 )
memory 2 gb

molecule MOL {
0 1

H	 -0.000342	 -0.223902	 -3.352295
C	 -0.027146	 0.371068	 -2.446756
C	 0.024493	 -0.518541	 -1.216015
H	 -0.932586	 0.964979	 -2.449855
H	 0.819708	 1.049865	 -2.473332
N	 -0.042516	 0.263377	 -0.000000
H	 -0.822211	 -1.197105	 -1.225584
H	 0.921114	 -1.142847	 -1.255206
C	 0.024493	 -0.518541	 1.216015
H	 0.682568	 0.950412	 -0.000000
C	 0.881216	 0.168276	 2.266302
H	 -0.985394	 -0.636534	 1.595032
H	 0.406851	 -1.526919	 1.036579
H	 0.490852	 1.152741	 2.492150
H	 0.906528	 -0.412307	 3.181174
H	 1.903977	 0.283764	 1.920967

	symmetry c1
}
set optking {
	frozen_dihedral = ("
		12 9 6 3
	")
}

ee = optimize('scf')
oeprop('DIPOLE', 'QUADRUPOLE', 'MULLIKEN_CHARGES')
f=open( 'psi4out.xyz', 'w' )
f.write( "16  " )
f.write( str(ee) + "\n" )
f.write( MOL.save_string_xyz() )
f.close()
--------------------------------------------------------------------------

    Molecular point group: c1
  Charge       = 0
  Multiplicity = 1
  Basis Set: CC-PVTZ
  Basis Set:
  @DF-RHF Final Energy:  -212.39062138319821
    Total Energy =                       -212.3906213831981518
    Molecular point group: c1
  Basis Set: CC-PVTZ
  Basis Set:
  Basis Set: CC-PVTZ
  Basis Set:
  @DF-RHF Final Energy:  -212.39091956026340
    Total Energy =                       -212.3909195602632280
  Basis Set: CC-PVTZ
  Basis Set:
  Basis Set: CC-PVTZ
  Basis Set:
  @DF-RHF Final Energy:  -212.39097085481544
    Total Energy =                       -212.3909708548153503
  Basis Set: CC-PVTZ
  Basis Set:
  Basis Set: CC-PVTZ
  Basis Set:
  @DF-RHF Final Energy:  -212.39097259005212
    Total Energy =                       -212.3909725900521721
  Basis Set: CC-PVTZ
  Basis Set:
  Charge       = 0
  Multiplicity = 1
  Basis Set: CC-PVTZ
  Basis Set:

    Orbital Energies (a.u.)
    -----------------------

    Doubly Occupied:

       1A    -15.527259     2A    -11.239010     3A    -11.238789
       4A    -11.210980     5A    -11.206072     6A     -1.205102
       7A     -1.029870     8A     -0.964219     9A     -0.835004
      10A     -0.822846    11A     -0.651033    12A     -0.629368
      13A     -0.616092    14A     -0.586015    15A     -0.553024
      16A     -0.522092    17A     -0.507563    18A     -0.492613
      19A     -0.486026    20A     -0.472515    21A     -0.360219

  @DF-RHF Final Energy:  -212.39097274137788

   => Energetics <=

    Nuclear Repulsion Energy =            189.6315849531402478
    One-Electron Energy =                -661.7336991712966210
    Two-Electron Energy =                 259.7111414767786641
    DFT Exchange-Correlation Energy =       0.0000000000000000
    Empirical Dispersion Energy =           0.0000000000000000
    PCM Polarization Energy =               0.0000000000000000
    EFP Energy =                            0.0000000000000000
    Total Energy =                       -212.3909727413777091
    Molecular point group: c1
  Basis Set: CC-PVTZ
  Basis Set:

  -Total Gradient:
     Atom            X                  Y                   Z
    ------   -----------------  -----------------  -----------------
       1        0.000000032056     0.000002314282    -0.000002649865
       2        0.000006432820    -0.000002852796    -0.000005670256
       3        0.003025915848     0.000271111580     0.000031430007
       4        0.000001067370    -0.000003106910     0.000002654767
       5        0.000001364670     0.000001405193    -0.000001546029
       6       -0.004202921115     0.000431277829     0.000519205108
       7       -0.000002790264    -0.000008998350    -0.000007281442
       8        0.000003046311    -0.000003018446    -0.000003727174
       9        0.000750542542    -0.003990451401    -0.002621534601
      10       -0.000009709292     0.000009875069     0.000001817744
      11        0.000012410514    -0.000008655602    -0.000007139282
      12        0.000441184464     0.003302969225     0.002071872469
      13       -0.000005384244    -0.000007631203     0.000008213096
      14       -0.000002216116     0.000007609492     0.000002759705
      15       -0.000002050280    -0.000002937744     0.000011336704
      16       -0.000016925283     0.000001089783     0.000000259046

  **** Optimization is complete! (in 5 steps) ****
    Final optimized geometry and variables:
    Molecular point group: c1

    Geometry (in Angstrom), charge = 0, multiplicity = 1:

    H           -0.194439638336    -0.170686094418    -3.323572908247
    C           -0.222218157460     0.418789620560    -2.414403518024
    C           -0.165524760019    -0.477621647107    -1.189200698987
    H           -1.129393836324     1.009952778505    -2.412727639755
    H            0.622354207962     1.100719808371    -2.437567062953
    N           -0.222191355143     0.299390655802     0.031768027710
    H           -1.013361800000    -1.155183117968    -1.200854846451
    H            0.729515670912    -1.103071813189    -1.234849587503
    C           -0.155276920532    -0.480977760832     1.258114001639
    H            0.514813110371     0.971623964885     0.021950852372
    C            0.690512111241     0.212154409869     2.316574943977
    H           -1.156921851268    -0.602686160447     1.658938867973
    H            0.247550156365    -1.474971169183     1.072686662266
    H            0.311409514975     1.208474638077     2.516081451320
    H            0.675632905106    -0.343988109606     3.246303468803
    H            1.723880845672     0.301313083494     1.996503820670

  Mulliken Charges: (a.u.)
   Center  Symbol    Alpha    Beta     Spin     Total
       1     H     0.45369  0.45369  0.00000  0.09262
       2     C     3.14334  3.14334  0.00000 -0.28668
       3     C     3.02217  3.02217  0.00000 -0.04435
       4     H     0.44930  0.44930  0.00000  0.10139
       5     H     0.45976  0.45976  0.00000  0.08048
       6     N     3.63657  3.63657  0.00000 -0.27315
       7     H     0.45800  0.45800  0.00000  0.08400
       8     H     0.47387  0.47387  0.00000  0.05225
       9     C     3.01755  3.01755  0.00000 -0.03510
      10     H     0.44713  0.44713  0.00000  0.10575
      11     C     3.15021  3.15021  0.00000 -0.30041
      12     H     0.45876  0.45876  0.00000  0.08249
      13     H     0.47102  0.47102  0.00000  0.05796
      14     H     0.45010  0.45010  0.00000  0.09980
      15     H     0.45039  0.45039  0.00000  0.09922
      16     H     0.45814  0.45814  0.00000  0.08372

   Total alpha = 21.00000, Total beta = 21.00000, Total charge = -0.00000
