  ==> Input File <==

--------------------------------------------------------------------------
set {
	reference rhf
	basis cc-pvtz
}

set_num_threads( 4 )
memory 2 gb

molecule MOL {
0 1

H	 -0.366580	 2.045936	 -0.305741
C	 0.351829	 1.335402	 0.083179
N	 -0.000018	 0.000080	 -0.334836
H	 1.327156	 1.599860	 -0.305475
H	 0.380566	 1.445403	 1.171445
C	 -1.049126	 -0.562072	 0.481091
C	 -0.319326	 -0.059097	 -1.740816
H	 -1.238687	 -1.586186	 0.185541
H	 -0.747535	 -0.564901	 1.520909
H	 -1.989538	 -0.008291	 0.403485
H	 0.515775	 0.305612	 -2.325432
H	 -0.509913	 -1.083725	 -2.033971
H	 -1.199510	 0.536335	 -2.001294

	symmetry c1
}
set optking {
	frozen_dihedral = ("
		6 3 2 1
	")
}

ee = optimize('scf')
oeprop('DIPOLE', 'QUADRUPOLE', 'MULLIKEN_CHARGES')
f=open( 'psi4out.xyz', 'w' )
f.write( "13  " )
f.write( str(ee) + "\n" )
f.write( MOL.save_string_xyz() )
f.close()
--------------------------------------------------------------------------

    Molecular point group: c1
  Charge       = 0
  Multiplicity = 1
  Basis Set: CC-PVTZ
  Basis Set:
  @DF-RHF Final Energy:  -173.33217928368637
    Total Energy =                       -173.3321792836864006
    Molecular point group: c1
  Basis Set: CC-PVTZ
  Basis Set:
  Basis Set: CC-PVTZ
  Basis Set:
  @DF-RHF Final Energy:  -173.33292313648718
    Total Energy =                       -173.3329231364871532
  Basis Set: CC-PVTZ
  Basis Set:
  Basis Set: CC-PVTZ
  Basis Set:
  @DF-RHF Final Energy:  -173.33301180166865
    Total Energy =                       -173.3330118016685901
  Basis Set: CC-PVTZ
  Basis Set:
  Basis Set: CC-PVTZ
  Basis Set:
  @DF-RHF Final Energy:  -173.33301447062615
    Total Energy =                       -173.3330144706260967
  Basis Set: CC-PVTZ
  Basis Set:
  Charge       = 0
  Multiplicity = 1
  Basis Set: CC-PVTZ
  Basis Set:

    Orbital Energies (a.u.)
    -----------------------

    Doubly Occupied:

       1A    -15.537804     2A    -11.234356     3A    -11.234327
       4A    -11.234186     5A     -1.225930     6A     -0.953238
       7A     -0.952343     8A     -0.806071     9A     -0.641887
      10A     -0.632315    11A     -0.630914    12A     -0.546364
      13A     -0.541731    14A     -0.517379    15A     -0.504141
      16A     -0.502556    17A     -0.345498

  @DF-RHF Final Energy:  -173.33301475669782

   => Energetics <=

    Nuclear Repulsion Energy =            139.3048896412961994
    One-Electron Energy =                -509.1937309887511560
    Two-Electron Energy =                 196.5558265907571354
    DFT Exchange-Correlation Energy =       0.0000000000000000
    Empirical Dispersion Energy =           0.0000000000000000
    PCM Polarization Energy =               0.0000000000000000
    EFP Energy =                            0.0000000000000000
    Total Energy =                       -173.3330147566978212
    Molecular point group: c1
  Basis Set: CC-PVTZ
  Basis Set:

  -Total Gradient:
     Atom            X                  Y                   Z
    ------   -----------------  -----------------  -----------------
       1        0.001872846534     0.000365924487    -0.002883976891
       2       -0.001705273122    -0.000848462205     0.004379497898
       3       -0.001976083340     0.001497100838    -0.003089234903
       4       -0.000009109936    -0.000000265763    -0.000013414570
       5       -0.000002250972    -0.000003204385     0.000002669657
       6        0.001806839220    -0.000998166214     0.001589055104
       7       -0.000007670075    -0.000002832838    -0.000008090567
       8       -0.000007035941    -0.000005186400     0.000003765383
       9        0.000002898125     0.000000788353    -0.000000432082
      10        0.000016892867     0.000001146685    -0.000003840304
      11       -0.000002110508     0.000001538945     0.000008104742
      12       -0.000000145770    -0.000005604495    -0.000000316555
      13        0.000010202918    -0.000002777009     0.000016213087

  **** Optimization is complete! (in 5 steps) ****
    Final optimized geometry and variables:
    Molecular point group: c1

    Geometry (in Angstrom), charge = 0, multiplicity = 1:

    H           -0.072725957999     1.916052736098     0.102628889163
    C            0.625332879135     1.152280641263     0.457414823409
    N            0.254600419489    -0.181023850489     0.047939410514
    H            1.600115497500     1.403463531962     0.054282369432
    H            0.686381835733     1.211298359450     1.535450862860
    C           -0.780918810149    -0.757702111368     0.868796793184
    C           -0.035349168000    -0.259667346282    -1.360609244251
    H           -0.963886372280    -1.780676375526     0.564195555760
    H           -0.467615797594    -0.769964829221     1.904728585356
    H           -1.730539243097    -0.216180216368     0.809028577392
    H            0.805170679237     0.115540701134    -1.931558407179
    H           -0.201357949588    -1.289815745384    -1.649874132240
    H           -0.919618585090     0.319126272660    -1.645402602238

  Mulliken Charges: (a.u.)
   Center  Symbol    Alpha    Beta     Spin     Total
       1     H     0.47316  0.47316  0.00000  0.05368
       2     C     3.08851  3.08851  0.00000 -0.17703
       3     N     3.59584  3.59584  0.00000 -0.19168
       4     H     0.45203  0.45203  0.00000  0.09594
       5     H     0.45372  0.45372  0.00000  0.09257
       6     C     3.08805  3.08805  0.00000 -0.17610
       7     C     3.08932  3.08932  0.00000 -0.17864
       8     H     0.45310  0.45310  0.00000  0.09379
       9     H     0.45249  0.45249  0.00000  0.09503
      10     H     0.47457  0.47457  0.00000  0.05086
      11     H     0.45299  0.45299  0.00000  0.09402
      12     H     0.45282  0.45282  0.00000  0.09436
      13     H     0.47340  0.47340  0.00000  0.05320

   Total alpha = 17.00000, Total beta = 17.00000, Total charge = -0.00000
