  ==> Input File <==

--------------------------------------------------------------------------
set {
	reference rhf
	basis 6-31G*
}

set_num_threads( 4 )
memory 2 gb

molecule MOL {
0 1

O	 3.236203	 0.743362	 -0.966478
C	 2.843464	 0.164689	 -0.000222
C	 1.546494	 -0.624492	 -0.000609
C	 3.621242	 0.181142	 1.299757
C	 0.291004	 0.242674	 0.000989
H	 1.557904	 -1.283758	 -0.867573
H	 1.558622	 -1.285963	 0.864672
C	 -0.994322	 -0.586602	 0.000262
H	 0.309117	 0.896430	 -0.865270
H	 0.309661	 0.894078	 0.869017
C	 -2.259874	 0.272531	 0.000494
H	 -1.004862	 -1.240012	 -0.870939
H	 -1.005220	 -1.241071	 0.870675
C	 -3.549786	 -0.549746	 -0.000374
H	 -2.250389	 0.926680	 -0.869574
H	 -2.250838	 0.925513	 0.871430
C	 -4.809590	 0.315458	 -0.000369
H	 -3.560515	 -1.202009	 -0.871156
H	 -3.561123	 -1.202955	 0.869711
H	 -4.844746	 0.956611	 -0.876632
H	 -5.706986	 -0.295590	 -0.001609
H	 -4.845960	 0.954827	 0.877144
H	 3.885437	 -0.829778	 1.596169
H	 4.520739	 0.768704	 1.179301
H	 3.016769	 0.603138	 2.097357

	symmetry c1
}
set optking {
	frozen_dihedral = ("
		1 2 3 6
	")
}

ee = optimize('scf')
oeprop('DIPOLE', 'QUADRUPOLE', 'MULLIKEN_CHARGES')
f=open( 'psi4out.xyz', 'w' )
f.write( "25  " )
f.write( str(ee) + "\n" )
f.write( MOL.save_string_xyz() )
f.close()
--------------------------------------------------------------------------

    Molecular point group: c1
  Charge       = 0
  Multiplicity = 1
  Basis Set: 6-31G*
  Basis Set:
  @DF-RHF Final Energy:  -387.13361782195562
    Total Energy =                       -387.1336178219560225
    Molecular point group: c1
  Basis Set: 6-31G*
  Basis Set:
  Basis Set: 6-31G*
  Basis Set:
  @DF-RHF Final Energy:  -387.13415192554703
    Total Energy =                       -387.1341519255472576
  Basis Set: 6-31G*
  Basis Set:
  Basis Set: 6-31G*
  Basis Set:
  @DF-RHF Final Energy:  -387.13448401426598
    Total Energy =                       -387.1344840142652401
  Basis Set: 6-31G*
  Basis Set:
  Basis Set: 6-31G*
  Basis Set:
  @DF-RHF Final Energy:  -387.13453783750975
    Total Energy =                       -387.1345378375096971
  Basis Set: 6-31G*
  Basis Set:
  Basis Set: 6-31G*
  Basis Set:
  @DF-RHF Final Energy:  -387.13454813372789
    Total Energy =                       -387.1345481337278898
  Basis Set: 6-31G*
  Basis Set:
  Basis Set: 6-31G*
  Basis Set:
  @DF-RHF Final Energy:  -387.13455062421946
    Total Energy =                       -387.1345506242194006
  Basis Set: 6-31G*
  Basis Set:
  Charge       = 0
  Multiplicity = 1
  Basis Set: 6-31G*
  Basis Set:

    Orbital Energies (a.u.)
    -----------------------

    Doubly Occupied:

       1A    -20.547332     2A    -11.324759     3A    -11.229317
       4A    -11.228375     5A    -11.227542     6A    -11.220912
       7A    -11.217909     8A    -11.217072     9A    -11.210359
      10A     -1.393279    11A     -1.097494    12A     -1.058063
      13A     -1.013358    14A     -0.970709    15A     -0.892916
      16A     -0.816762    17A     -0.794469    18A     -0.732124
      19A     -0.666679    20A     -0.647465    21A     -0.637139
      22A     -0.610724    23A     -0.602822    24A     -0.586703
      25A     -0.568290    26A     -0.558516    27A     -0.541196
      28A     -0.538183    29A     -0.509999    30A     -0.496934
      31A     -0.488691    32A     -0.475227    33A     -0.467075
      34A     -0.465942    35A     -0.451685    36A     -0.395860

  @DF-RHF Final Energy:  -387.13455102371154

   => Energetics <=

    Nuclear Repulsion Energy =            438.8327503244861418
    One-Electron Energy =               -1394.1308411351574250
    Two-Electron Energy =                 568.1635397869602002
    DFT Exchange-Correlation Energy =       0.0000000000000000
    Empirical Dispersion Energy =           0.0000000000000000
    PCM Polarization Energy =               0.0000000000000000
    EFP Energy =                            0.0000000000000000
    Total Energy =                       -387.1345510237110830
    Molecular point group: c1
  Basis Set: 6-31G*
  Basis Set:

  -Total Gradient:
     Atom            X                  Y                   Z
    ------   -----------------  -----------------  -----------------
       1       -0.000010803871     0.000019203650    -0.000015410061
       2       -0.000010633787    -0.000006021804     0.000024664658
       3        0.000018969068    -0.000045944319    -0.000017243210
       4        0.000012711562     0.000001506431    -0.000012254492
       5       -0.000017596093     0.000022884249    -0.000010300271
       6       -0.000006452013    -0.000002816903     0.000016586309
       7        0.000003479625     0.000004386114    -0.000013070878
       8        0.000016322736    -0.000001589620    -0.000012227860
       9        0.000002357282     0.000012676479    -0.000001334267
      10       -0.000008285021    -0.000011151647     0.000013234337
      11        0.000000998202     0.000004016597    -0.000003294817
      12        0.000008658595    -0.000005826048     0.000008103470
      13       -0.000005202762     0.000007972637     0.000002868144
      14       -0.000001517614    -0.000000102940     0.000000001406
      15        0.000003193358    -0.000001233862     0.000002648080
      16       -0.000003213726     0.000001086654     0.000002317831
      17       -0.000000618653    -0.000000769010     0.000000997066
      18        0.000001338794    -0.000000615345     0.000001015876
      19       -0.000001881167     0.000000829111     0.000000502199
      20        0.000000745830    -0.000000270726     0.000000300447
      21       -0.000000036745     0.000000490422    -0.000000575073
      22       -0.000000753291    -0.000000078171     0.000000255359
      23       -0.000007519978    -0.000004934911     0.000012368622
      24        0.000006204377    -0.000003986729     0.000004044911
      25       -0.000000464706     0.000010289687    -0.000004197788

  **** Optimization is complete! (in 7 steps) ****
    Final optimized geometry and variables:
    Molecular point group: c1

    Geometry (in Angstrom), charge = 0, multiplicity = 1:

    O            3.142167298306     0.752988296634    -1.009293534861
    C            2.842531586460     0.139997898600    -0.030124696894
    C            1.577480051297    -0.702093376357     0.000874795062
    C            3.685322938289     0.184473456023     1.224269069321
    C            0.322555423148     0.183301414760    -0.004676266904
    H            1.581507836568    -1.328901263879    -0.885310374761
    H            1.571675595524    -1.354141607139     0.869327594529
    C           -0.972155575513    -0.630237544446    -0.023363221430
    H            0.364764874042     0.834068795810    -0.871917077452
    H            0.329233495629     0.829759724871     0.871266172605
    C           -2.227574045052     0.243678005449    -0.035573113290
    H           -0.974988801940    -1.277613048092    -0.898277505470
    H           -0.999442134842    -1.287985575442     0.843758012581
    C           -3.526018248233    -0.564835388436    -0.060190565804
    H           -2.198330740012     0.902612979293    -0.901426512845
    H           -2.224837153585     0.891023171825     0.839885682780
    C           -4.776175538646     0.314099662804    -0.072336186690
    H           -3.530925961792    -1.210886335469    -0.935450480918
    H           -3.556644853768    -1.223566472957     0.805204424602
    H           -4.792059770360     0.960926059393    -0.944917650682
    H           -5.679741296802    -0.287358307023    -0.090224047110
    H           -4.818355893980     0.948201304253     0.808775393559
    H            4.070577026072    -0.807146648920     1.446073686512
    H            4.509212728978     0.872065431271     1.093461705153
    H            3.081868971529     0.490378808296     2.074500988022

  Mulliken Charges: (a.u.)
   Center  Symbol    Alpha    Beta     Spin     Total
       1     O     4.26304  4.26304  0.00000 -0.52607
       2     C     2.73645  2.73645  0.00000  0.52711
       3     C     3.20103  3.20103  0.00000 -0.40205
       4     C     3.28946  3.28946  0.00000 -0.57891
       5     C     3.16019  3.16019  0.00000 -0.32038
       6     H     0.40176  0.40176  0.00000  0.19648
       7     H     0.41683  0.41683  0.00000  0.16634
       8     C     3.15238  3.15238  0.00000 -0.30476
       9     H     0.40435  0.40435  0.00000  0.19131
      10     H     0.42108  0.42108  0.00000  0.15784
      11     C     3.15156  3.15156  0.00000 -0.30313
      12     H     0.42078  0.42078  0.00000  0.15844
      13     H     0.42367  0.42367  0.00000  0.15266
      14     C     3.15183  3.15183  0.00000 -0.30367
      15     H     0.42132  0.42132  0.00000  0.15736
      16     H     0.42371  0.42371  0.00000  0.15258
      17     C     3.23949  3.23949  0.00000 -0.47898
      18     H     0.42233  0.42233  0.00000  0.15534
      19     H     0.42331  0.42331  0.00000  0.15338
      20     H     0.42092  0.42092  0.00000  0.15816
      21     H     0.41892  0.41892  0.00000  0.16215
      22     H     0.42171  0.42171  0.00000  0.15659
      23     H     0.40741  0.40741  0.00000  0.18519
      24     H     0.39719  0.39719  0.00000  0.20562
      25     H     0.40929  0.40929  0.00000  0.18142

   Total alpha = 36.00000, Total beta = 36.00000, Total charge =  0.00000
