  ==> Input File <==

--------------------------------------------------------------------------
set {
	reference rhf
	basis 6-31G*
}

set_num_threads( 1 )
memory 2 gb

molecule MOL {
0 1

H	 2.247647	 0.904876	 1.145903
O	 1.378631	 0.519956	 1.204512
C	 1.050492	 0.053836	 0.000068
C	 -0.318135	 -0.576402	 0.000164
O	 1.779280	 0.145339	 -0.933470
C	 -1.454360	 0.441875	 -0.000474
H	 -0.374042	 -1.230163	 -0.866135
H	 -0.374274	 -1.229227	 0.867154
C	 -2.826123	 -0.230780	 0.000056
H	 -1.357605	 1.085198	 -0.868380
H	 -1.357504	 1.086451	 0.866496
H	 -2.959731	 -0.858053	 -0.876869
H	 -3.619374	 0.509403	 -0.000080
H	 -2.959371	 -0.857318	 0.877556

	symmetry c1
}
set optking {
	frozen_dihedral = ("
		7 4 6 10,
		1 2 3 5
	")
}

ee = energy('scf')
oeprop('DIPOLE', 'QUADRUPOLE', 'MULLIKEN_CHARGES')
f=open( 'psi4out.xyz', 'w' )
f.write( "14  " )
f.write( str(ee) + "\n" )
f.write( MOL.save_string_xyz() )
f.close()
--------------------------------------------------------------------------

    Molecular point group: c1

    Geometry (in Angstrom), charge = 0, multiplicity = 1:

       Center              X                  Y                   Z               Mass
    ------------   -----------------  -----------------  -----------------  -----------------
           H          2.280643267995     0.833211377901     1.083580229480     1.007825032070
           O          1.411627267995     0.448291377901     1.142189229480    15.994914619560
           C          1.083488267995    -0.017828622099    -0.062254770520    12.000000000000
           C         -0.285138732005    -0.648066622099    -0.062158770520    12.000000000000
           O          1.812276267995     0.073674377901    -0.995792770520    15.994914619560
           C         -1.421363732005     0.370210377901    -0.062796770520    12.000000000000
           H         -0.341045732005    -1.301827622099    -0.928457770520     1.007825032070
           H         -0.341277732005    -1.300891622099     0.804831229480     1.007825032070
           C         -2.793126732005    -0.302444622099    -0.062266770520    12.000000000000
           H         -1.324608732005     1.013533377901    -0.930702770520     1.007825032070
           H         -1.324507732005     1.014786377901     0.804173229480     1.007825032070
           H         -2.926734732005    -0.929717622099    -0.939191770520     1.007825032070
           H         -3.586377732005     0.437738377901    -0.062402770520     1.007825032070
           H         -2.926374732005    -0.928982622099     0.815233229480     1.007825032070

  Charge       = 0
  Multiplicity = 1
  Basis Set: 6-31G*
  Basis Set:

    Orbital Energies (a.u.)
    -----------------------

    Doubly Occupied:

       1A    -20.613226     2A    -20.550476     3A    -11.380313
       4A    -11.239306     5A    -11.235670     6A    -11.221746
       7A     -1.474436     8A     -1.364883     9A     -1.087589
      10A     -0.979937    11A     -0.852413    12A     -0.810672
      13A     -0.701725    14A     -0.684942    15A     -0.641432
      16A     -0.634849    17A     -0.594305    18A     -0.567419
      19A     -0.549881    20A     -0.519572    21A     -0.501582
      22A     -0.487901    23A     -0.473218    24A     -0.438117

  @DF-RHF Final Energy:  -305.87891349235082

   => Energetics <=

    Nuclear Repulsion Energy =            240.2092518317936651
    One-Electron Energy =                -892.9650881097301180
    Two-Electron Energy =                 346.8769227855855206
    DFT Exchange-Correlation Energy =       0.0000000000000000
    Empirical Dispersion Energy =           0.0000000000000000
    PCM Polarization Energy =               0.0000000000000000
    EFP Energy =                            0.0000000000000000
    Total Energy =                       -305.8789134923508755

  Mulliken Charges: (a.u.)
   Center  Symbol    Alpha    Beta     Spin     Total
       1     H     0.26786  0.26786  0.00000  0.46427
       2     O     4.34683  4.34683  0.00000 -0.69366
       3     C     2.63447  2.63447  0.00000  0.73106
       4     C     3.19699  3.19699  0.00000 -0.39397
       5     O     4.27770  4.27770  0.00000 -0.55540
       6     C     3.16410  3.16410  0.00000 -0.32821
       7     H     0.39892  0.39892  0.00000  0.20216
       8     H     0.40322  0.40322  0.00000  0.19356
       9     C     3.24184  3.24184  0.00000 -0.48368
      10     H     0.40993  0.40993  0.00000  0.18014
      11     H     0.40795  0.40795  0.00000  0.18411
      12     H     0.41763  0.41763  0.00000  0.16474
      13     H     0.41429  0.41429  0.00000  0.17142
      14     H     0.41827  0.41827  0.00000  0.16347

   Total alpha = 24.00000, Total beta = 24.00000, Total charge = -0.00000
