  ==> Input File <==

--------------------------------------------------------------------------
set {
	reference rhf
	basis 6-31G*
}

set_num_threads( 4 )
memory 2 gb

molecule MOL {
0 1

O	 1.223629	 1.317591	 -0.463620
C	 0.861134	 0.272526	 -0.014869
C	 -0.623889	 -0.118271	 -0.003699
C	 1.881417	 -0.692395	 0.563018
C	 -0.895332	 -1.256461	 -1.002431
C	 -1.473649	 1.103340	 -0.370799
C	 -0.983900	 -0.581483	 1.422328
H	 -0.615301	 -0.972064	 -2.012700
H	 -1.954261	 -1.493213	 -1.010207
H	 -0.360539	 -2.164946	 -0.747760
H	 -1.227476	 1.468527	 -1.361691
H	 -2.526716	 0.838935	 -0.358521
H	 -1.314819	 1.915855	 0.325860
H	 -2.039679	 -0.828001	 1.472951
H	 -0.427637	 -1.464071	 1.720694
H	 -0.789023	 0.202493	 2.147048
H	 2.089661	 -1.474771	 -0.160849
H	 2.797449	 -0.152197	 0.758439
H	 1.537412	 -1.172033	 1.471219

	symmetry c1
}
set optking {
	frozen_dihedral = ("
		1 2 3 5
	")
}

ee = optimize('scf')
oeprop('DIPOLE', 'QUADRUPOLE', 'MULLIKEN_CHARGES')
f=open( 'psi4out.xyz', 'w' )
f.write( "19  " )
f.write( str(ee) + "\n" )
f.write( MOL.save_string_xyz() )
f.close()
--------------------------------------------------------------------------

    Molecular point group: c1
  Charge       = 0
  Multiplicity = 1
  Basis Set: 6-31G*
  Basis Set:
  @DF-RHF Final Energy:  -309.06076354986294
    Total Energy =                       -309.0607635498630543
    Molecular point group: c1
  Basis Set: 6-31G*
  Basis Set:
  Basis Set: 6-31G*
  Basis Set:
  @DF-RHF Final Energy:  -309.06068625667012
    Total Energy =                       -309.0606862566697828
  Basis Set: 6-31G*
  Basis Set:
  Basis Set: 6-31G*
  Basis Set:
  @DF-RHF Final Energy:  -309.06052659704380
    Total Energy =                       -309.0605265970437472
  Basis Set: 6-31G*
  Basis Set:
  Basis Set: 6-31G*
  Basis Set:
  @DF-RHF Final Energy:  -309.06227847344121
    Total Energy =                       -309.0622784734414381
  Basis Set: 6-31G*
  Basis Set:
  @DF-RHF Final Energy:  -309.06227459248805
    Total Energy =                       -309.0622745924882793
  @DF-RHF Final Energy:  -309.06244066272768
    Total Energy =                       -309.0624406627276812
  @DF-RHF Final Energy:  -309.06256116854291
    Total Energy =                       -309.0625611685427430
  @DF-RHF Final Energy:  -309.06265557165199
    Total Energy =                       -309.0626555716521011
  @DF-RHF Final Energy:  -309.06273335161325
    Total Energy =                       -309.0627333516131330
  @DF-RHF Final Energy:  -309.06294248207575
    Total Energy =                       -309.0629424820755276
  Basis Set: 6-31G*
  Basis Set:
  @DF-RHF Final Energy:  -309.06305243973748
    Total Energy =                       -309.0630524397375893
  Basis Set: 6-31G*
  Basis Set:
  Basis Set: 6-31G*
  Basis Set:
  @DF-RHF Final Energy:  -309.06307061219542
    Total Energy =                       -309.0630706121949061
  Basis Set: 6-31G*
  Basis Set:
  Basis Set: 6-31G*
  Basis Set:
  @DF-RHF Final Energy:  -309.06307402150509
    Total Energy =                       -309.0630740215050878
  Basis Set: 6-31G*
  Basis Set:
  Charge       = 0
  Multiplicity = 1
  Basis Set: 6-31G*
  Basis Set:

    Orbital Energies (a.u.)
    -----------------------

    Doubly Occupied:

       1A    -20.548294     2A    -11.322750     3A    -11.246479
       4A    -11.226658     5A    -11.224702     6A    -11.224483
       7A    -11.208023     8A     -1.394601     9A     -1.109731
      10A     -1.001682    11A     -0.947013    12A     -0.934678
      13A     -0.835301    14A     -0.703548    15A     -0.664433
      16A     -0.631557    17A     -0.619470    18A     -0.598353
      19A     -0.592420    20A     -0.564616    21A     -0.546261
      22A     -0.544034    23A     -0.523535    24A     -0.513038
      25A     -0.498191    26A     -0.471358    27A     -0.466722
      28A     -0.392743

  @DF-RHF Final Energy:  -309.06307739236996

   => Energetics <=

    Nuclear Repulsion Energy =            326.2630369999663458
    One-Electron Energy =               -1065.5428826023462534
    Two-Electron Energy =                 430.2167682100102866
    DFT Exchange-Correlation Energy =       0.0000000000000000
    Empirical Dispersion Energy =           0.0000000000000000
    PCM Polarization Energy =               0.0000000000000000
    EFP Energy =                            0.0000000000000000
    Total Energy =                       -309.0630773923696779
    Molecular point group: c1
  Basis Set: 6-31G*
  Basis Set:

  -Total Gradient:
     Atom            X                  Y                   Z
    ------   -----------------  -----------------  -----------------
       1       -0.000060984557     0.000206719651     0.000485819405
       2        0.000104110957    -0.000360319633    -0.000608208252
       3       -0.000118216750     0.000414115753    -0.000141457427
       4       -0.000030484962    -0.000002526689     0.000033586826
       5        0.000084640019    -0.000250180050     0.000257869051
       6       -0.000001863048     0.000004916368    -0.000029750228
       7        0.000008137176    -0.000021091576     0.000001212445
       8        0.000005273676     0.000007900064     0.000004808764
       9       -0.000000110339     0.000008055072     0.000008251157
      10        0.000001253496    -0.000004072648     0.000006354275
      11       -0.000009286588     0.000010982590    -0.000000164284
      12        0.000001619156     0.000004531574    -0.000002939353
      13       -0.000002706946    -0.000003529556    -0.000000349265
      14        0.000002450942    -0.000000162401     0.000005842076
      15       -0.000018014811    -0.000002110648     0.000016764470
      16        0.000007490953    -0.000001294873    -0.000002346831
      17        0.000011558266    -0.000010178334    -0.000014693399
      18       -0.000001905949    -0.000002939852    -0.000002830469
      19        0.000017039310     0.000001185186    -0.000017768960

  **** Optimization is complete! (in 14 steps) ****
    Final optimized geometry and variables:
    Molecular point group: c1

    Geometry (in Angstrom), charge = 0, multiplicity = 1:

    O            1.217466613751     1.338336091562    -0.426235784520
    C            0.859506719073     0.275478386295    -0.017267891071
    C           -0.623053014385    -0.123451412624    -0.017913590069
    C            1.885906255402    -0.699322105520     0.533841698235
    C           -0.836085720000    -1.225448230282    -1.074667910043
    C           -1.477748711504     1.096962288794    -0.375930661043
    C           -1.029318822034    -0.652116727027     1.369398682683
    H           -0.529828208918    -0.886992945818    -2.059570071316
    H           -1.888507096131    -1.485603870898    -1.125367659400
    H           -0.287126767684    -2.131660756265    -0.842682505808
    H           -1.216270123246     1.487330188844    -1.350952518274
    H           -2.528430621610     0.822769485104    -0.385283738241
    H           -1.341303607997     1.896094733372     0.343452604629
    H           -2.087015124757    -0.894429592473     1.375044268811
    H           -0.487362828388    -1.551237698933     1.641974719822
    H           -0.858281156347     0.092405006705     2.141596409818
    H            1.666322072151    -1.731199109880     0.290557652851
    H            2.860040660581    -0.431132581532     0.148757985077
    H            1.911460751654    -0.615656219496     1.616515448080

  Mulliken Charges: (a.u.)
   Center  Symbol    Alpha    Beta     Spin     Total
       1     O     4.26386  4.26386  0.00000 -0.52771
       2     C     2.72526  2.72526  0.00000  0.54947
       3     C     3.07061  3.07061  0.00000 -0.14122
       4     C     3.28857  3.28857  0.00000 -0.57713
       5     C     3.24116  3.24116  0.00000 -0.48232
       6     C     3.22573  3.22573  0.00000 -0.45145
       7     C     3.24188  3.24188  0.00000 -0.48376
       8     H     0.41078  0.41078  0.00000  0.17843
       9     H     0.41290  0.41290  0.00000  0.17420
      10     H     0.41835  0.41835  0.00000  0.16331
      11     H     0.40831  0.40831  0.00000  0.18339
      12     H     0.42390  0.42390  0.00000  0.15221
      13     H     0.41376  0.41376  0.00000  0.17249
      14     H     0.41326  0.41326  0.00000  0.17349
      15     H     0.41704  0.41704  0.00000  0.16592
      16     H     0.41438  0.41438  0.00000  0.17124
      17     H     0.41076  0.41076  0.00000  0.17848
      18     H     0.39610  0.39610  0.00000  0.20781
      19     H     0.40341  0.40341  0.00000  0.19317

   Total alpha = 28.00000, Total beta = 28.00000, Total charge = -0.00000
