                              Psi4 1.0.54 Driver

  ==> Input File <==

--------------------------------------------------------------------------
set {
	reference rhf
	basis cc-pvtz
}

set_num_threads( 4 )
memory 2 gb

molecule MOL {
0 1

O	 1.669234	 -0.382742	 -0.585744
C	 0.860843	 0.273204	 -0.013120
C	 -0.623368	 -0.117453	 -0.005652
C	 1.293839	 1.526337	 0.721860
C	 -0.892588	 -1.253841	 -1.002900
C	 -1.473463	 1.100646	 -0.372896
C	 -0.981836	 -0.579025	 1.418506
H	 -0.609333	 -0.970024	 -2.010649
H	 -1.950451	 -1.487353	 -1.013175
H	 -0.360848	 -2.161259	 -0.746463
H	 -1.232203	 1.461623	 -1.364827
H	 -2.524364	 0.834451	 -0.354500
H	 -1.312381	 1.914833	 0.318657
H	 -2.035706	 -0.826342	 1.468082
H	 -0.425078	 -1.458934	 1.716857
H	 -0.788494	 0.205047	 2.140903
H	 1.351155	 1.314448	 1.783736
H	 2.273829	 1.812474	 0.372268
H	 0.600484	 2.345526	 0.589874

	symmetry c1
}
set optking {
	frozen_dihedral = ("
		1 2 3 5
	")
}

ee,wfn = optimize('scf', return_wfn=True)
oeprop( wfn, 'DIPOLE', 'QUADRUPOLE', 'MULLIKEN_CHARGES')
f=open( 'psi4out.xyz', 'w' )
f.write( "19  " )
f.write( str(ee) + "\n" )
f.write( MOL.save_string_xyz() )
f.close()
--------------------------------------------------------------------------

    Molecular point group: c1
  Charge       = 0
  Multiplicity = 1
  Basis Set: CC-PVTZ
  Basis Set:
  @DF-RHF Final Energy:  -309.17188301178555
    Total Energy =                       -309.1718830117858374
    Molecular point group: c1
  Basis Set: CC-PVTZ
  Basis Set:
  Basis Set: CC-PVTZ
  Basis Set:
  @DF-RHF Final Energy:  -309.17146080251445
    Total Energy =                       -309.1714608025139341
  Basis Set: CC-PVTZ
  Basis Set:
  Basis Set: CC-PVTZ
  Basis Set:
  @DF-RHF Final Energy:  -309.17206668402736
    Total Energy =                       -309.1720666840277545
  Basis Set: CC-PVTZ
  Basis Set:
  Basis Set: CC-PVTZ
  Basis Set:
  @DF-RHF Final Energy:  -309.17335732501743
    Total Energy =                       -309.1733573250173777
  Basis Set: CC-PVTZ
  Basis Set:
  @DF-RHF Final Energy:  -309.17329442662424
    Total Energy =                       -309.1732944266242384
  @DF-RHF Final Energy:  -309.17360422666695
    Total Energy =                       -309.1736042266669529
  @DF-RHF Final Energy:  -309.17376654081795
    Total Energy =                       -309.1737665408180078
  @DF-RHF Final Energy:  -309.17338561165616
    Total Energy =                       -309.1733856116559309
  @DF-RHF Final Energy:  -309.17396947488004
    Total Energy =                       -309.1739694748799252
  @DF-RHF Final Energy:  -309.17416424397686
    Total Energy =                       -309.1741642439764064
  Basis Set: CC-PVTZ
  Basis Set:
  @DF-RHF Final Energy:  -309.17420037846227
    Total Energy =                       -309.1742003784625581
  Basis Set: CC-PVTZ
  Basis Set:
  Basis Set: CC-PVTZ
  Basis Set:
  @DF-RHF Final Energy:  -309.17423663621736
    Total Energy =                       -309.1742366362174153
  Basis Set: CC-PVTZ
  Basis Set:
  Basis Set: CC-PVTZ
  Basis Set:
  @DF-RHF Final Energy:  -309.17425538063333
    Total Energy =                       -309.1742553806335536
  Basis Set: CC-PVTZ
  Basis Set:
  Charge       = 0
  Multiplicity = 1
  Basis Set: CC-PVTZ
  Basis Set:

    Orbital Energies (a.u.)
    -----------------------

    Doubly Occupied:

       1A    -20.537389     2A    -11.317751     3A    -11.245722
       4A    -11.225057     5A    -11.222497     6A    -11.222314
       7A    -11.206152     8A     -1.398472     9A     -1.110977
      10A     -1.002865    11A     -0.948044    12A     -0.935665
      13A     -0.835968    14A     -0.705411    15A     -0.666725
      16A     -0.633945    17A     -0.621289    18A     -0.600191
      19A     -0.593443    20A     -0.565589    21A     -0.546715
      22A     -0.544781    23A     -0.523894    24A     -0.514955
      25A     -0.501486    26A     -0.472704    27A     -0.468859
      28A     -0.394916

  @DF-RHF Final Energy:  -309.17425636365084

   => Energetics <=

    Nuclear Repulsion Energy =            326.8903516817774175
    One-Electron Energy =               -1067.0016659141713262
    Two-Electron Energy =                 430.9370578687428406
    DFT Exchange-Correlation Energy =       0.0000000000000000
    Empirical Dispersion Energy =           0.0000000000000000
    PCM Polarization Energy =               0.0000000000000000
    EFP Energy =                            0.0000000000000000
    Total Energy =                       -309.1742563636510113
    Molecular point group: c1
  Basis Set: CC-PVTZ
  Basis Set:

  -Total Gradient:
     Atom            X                  Y                   Z
    ------   -----------------  -----------------  -----------------
       1       -0.000073875127     0.000274631698    -0.000434291429
       2        0.000121974098    -0.000492327856     0.000713953627
       3       -0.000123707036     0.000369383949    -0.000520689304
       4        0.000045064162     0.000044412944    -0.000022472722
       5        0.000056645675    -0.000189225006     0.000270840789
       6        0.000013530868    -0.000033575628     0.000006495591
       7       -0.000008604669     0.000022766713    -0.000024371162
       8        0.000010155958     0.000014804021    -0.000036234969
       9       -0.000039177211    -0.000008913480     0.000012840619
      10        0.000030283391    -0.000025658912     0.000018023114
      11        0.000016334008     0.000001949361    -0.000038209354
      12       -0.000048787988    -0.000012090070     0.000000861607
      13        0.000010186682     0.000031454884     0.000037555192
      14        0.000001223808    -0.000000239776     0.000006729590
      15       -0.000000028776     0.000002752001    -0.000005601068
      16       -0.000009395953    -0.000008108108     0.000003003993
      17        0.000004034019    -0.000013351871    -0.000029468741
      18       -0.000017348164     0.000022078468     0.000009264666
      19        0.000011492260    -0.000000743331     0.000031769964

  **** Optimization is complete! (in 14 steps) ****
    Final optimized geometry and variables:
    Molecular point group: c1

    Geometry (in Angstrom), charge = 0, multiplicity = 1:

    O            1.713369174993    -0.445318616935    -0.550977233273
    C            0.875355343194     0.218569125386    -0.032757438765
    C           -0.596371713814    -0.215917469806    -0.021848933570
    C            1.258525618806     1.531847728104     0.621681123474
    C           -0.781487412730    -1.414871063599    -0.953928491915
    C           -1.496192818504     0.941359500908    -0.480665902498
    C           -0.969178033583    -0.627747336324     1.413686789222
    H           -0.512019228827    -1.165325928523    -1.972188497240
    H           -1.818508178620    -1.731426814117    -0.943501358165
    H           -0.164619544529    -2.248071656938    -0.648655196308
    H           -1.230321280166     1.275538743946    -1.477657083058
    H           -2.528354359236     0.613021603375    -0.508318752517
    H           -1.442013815316     1.792752101514     0.186047561973
    H           -1.990532106789    -0.989008275813     1.435698849966
    H           -0.326914546853    -1.425122606748     1.769050489049
    H           -0.900140576490     0.198134128810     2.110494319242
    H            0.710786613991     1.722888448362     1.533557986409
    H            2.318821914714     1.522940651123     0.822581109818
    H            1.044328841280     2.342688985729    -0.065819542281

  Mulliken Charges: (a.u.)
   Center  Symbol    Alpha    Beta     Spin     Total
       1     O     4.17493  4.17493  0.00000 -0.34985
       2     C     2.85377  2.85377  0.00000  0.29245
       3     C     3.00908  3.00908  0.00000 -0.01816
       4     C     3.16280  3.16280  0.00000 -0.32561
       5     C     3.14975  3.14975  0.00000 -0.29949
       6     C     3.16349  3.16349  0.00000 -0.32699
       7     C     3.15986  3.15986  0.00000 -0.31971
       8     H     0.44556  0.44556  0.00000  0.10889
       9     H     0.45206  0.45206  0.00000  0.09587
      10     H     0.44053  0.44053  0.00000  0.11893
      11     H     0.44277  0.44277  0.00000  0.11445
      12     H     0.44299  0.44299  0.00000  0.11403
      13     H     0.44591  0.44591  0.00000  0.10819
      14     H     0.44495  0.44495  0.00000  0.11009
      15     H     0.44193  0.44193  0.00000  0.11614
      16     H     0.44584  0.44584  0.00000  0.10832
      17     H     0.44682  0.44682  0.00000  0.10636
      18     H     0.43180  0.43180  0.00000  0.13640
      19     H     0.44516  0.44516  0.00000  0.10967

   Total alpha = 28.00000, Total beta = 28.00000, Total charge = -0.00000

*** Psi4 exiting successfully. Buy a developer a beer!
