  ==> Input File <==

--------------------------------------------------------------------------
set {
	reference rhf
	basis 6-31G*
}

set_num_threads( 1 )
memory 2 gb

molecule MOL {
0 1

O	 3.225979	 0.970355	 -0.599647
C	 2.701189	 0.057885	 -0.047330
C	 1.245376	 -0.013843	 0.345420
O	 3.347903	 -1.046386	 0.304773
C	 0.455112	 1.231400	 -0.050772
H	 0.838542	 -0.913825	 -0.103701
H	 1.208210	 -0.175333	 1.419774
C	 -0.998893	 1.219485	 0.433193
H	 0.482531	 1.345121	 -1.130325
H	 0.957290	 2.103070	 0.354729
C	 -1.920834	 0.253803	 -0.316870
H	 -1.395572	 2.227089	 0.332675
H	 -1.024880	 0.990215	 1.497509
C	 -3.380964	 0.358690	 0.128124
H	 -1.855378	 0.453948	 -1.385268
H	 -1.583911	 -0.770813	 -0.176806
C	 -4.310623	 -0.605435	 -0.611015
H	 -3.730224	 1.378930	 -0.021418
H	 -3.445715	 0.169213	 1.198454
C	 -5.767499	 -0.491666	 -0.163499
H	 -4.246392	 -0.418138	 -1.680798
H	 -3.965664	 -1.626081	 -0.459139
H	 -6.401242	 -1.187133	 -0.705073
H	 -6.153192	 0.509369	 -0.334856
H	 -5.870102	 -0.707292	 0.896337
C	 4.728119	 -1.109107	 -0.004993
H	 4.882018	 -1.033965	 -1.071845
H	 5.068212	 -2.067527	 0.355250
H	 5.265056	 -0.311663	 0.488280

	symmetry c1
}
set optking {
	frozen_dihedral = ("
		21 17 14 11,
		17 14 11 15,
		15 11 8 5,
		6 3 5 9,
		2 4 26 27,
		1 2 4 26,
		6 3 2 1
	")
}

ee = energy('scf')
oeprop('DIPOLE', 'QUADRUPOLE', 'MULLIKEN_CHARGES')
f=open( 'psi4out.xyz', 'w' )
f.write( "29  " )
f.write( str(ee) + "\n" )
f.write( MOL.save_string_xyz() )
f.close()
--------------------------------------------------------------------------

    Molecular point group: c1

    Geometry (in Angstrom), charge = 0, multiplicity = 1:

       Center              X                  Y                   Z               Mass
    ------------   -----------------  -----------------  -----------------  -----------------
           O          3.244786418324     0.909877506137    -0.544630938855    15.994914619560
           C          2.719996418324    -0.002592493863     0.007686061145    12.000000000000
           C          1.264183418324    -0.074320493863     0.400436061145    12.000000000000
           O          3.366710418324    -1.106863493863     0.359789061145    15.994914619560
           C          0.473919418324     1.170922506137     0.004244061145    12.000000000000
           H          0.857349418324    -0.974302493863    -0.048684938855     1.007825032070
           H          1.227017418324    -0.235810493863     1.474790061145     1.007825032070
           C         -0.980085581676     1.159007506137     0.488209061145    12.000000000000
           H          0.501338418324     1.284643506137    -1.075308938855     1.007825032070
           H          0.976097418324     2.042592506137     0.409745061145     1.007825032070
           C         -1.902026581676     0.193325506137    -0.261853938855    12.000000000000
           H         -1.376764581676     2.166611506137     0.387691061145     1.007825032070
           H         -1.006072581676     0.929737506137     1.552525061145     1.007825032070
           C         -3.362156581676     0.298212506137     0.183140061145    12.000000000000
           H         -1.836570581676     0.393470506137    -1.330251938855     1.007825032070
           H         -1.565103581676    -0.831290493863    -0.121789938855     1.007825032070
           C         -4.291815581676    -0.665912493863    -0.555998938855    12.000000000000
           H         -3.711416581676     1.318452506137     0.033598061145     1.007825032070
           H         -3.426907581676     0.108735506137     1.253470061145     1.007825032070
           C         -5.748691581676    -0.552143493863    -0.108482938855    12.000000000000
           H         -4.227584581676    -0.478615493863    -1.625781938855     1.007825032070
           H         -3.946856581676    -1.686558493863    -0.404122938855     1.007825032070
           H         -6.382434581676    -1.247610493863    -0.650056938855     1.007825032070
           H         -6.134384581676     0.448891506137    -0.279839938855     1.007825032070
           H         -5.851294581676    -0.767769493863     0.951353061145     1.007825032070
           C          4.746926418324    -1.169584493863     0.050023061145    12.000000000000
           H          4.900825418324    -1.094442493863    -1.016828938855     1.007825032070
           H          5.087019418324    -2.128004493863     0.410266061145     1.007825032070
           H          5.283863418324    -0.372140493863     0.543296061145     1.007825032070

  Charge       = 0
  Multiplicity = 1
  Basis Set: 6-31G*
  Basis Set:

    Orbital Energies (a.u.)
    -----------------------

    Doubly Occupied:

       1A    -20.603387     2A    -20.545242     3A    -11.372037
       4A    -11.280671     5A    -11.234875     6A    -11.218973
       7A    -11.217509     8A    -11.215872     9A    -11.215739
      10A    -11.214326    11A    -11.208979    12A     -1.469097
      13A     -1.362543    14A     -1.097800    15A     -1.066866
      16A     -1.019623    17A     -0.977280    18A     -0.928415
      19A     -0.860965    20A     -0.799368    21A     -0.790356
      22A     -0.764469    23A     -0.700699    24A     -0.682264
      25A     -0.672306    26A     -0.650326    27A     -0.628553
      28A     -0.604810    29A     -0.595218    30A     -0.581103
      31A     -0.566803    32A     -0.548553    33A     -0.532527
      34A     -0.530391    35A     -0.515635    36A     -0.510787
      37A     -0.496981    38A     -0.477661    39A     -0.470360
      40A     -0.462460    41A     -0.458795    42A     -0.455853
      43A     -0.441324    44A     -0.434952

  @DF-RHF Final Energy:  -501.04393630263644

   => Energetics <=

    Nuclear Repulsion Energy =            609.2790402427390291
    One-Electron Energy =               -1889.6805430397462260
    Two-Electron Energy =                 779.3575664943710990
    DFT Exchange-Correlation Energy =       0.0000000000000000
    Empirical Dispersion Energy =           0.0000000000000000
    PCM Polarization Energy =               0.0000000000000000
    EFP Energy =                            0.0000000000000000
    Total Energy =                       -501.0439363026360979

  Mulliken Charges: (a.u.)
   Center  Symbol    Alpha    Beta     Spin     Total
       1     O     4.28594  4.28594  0.00000 -0.57189
       2     C     2.60504  2.60504  0.00000  0.78991
       3     C     3.20905  3.20905  0.00000 -0.41811
       4     O     4.30748  4.30748  0.00000 -0.61496
       5     C     3.15422  3.15422  0.00000 -0.30844
       6     H     0.39915  0.39915  0.00000  0.20170
       7     H     0.40110  0.40110  0.00000  0.19780
       8     C     3.15712  3.15712  0.00000 -0.31424
       9     H     0.41288  0.41288  0.00000  0.17425
      10     H     0.40869  0.40869  0.00000  0.18261
      11     C     3.15417  3.15417  0.00000 -0.30833
      12     H     0.41820  0.41820  0.00000  0.16360
      13     H     0.42400  0.42400  0.00000  0.15200
      14     C     3.15048  3.15048  0.00000 -0.30095
      15     H     0.42234  0.42234  0.00000  0.15531
      16     H     0.42402  0.42402  0.00000  0.15196
      17     C     3.15146  3.15146  0.00000 -0.30291
      18     H     0.42331  0.42331  0.00000  0.15337
      19     H     0.42404  0.42404  0.00000  0.15192
      20     C     3.23934  3.23934  0.00000 -0.47868
      21     H     0.42276  0.42276  0.00000  0.15449
      22     H     0.42343  0.42343  0.00000  0.15313
      23     H     0.41924  0.41924  0.00000  0.16153
      24     H     0.42156  0.42156  0.00000  0.15688
      25     H     0.42186  0.42186  0.00000  0.15629
      26     C     3.09241  3.09241  0.00000 -0.18482
      27     H     0.40908  0.40908  0.00000  0.18184
      28     H     0.40851  0.40851  0.00000  0.18297
      29     H     0.40912  0.40912  0.00000  0.18176

   Total alpha = 44.00000, Total beta = 44.00000, Total charge =  0.00000
