  ==> Input File <==

--------------------------------------------------------------------------
set {
	reference rhf
	basis cc-pvtz
}

set_num_threads( 4 )
memory 2 gb

molecule MOL {
0 1

H	 -3.275614	 0.123037	 0.360947
C	 -2.753210	 -0.056632	 -0.575908
O	 -1.401606	 -0.295183	 -0.366624
H	 -3.174697	 -0.932936	 -1.046364
H	 -2.911906	 0.800461	 -1.227900
C	 -0.718530	 0.758693	 0.228682
C	 0.718529	 0.758687	 -0.228709
H	 -1.176498	 1.708665	 -0.046615
H	 -0.748705	 0.673525	 1.312779
O	 1.401606	 -0.295166	 0.366636
H	 0.748705	 0.673477	 -1.312803
H	 1.176496	 1.708671	 0.046552
C	 2.714315	 -0.441627	 -0.061017
H	 2.765292	 -0.641548	 -1.128869
H	 3.305661	 0.447341	 0.150952
H	 3.143725	 -1.278506	 0.470147

	symmetry c1
}
set optking {
	frozen_dihedral = ("
		2 3 6 7
	")
}

ee = optimize('scf')
oeprop('DIPOLE', 'QUADRUPOLE', 'MULLIKEN_CHARGES')
f=open( 'psi4out.xyz', 'w' )
f.write( "16  " )
f.write( str(ee) + "\n" )
f.write( MOL.save_string_xyz() )
f.close()
--------------------------------------------------------------------------

    Molecular point group: c1
  Charge       = 0
  Multiplicity = 1
  Basis Set: CC-PVTZ
  Basis Set:
  @DF-RHF Final Energy:  -307.09558959811773
    Total Energy =                       -307.0955895981175559
    Molecular point group: c1
  Basis Set: CC-PVTZ
  Basis Set:
  Basis Set: CC-PVTZ
  Basis Set:
  @DF-RHF Final Energy:  -307.09570776193982
    Total Energy =                       -307.0957077619399342
  Basis Set: CC-PVTZ
  Basis Set:
  Basis Set: CC-PVTZ
  Basis Set:
  @DF-RHF Final Energy:  -307.09573306799774
    Total Energy =                       -307.0957330679976849
  Basis Set: CC-PVTZ
  Basis Set:
  Charge       = 0
  Multiplicity = 1
  Basis Set: CC-PVTZ
  Basis Set:

    Orbital Energies (a.u.)
    -----------------------

    Doubly Occupied:

       1A    -20.547461     2A    -20.546634     3A    -11.267718
       4A    -11.267027     5A    -11.262963     6A    -11.261336
       7A     -1.390605     8A     -1.373604     9A     -1.031831
      10A     -0.937533    11A     -0.894382    12A     -0.822964
      13A     -0.687999    14A     -0.679804    15A     -0.659379
      16A     -0.640371    17A     -0.628542    18A     -0.600181
      19A     -0.557145    20A     -0.531298    21A     -0.508929
      22A     -0.477134    23A     -0.470623    24A     -0.421196
      25A     -0.411957

  @DF-RHF Final Energy:  -307.09573373478707

   => Energetics <=

    Nuclear Repulsion Energy =            258.4569668426628937
    One-Electron Energy =                -931.3481648956553727
    Two-Electron Energy =                 365.7954643182050631
    DFT Exchange-Correlation Energy =       0.0000000000000000
    Empirical Dispersion Energy =           0.0000000000000000
    PCM Polarization Energy =               0.0000000000000000
    EFP Energy =                            0.0000000000000000
    Total Energy =                       -307.0957337347873590
    Molecular point group: c1
  Basis Set: CC-PVTZ
  Basis Set:

  -Total Gradient:
     Atom            X                  Y                   Z
    ------   -----------------  -----------------  -----------------
       1        0.000027201180     0.000003161971    -0.000001859751
       2        0.000500686676     0.000859806254    -0.002310255175
       3       -0.000977737503    -0.000787784099     0.002588777476
       4       -0.000030522712    -0.000005977629    -0.000002136336
       5        0.000022476136     0.000002530488     0.000022329859
       6        0.000972684624    -0.001364840732     0.001442660309
       7       -0.000548329320     0.001405688195    -0.001743741403
       8        0.000000642988    -0.000014326026    -0.000012072506
       9        0.000017680023    -0.000006908539    -0.000028750553
      10        0.000027516433    -0.000075563483     0.000029088560
      11       -0.000005104789    -0.000025592373     0.000030932101
      12        0.000010971200    -0.000012060391     0.000001891806
      13       -0.000016867360     0.000023732416    -0.000025729230
      14        0.000005631666    -0.000003493310     0.000000105827
      15        0.000006488745    -0.000000562386     0.000002306040
      16       -0.000013417991     0.000002189643     0.000006452978

  **** Optimization is complete! (in 4 steps) ****
    Final optimized geometry and variables:
    Molecular point group: c1

    Geometry (in Angstrom), charge = 0, multiplicity = 1:

    H           -3.284402172369     0.066783139524     0.466576181812
    C           -2.751706809493    -0.133011376609    -0.460990209876
    O           -1.399159757496    -0.358954624316    -0.241218984921
    H           -3.165534742122    -1.024313477342    -0.909841435785
    H           -2.910786877050     0.705293147153    -1.135758668575
    C           -0.708021515521     0.701406305465     0.340218723348
    C            0.732505640335     0.698809473079    -0.109397425031
    H           -1.148284445835     1.650330010187     0.038766775274
    H           -0.756951407225     0.638841755561     1.424108791891
    O            1.406950392232    -0.372105200596     0.464249032350
    H            0.766411936283     0.637124491677    -1.195048680310
    H            1.195945701635     1.639485372292     0.189627002912
    C            2.722173680200    -0.513542922600     0.043119367371
    H            2.780728833217    -0.686220645061    -1.029167854168
    H            3.315638407869     0.367119453501     0.282390191202
    H            3.143709370158    -1.365711429018     0.555865872149

  Mulliken Charges: (a.u.)
   Center  Symbol    Alpha    Beta     Spin     Total
       1     H     0.47112  0.47112  0.00000  0.05777
       2     C     3.03096  3.03096  0.00000 -0.06192
       3     O     4.17178  4.17178  0.00000 -0.34356
       4     H     0.44759  0.44759  0.00000  0.10483
       5     H     0.47284  0.47284  0.00000  0.05433
       6     C     2.96174  2.96174  0.00000  0.07652
       7     C     2.95957  2.95957  0.00000  0.08087
       8     H     0.47849  0.47849  0.00000  0.04302
       9     H     0.46374  0.46374  0.00000  0.07251
      10     O     4.16932  4.16932  0.00000 -0.33864
      11     H     0.47274  0.47274  0.00000  0.05452
      12     H     0.47755  0.47755  0.00000  0.04489
      13     C     3.03194  3.03194  0.00000 -0.06388
      14     H     0.47066  0.47066  0.00000  0.05868
      15     H     0.47383  0.47383  0.00000  0.05234
      16     H     0.44613  0.44613  0.00000  0.10773

   Total alpha = 25.00000, Total beta = 25.00000, Total charge = -0.00000
