  ==> Input File <==

--------------------------------------------------------------------------
set {
	reference rhf
	basis 6-31G*
}

set_num_threads( 4 )
memory 2 gb

molecule MOL {
0 1

H	 2.432415	 1.644959	 -4.801521
C	 2.802426	 1.647058	 -3.780929
C	 1.653200	 1.727024	 -2.776907
H	 3.382286	 0.740125	 -3.637484
H	 3.477390	 2.492100	 -3.675444
C	 2.140947	 1.738907	 -1.326467
H	 0.986540	 0.884118	 -2.927489
H	 1.070906	 2.627092	 -2.967967
C	 1.013462	 1.836686	 -0.298613
H	 2.719928	 0.843436	 -1.130108
H	 2.808499	 2.585578	 -1.183070
C	 0.169600	 0.576866	 -0.172154
H	 1.431546	 2.029913	 0.688119
H	 0.364076	 2.682485	 -0.513317
C	 -1.181045	 0.701995	 0.511084
O	 0.556262	 -0.478409	 -0.576247
C	 -2.285934	 -0.139295	 -0.145128
H	 -1.449051	 1.751551	 0.493206
H	 -1.071135	 0.403303	 1.551943
C	 -3.651768	 0.085446	 0.506485
H	 -2.346596	 0.110469	 -1.202272
H	 -2.034737	 -1.195320	 -0.088721
C	 -4.759797	 -0.746382	 -0.137905
H	 -3.908762	 1.140117	 0.445781
H	 -3.588286	 -0.154158	 1.565709
H	 -4.868882	 -0.505166	 -1.191300
H	 -4.548009	 -1.809175	 -0.062213
H	 -5.715422	 -0.564821	 0.343442

	symmetry c1
}
set optking {
	frozen_dihedral = ("
		16 12 15 17
	")
}

ee = optimize('scf')
oeprop('DIPOLE', 'QUADRUPOLE', 'MULLIKEN_CHARGES')
f=open( 'psi4out.xyz', 'w' )
f.write( "28  " )
f.write( str(ee) + "\n" )
f.write( MOL.save_string_xyz() )
f.close()
--------------------------------------------------------------------------

    Molecular point group: c1
  Charge       = 0
  Multiplicity = 1
  Basis Set: 6-31G*
  Basis Set:
  @DF-RHF Final Energy:  -426.16892138237745
    Total Energy =                       -426.1689213823774480
    Molecular point group: c1
  Basis Set: 6-31G*
  Basis Set:
  Basis Set: 6-31G*
  Basis Set:
  @DF-RHF Final Energy:  -426.16912433877894
    Total Energy =                       -426.1691243387788290
  Basis Set: 6-31G*
  Basis Set:
  Basis Set: 6-31G*
  Basis Set:
  @DF-RHF Final Energy:  -426.16983000133246
    Total Energy =                       -426.1698300013320022
  Basis Set: 6-31G*
  Basis Set:
  Basis Set: 6-31G*
  Basis Set:
  @DF-RHF Final Energy:  -426.17012323640108
    Total Energy =                       -426.1701232364009684
  Basis Set: 6-31G*
  Basis Set:
  @DF-RHF Final Energy:  -426.17024382042052
    Total Energy =                       -426.1702438204201826
  @DF-RHF Final Energy:  -426.17031473845248
    Total Energy =                       -426.1703147384519070
  Basis Set: 6-31G*
  Basis Set:
  @DF-RHF Final Energy:  -426.17035408438801
    Total Energy =                       -426.1703540843878955
  Basis Set: 6-31G*
  Basis Set:
  Basis Set: 6-31G*
  Basis Set:
  @DF-RHF Final Energy:  -426.17035833970772
    Total Energy =                       -426.1703583397074908
  Basis Set: 6-31G*
  Basis Set:
  Basis Set: 6-31G*
  Basis Set:
  @DF-RHF Final Energy:  -426.17035969189203
    Total Energy =                       -426.1703596918918038
  Basis Set: 6-31G*
  Basis Set:
  Charge       = 0
  Multiplicity = 1
  Basis Set: 6-31G*
  Basis Set:

    Orbital Energies (a.u.)
    -----------------------

    Doubly Occupied:

       1A    -20.549084     2A    -11.324118     3A    -11.231455
       4A    -11.230177     5A    -11.220768     6A    -11.220145
       7A    -11.216597     8A    -11.211073     9A    -11.210587
      10A    -11.204845    11A     -1.394943    12A     -1.088755
      13A     -1.077221    14A     -1.021861    15A     -0.990533
      16A     -0.910068    17A     -0.865869    18A     -0.805209
      19A     -0.793726    20A     -0.724377    21A     -0.669370
      22A     -0.652308    23A     -0.626722    24A     -0.617470
      25A     -0.607928    26A     -0.584910    27A     -0.577283
      28A     -0.573088    29A     -0.536748    30A     -0.531455
      31A     -0.517966    32A     -0.508696    33A     -0.494107
      34A     -0.480078    35A     -0.476033    36A     -0.470658
      37A     -0.467127    38A     -0.464272    39A     -0.456426
      40A     -0.392944

  @DF-RHF Final Energy:  -426.17035971979885

   => Energetics <=

    Nuclear Repulsion Energy =            530.2109654921525816
    One-Electron Energy =               -1628.7686462186647987
    Two-Electron Energy =                 672.3873210067133641
    DFT Exchange-Correlation Energy =       0.0000000000000000
    Empirical Dispersion Energy =           0.0000000000000000
    PCM Polarization Energy =               0.0000000000000000
    EFP Energy =                            0.0000000000000000
    Total Energy =                       -426.1703597197988529
    Molecular point group: c1
  Basis Set: 6-31G*
  Basis Set:

  -Total Gradient:
     Atom            X                  Y                   Z
    ------   -----------------  -----------------  -----------------
       1       -0.000002717261     0.000000796633     0.000003031328
       2        0.000003236689     0.000011366375     0.000007488137
       3       -0.000033096256    -0.000037670796     0.000010704069
       4       -0.000002342254    -0.000000099283     0.000000213363
       5        0.000006422442     0.000000963218    -0.000002458526
       6       -0.000020954557    -0.000015173268     0.000007965311
       7        0.000003219657     0.000008762801    -0.000004833152
       8        0.000005184548     0.000001740762     0.000002953321
       9       -0.000001093346    -0.000000816971    -0.000063305273
      10        0.000005935543    -0.000006143231    -0.000002205232
      11       -0.000004409422     0.000001357912     0.000018391725
      12       -0.000757937592     0.000578959032    -0.001246773400
      13        0.000000645317    -0.000010228845     0.000009502190
      14        0.000002123226     0.000004645473     0.000005257562
      15        0.000492828352    -0.000885819080     0.000811492663
      16        0.000527809531    -0.000210194112     0.000788988718
      17       -0.000196852192     0.000537816083    -0.000323102607
      18        0.000005430591     0.000002767766    -0.000004767084
      19       -0.000010510384     0.000005355682    -0.000005178275
      20       -0.000001304685    -0.000000237245    -0.000016390792
      21       -0.000010950551     0.000004390298     0.000016707510
      22        0.000009299455     0.000001427323    -0.000010212339
      23       -0.000015934627     0.000007260055     0.000001009812
      24       -0.000002777340     0.000001276383     0.000008111654
      25        0.000005696868    -0.000002970996    -0.000010792827
      26       -0.000001628590    -0.000002755696    -0.000001524401
      27        0.000002974773     0.000004849337     0.000002917326
      28       -0.000008297941    -0.000001625609    -0.000003190782

  **** Optimization is complete! (in 10 steps) ****
    Final optimized geometry and variables:
    Molecular point group: c1

    Geometry (in Angstrom), charge = 0, multiplicity = 1:

    H            3.328173611875     0.931372948416    -3.853158319777
    C            3.538948313792     0.931320066772    -2.788212953703
    C            2.252963733003     1.048266105552    -1.971137514126
    H            4.065723726638     0.010449082747    -2.555826067752
    H            4.212955452871     1.759100727109    -2.584405465974
    C            2.516151769236     1.063434242272    -0.463479231977
    H            1.594548451007     0.221963891416    -2.214385904093
    H            1.731069800105     1.961761899433    -2.252158925606
    C            1.250379608519     1.190802687236     0.382838378432
    H            3.044490488237     0.159776366334    -0.177934465710
    H            3.170966009342     1.899132227991    -0.226926925443
    C            0.400052969250    -0.064117267900     0.458644728032
    H            1.501139287518     1.458726654380     1.409056860693
    H            0.621605777014     2.002745909698     0.020742177627
    C           -0.863040980039     0.018319368186     1.303648794559
    O            0.718567833070    -1.085416444557    -0.071741603514
    C           -2.038483297252    -0.756643589274     0.704372566895
    H           -1.134217562147     1.057239457745     1.468490732858
    H           -0.608479149876    -0.391222430456     2.280226443389
    C           -3.277533154657    -0.735405462211     1.600491029307
    H           -2.287430900955    -0.334113589561    -0.266806390210
    H           -1.728042646568    -1.779339471454     0.523354268257
    C           -4.455024154118    -1.500958505832     0.998093388569
    H           -3.575105585803     0.294378675815     1.787862559032
    H           -3.028130796359    -1.162137705649     2.569789865937
    H           -4.751533376497    -1.076102745215     0.043341484853
    H           -4.199113011839    -2.542968704213     0.830154492250
    H           -5.318735391657    -1.473286922745     1.655052352049

  Mulliken Charges: (a.u.)
   Center  Symbol    Alpha    Beta     Spin     Total
       1     H     0.41939  0.41939  0.00000  0.16121
       2     C     3.24033  3.24033  0.00000 -0.48066
       3     C     3.15623  3.15623  0.00000 -0.31246
       4     H     0.41875  0.41875  0.00000  0.16250
       5     H     0.42408  0.42408  0.00000  0.15184
       6     C     3.14917  3.14917  0.00000 -0.29834
       7     H     0.40663  0.40663  0.00000  0.18674
       8     H     0.42818  0.42818  0.00000  0.14364
       9     C     3.21160  3.21160  0.00000 -0.42320
      10     H     0.40939  0.40939  0.00000  0.18123
      11     H     0.42183  0.42183  0.00000  0.15634
      12     C     2.73148  2.73148  0.00000  0.53704
      13     H     0.40650  0.40650  0.00000  0.18700
      14     H     0.40921  0.40921  0.00000  0.18159
      15     C     3.20432  3.20432  0.00000 -0.40865
      16     O     4.26944  4.26944  0.00000 -0.53888
      17     C     3.15337  3.15337  0.00000 -0.30674
      18     H     0.41446  0.41446  0.00000  0.17107
      19     H     0.40399  0.40399  0.00000  0.19202
      20     C     3.15301  3.15301  0.00000 -0.30603
      21     H     0.42039  0.42039  0.00000  0.15921
      22     H     0.40354  0.40354  0.00000  0.19292
      23     C     3.23964  3.23964  0.00000 -0.47927
      24     H     0.42393  0.42393  0.00000  0.15213
      25     H     0.42217  0.42217  0.00000  0.15565
      26     H     0.42098  0.42098  0.00000  0.15804
      27     H     0.41919  0.41919  0.00000  0.16161
      28     H     0.41878  0.41878  0.00000  0.16245

   Total alpha = 40.00000, Total beta = 40.00000, Total charge = -0.00000
