  ==> Input File <==

--------------------------------------------------------------------------
set {
	reference rhf
	basis 6-31G*
}

set_num_threads( 4 )
memory 2 gb

molecule MOL {
0 1

O	 -0.102016	 0.857555	 1.406477
C	 -0.348273	 -0.102941	 0.752123
C	 -1.694894	 -0.766692	 0.659305
O	 0.550821	 -0.724572	 0.000672
H	 -2.031159	 -0.769927	 -0.371035
H	 -2.403094	 -0.236642	 1.278490
H	 -1.617310	 -1.798182	 0.982707
C	 1.863949	 -0.193559	 -0.000319
H	 2.028859	 0.409284	 -0.881648
H	 2.526261	 -1.045082	 -0.000003
H	 2.029520	 0.410555	 0.880008

	symmetry c1
}
set optking {
	frozen_dihedral = ("
		2 4 8 9
	")
}

ee = optimize('scf')
oeprop('DIPOLE', 'QUADRUPOLE', 'MULLIKEN_CHARGES')
f=open( 'psi4out.xyz', 'w' )
f.write( "11  " )
f.write( str(ee) + "\n" )
f.write( MOL.save_string_xyz() )
f.close()
--------------------------------------------------------------------------

    Molecular point group: c1
  Charge       = 0
  Multiplicity = 1
  Basis Set: 6-31G*
  Basis Set:
  @DF-RHF Final Energy:  -266.83432037644081
    Total Energy =                       -266.8343203764409282
    Molecular point group: c1
  Basis Set: 6-31G*
  Basis Set:
  Basis Set: 6-31G*
  Basis Set:
  @DF-RHF Final Energy:  -266.83451381744908
    Total Energy =                       -266.8345138174495332
  Basis Set: 6-31G*
  Basis Set:
  Basis Set: 6-31G*
  Basis Set:
  @DF-RHF Final Energy:  -266.83471824603657
    Total Energy =                       -266.8347182460366867
  Basis Set: 6-31G*
  Basis Set:
  Basis Set: 6-31G*
  Basis Set:
  @DF-RHF Final Energy:  -266.83465955812483
    Total Energy =                       -266.8346595581247698
  Basis Set: 6-31G*
  Basis Set:
  Basis Set: 6-31G*
  Basis Set:
  @DF-RHF Final Energy:  -266.83481959106001
    Total Energy =                       -266.8348195910598406
  Basis Set: 6-31G*
  Basis Set:
  Charge       = 0
  Multiplicity = 1
  Basis Set: 6-31G*
  Basis Set:

    Orbital Energies (a.u.)
    -----------------------

    Doubly Occupied:

       1A    -20.605126     2A    -20.545865     3A    -11.377491
       4A    -11.281081     5A    -11.234165     6A     -1.469042
       7A     -1.364885     8A     -1.035968     9A     -0.953423
      10A     -0.777383    11A     -0.696685    12A     -0.679186
      13A     -0.677038    14A     -0.596877    15A     -0.591323
      16A     -0.560618    17A     -0.527868    18A     -0.520094
      19A     -0.455122    20A     -0.442249

  @DF-RHF Final Energy:  -266.83482040751909

   => Energetics <=

    Nuclear Repulsion Energy =            182.9419643957639323
    One-Electron Energy =                -726.7705888599562059
    Two-Electron Energy =                 276.9938040566731274
    DFT Exchange-Correlation Energy =       0.0000000000000000
    Empirical Dispersion Energy =           0.0000000000000000
    PCM Polarization Energy =               0.0000000000000000
    EFP Energy =                            0.0000000000000000
    Total Energy =                       -266.8348204075190893
    Molecular point group: c1
  Basis Set: 6-31G*
  Basis Set:

  -Total Gradient:
     Atom            X                  Y                   Z
    ------   -----------------  -----------------  -----------------
       1        0.000024375040    -0.000015965638    -0.000021027019
       2        0.000267736157    -0.000701835884     0.000946878702
       3       -0.000008958695    -0.000006597123    -0.000004470724
       4       -0.000280705622     0.000829350578    -0.001574789735
       5        0.000003997616    -0.000000559506     0.000002944639
       6       -0.000000840192    -0.000002865645     0.000002725414
       7       -0.000001870208    -0.000001216705     0.000003566538
       8       -0.000411681089     0.000996792686     0.001316931666
       9        0.000368535778    -0.001132791197    -0.000681559873
      10        0.000040162727     0.000019399988    -0.000001508765
      11       -0.000000751514     0.000016288443     0.000010309161

  **** Optimization is complete! (in 6 steps) ****
    Final optimized geometry and variables:
    Molecular point group: c1

    Geometry (in Angstrom), charge = 0, multiplicity = 1:

    O           -0.208392956385     1.056808324882     0.849740864534
    C           -0.427697393906     0.090608838890     0.194605399542
    C           -1.761619772688    -0.598025973641     0.094824646113
    O            0.481647155084    -0.524524747420    -0.551581955292
    H           -2.091002290547    -0.608450677675    -0.937691897009
    H           -2.483184489951    -0.080038375421     0.708627408047
    H           -1.667135748260    -1.627643421469     0.419755550613
    C            1.809445334503    -0.027864778334    -0.558473049771
    H            1.960142599833     0.569278156679    -1.447813503561
    H            2.461244697487    -0.888308157589    -0.593147617725
    H            2.006261628864     0.560945869069     0.321720759920

  Mulliken Charges: (a.u.)
   Center  Symbol    Alpha    Beta     Spin     Total
       1     O     4.28180  4.28180  0.00000 -0.56360
       2     C     2.62216  2.62216  0.00000  0.75568
       3     C     3.28201  3.28201  0.00000 -0.56402
       4     O     4.30103  4.30103  0.00000 -0.60207
       5     H     0.39994  0.39994  0.00000  0.20012
       6     H     0.39676  0.39676  0.00000  0.20648
       7     H     0.40017  0.40017  0.00000  0.19966
       8     C     3.09676  3.09676  0.00000 -0.19352
       9     H     0.41281  0.41281  0.00000  0.17438
      10     H     0.41036  0.41036  0.00000  0.17928
      11     H     0.39619  0.39619  0.00000  0.20762

   Total alpha = 20.00000, Total beta = 20.00000, Total charge = -0.00000
