  ==> Input File <==

--------------------------------------------------------------------------
set {
	reference rhf
	basis 6-31G*
}

set_num_threads( 4 )
memory 2 gb

molecule MOL {
0 1

H	 -1.735247	 -1.549966	 0.014744
O	 -2.310168	 -0.871793	 -0.309793
C	 -2.026376	 0.340750	 0.341611
C	 -0.673256	 0.843270	 -0.132153
H	 -2.792215	 1.080697	 0.115987
H	 -2.013526	 0.200402	 1.421792
C	 0.486613	 -0.083066	 0.235839
H	 -0.715586	 0.970948	 -1.210718
H	 -0.508072	 1.829858	 0.297090
C	 1.840406	 0.433480	 -0.254303
H	 0.300215	 -1.068318	 -0.178947
H	 0.519509	 -0.203625	 1.318070
C	 3.000220	 -0.489290	 0.118523
H	 1.809207	 0.553576	 -1.335192
H	 2.021860	 1.424500	 0.157276
H	 2.864959	 -1.479103	 -0.307933
H	 3.946603	 -0.099227	 -0.243630
H	 3.080049	 -0.602997	 1.196117

	symmetry c1
}
set optking {
	frozen_dihedral = ("
		1 2 3 4
	")
}

ee = optimize('scf')
oeprop('DIPOLE', 'QUADRUPOLE', 'MULLIKEN_CHARGES')
f=open( 'psi4out.xyz', 'w' )
f.write( "18  " )
f.write( str(ee) + "\n" )
f.write( MOL.save_string_xyz() )
f.close()
--------------------------------------------------------------------------

    Molecular point group: c1
  Charge       = 0
  Multiplicity = 1
  Basis Set: 6-31G*
  Basis Set:
  @DF-RHF Final Energy:  -271.17717731558594
    Total Energy =                       -271.1771773155860501
    Molecular point group: c1
  Basis Set: 6-31G*
  Basis Set:
  Basis Set: 6-31G*
  Basis Set:
  @DF-RHF Final Energy:  -271.17879140339608
    Total Energy =                       -271.1787914033959055
  Basis Set: 6-31G*
  Basis Set:
  Basis Set: 6-31G*
  Basis Set:
  @DF-RHF Final Energy:  -271.17935428823682
    Total Energy =                       -271.1793542882369934
  Basis Set: 6-31G*
  Basis Set:
  Basis Set: 6-31G*
  Basis Set:
  @DF-RHF Final Energy:  -271.17936362499336
    Total Energy =                       -271.1793636249930728
  Basis Set: 6-31G*
  Basis Set:
  Basis Set: 6-31G*
  Basis Set:
  @DF-RHF Final Energy:  -271.17937171823263
    Total Energy =                       -271.1793717182323462
  Basis Set: 6-31G*
  Basis Set:
  Basis Set: 6-31G*
  Basis Set:
  @DF-RHF Final Energy:  -271.17937386819528
    Total Energy =                       -271.1793738681952277
  Basis Set: 6-31G*
  Basis Set:
  Charge       = 0
  Multiplicity = 1
  Basis Set: 6-31G*
  Basis Set:

    Orbital Energies (a.u.)
    -----------------------

    Doubly Occupied:

       1A    -20.552405     2A    -11.267365     3A    -11.221553
       4A    -11.220026     5A    -11.216167     6A    -11.212360
       7A     -1.359289     8A     -1.083211     9A     -1.012726
      10A     -0.921931    11A     -0.829871    12A     -0.793136
      13A     -0.693605    14A     -0.648771    15A     -0.618405
      16A     -0.602825    17A     -0.576071    18A     -0.565291
      19A     -0.525330    20A     -0.512160    21A     -0.492426
      22A     -0.476239    23A     -0.470128    24A     -0.455129
      25A     -0.425980

  @DF-RHF Final Energy:  -271.17937390493375

   => Energetics <=

    Nuclear Repulsion Energy =            248.7540200560094661
    One-Electron Energy =                -860.3619943636604148
    Two-Electron Energy =                 340.4286004027171657
    DFT Exchange-Correlation Energy =       0.0000000000000000
    Empirical Dispersion Energy =           0.0000000000000000
    PCM Polarization Energy =               0.0000000000000000
    EFP Energy =                            0.0000000000000000
    Total Energy =                       -271.1793739049337546
    Molecular point group: c1
  Basis Set: 6-31G*
  Basis Set:

  -Total Gradient:
     Atom            X                  Y                   Z
    ------   -----------------  -----------------  -----------------
       1        0.000158700701     0.000027544820    -0.000196124865
       2       -0.000164765560    -0.000101466196     0.000276085239
       3       -0.000076141095     0.000117361931    -0.000209211095
       4        0.000067888606    -0.000082420317     0.000096956831
       5        0.000016650983     0.000017404754     0.000007020130
       6        0.000005604516     0.000008188246     0.000006250481
       7       -0.000008733312    -0.000005291200     0.000011144291
       8       -0.000001370847     0.000002274187    -0.000006238252
       9        0.000002974085     0.000001503232    -0.000002573023
      10       -0.000001622049     0.000016759324     0.000013892019
      11        0.000007298443     0.000002028767     0.000004104519
      12       -0.000000707239     0.000003973046     0.000007482977
      13       -0.000005601552    -0.000010369335    -0.000013024223
      14       -0.000002594011     0.000006588084     0.000002300396
      15        0.000004193309    -0.000002179068     0.000005940483
      16        0.000001369949    -0.000005390142     0.000003167692
      17       -0.000002813062    -0.000001561739    -0.000005519585
      18       -0.000000331854     0.000005051610    -0.000001654015

  **** Optimization is complete! (in 7 steps) ****
    Final optimized geometry and variables:
    Molecular point group: c1

    Geometry (in Angstrom), charge = 0, multiplicity = 1:

    H           -1.880286385472    -1.573459804988     0.075302386701
    O           -2.424734779384    -0.871200425558    -0.249789591775
    C           -2.027382376210     0.343883988967     0.332151815807
    C           -0.670271604672     0.833373813803    -0.161611231516
    H           -2.793601505649     1.060704996232     0.066662078713
    H           -2.022965142752     0.262634309726     1.418607751252
    C            0.495485732171    -0.087348324931     0.205855080583
    H           -0.716839310579     0.950616485527    -1.241148727943
    H           -0.493837548223     1.822497795618     0.257724283344
    C            1.853672405779     0.452879981542    -0.245841874309
    H            0.343594796324    -1.066828297554    -0.243866588654
    H            0.512009576700    -0.239517751602     1.284866066157
    C            3.014406171657    -0.475289822755     0.109553047656
    H            1.835223298980     0.613240962878    -1.321379236832
    H            2.019747401301     1.428471088589     0.205692827640
    H            2.894892947334    -1.449167015274    -0.356812968096
    H            3.962251741559    -0.064057115095    -0.223276625794
    H            3.079573095772    -0.629087979087     1.183059854337

  Mulliken Charges: (a.u.)
   Center  Symbol    Alpha    Beta     Spin     Total
       1     H     0.27979  0.27979  0.00000  0.44043
       2     O     4.37110  4.37110  0.00000 -0.74219
       3     C     2.99670  2.99670  0.00000  0.00661
       4     C     3.16205  3.16205  0.00000 -0.32410
       5     H     0.41433  0.41433  0.00000  0.17135
       6     H     0.43202  0.43202  0.00000  0.13596
       7     C     3.16069  3.16069  0.00000 -0.32139
       8     H     0.41486  0.41486  0.00000  0.17027
       9     H     0.42388  0.42388  0.00000  0.15224
      10     C     3.15043  3.15043  0.00000 -0.30086
      11     H     0.42588  0.42588  0.00000  0.14825
      12     H     0.42466  0.42466  0.00000  0.15067
      13     C     3.23977  3.23977  0.00000 -0.47954
      14     H     0.42048  0.42048  0.00000  0.15905
      15     H     0.42207  0.42207  0.00000  0.15586
      16     H     0.42141  0.42141  0.00000  0.15718
      17     H     0.41810  0.41810  0.00000  0.16380
      18     H     0.42179  0.42179  0.00000  0.15641

   Total alpha = 25.00000, Total beta = 25.00000, Total charge = -0.00000
