  ==> Input File <==

--------------------------------------------------------------------------
set {
	reference rhf
	basis 6-31G*
}

set_num_threads( 4 )
memory 2 gb

molecule MOL {
0 1

H	 -2.499100	 -0.730091	 -0.745082
O	 -2.347518	 -0.290803	 0.079804
C	 -1.184022	 0.487508	 -0.006784
C	 0.062599	 -0.378592	 0.031606
H	 -1.176523	 1.099369	 -0.904519
H	 -1.187323	 1.153111	 0.844927
O	 1.171513	 0.459272	 -0.058250
H	 0.050699	 -1.089204	 -0.797170
H	 0.078739	 -0.954914	 0.954740
C	 2.382027	 -0.203205	 -0.245122
H	 2.382923	 -0.777020	 -1.169982
H	 3.159848	 0.545938	 -0.296909
H	 2.596658	 -0.878692	 0.580374

	symmetry c1
}
set optking {
	frozen_dihedral = ("
		10 7 4 8
	")
}

ee = optimize('scf')
oeprop('DIPOLE', 'QUADRUPOLE', 'MULLIKEN_CHARGES')
f=open( 'psi4out.xyz', 'w' )
f.write( "13  " )
f.write( str(ee) + "\n" )
f.write( MOL.save_string_xyz() )
f.close()
--------------------------------------------------------------------------

    Molecular point group: c1
  Charge       = 0
  Multiplicity = 1
  Basis Set: 6-31G*
  Basis Set:
  @DF-RHF Final Energy:  -267.95034349017567
    Total Energy =                       -267.9503434901756691
    Molecular point group: c1
  Basis Set: 6-31G*
  Basis Set:
  Basis Set: 6-31G*
  Basis Set:
  @DF-RHF Final Energy:  -267.95035673431732
    Total Energy =                       -267.9503567343173813
  Basis Set: 6-31G*
  Basis Set:
  Charge       = 0
  Multiplicity = 1
  Basis Set: 6-31G*
  Basis Set:

    Orbital Energies (a.u.)
    -----------------------

    Doubly Occupied:

       1A    -20.562289     2A    -20.560318     3A    -11.270890
       4A    -11.270546     5A    -11.269169     6A     -1.388608
       7A     -1.365299     8A     -1.018591     9A     -0.913618
      10A     -0.842187    11A     -0.709732    12A     -0.672977
      13A     -0.661122    14A     -0.638722    15A     -0.594059
      16A     -0.568414    17A     -0.548581    18A     -0.489537
      19A     -0.480338    20A     -0.440602    21A     -0.420716

  @DF-RHF Final Energy:  -267.95036213226604

   => Energetics <=

    Nuclear Repulsion Energy =            190.2204721794909403
    One-Electron Energy =                -742.9690417567401255
    Two-Electron Energy =                 284.7982074449831202
    DFT Exchange-Correlation Energy =       0.0000000000000000
    Empirical Dispersion Energy =           0.0000000000000000
    PCM Polarization Energy =               0.0000000000000000
    EFP Energy =                            0.0000000000000000
    Total Energy =                       -267.9503621322660933
    Molecular point group: c1
  Basis Set: 6-31G*
  Basis Set:

  -Total Gradient:
     Atom            X                  Y                   Z
    ------   -----------------  -----------------  -----------------
       1       -0.000025607275    -0.000023278647    -0.000002872264
       2        0.000019638670    -0.000011032172    -0.000041467370
       3       -0.000039821979     0.000057021139     0.000072571757
       4       -0.001045622808     0.001271013131    -0.001493812268
       5       -0.000001896232    -0.000010109799    -0.000019368008
       6        0.000012542311     0.000005314798    -0.000009076453
       7        0.000426080262    -0.000382331197     0.001866921259
       8        0.000785221563    -0.000944780539     0.000840376532
       9        0.000004748771    -0.000022402548    -0.000037255941
      10       -0.000116943071     0.000042309044    -0.001179883309
      11       -0.000002738285     0.000004525788    -0.000004374328
      12       -0.000017529869     0.000010251551     0.000005810026
      13        0.000001927948     0.000003499452     0.000002430366

  **** Optimization is complete! (in 3 steps) ****
    Final optimized geometry and variables:
    Molecular point group: c1

    Geometry (in Angstrom), charge = 0, multiplicity = 1:

    H           -2.506611080663    -0.733415884792    -0.675310726139
    O           -2.345280086246    -0.287537330312     0.144173190159
    C           -1.181933136062     0.488817890470     0.038814148870
    C            0.064450079532    -0.377544189395     0.069400380672
    H           -1.184322001172     1.094176680322    -0.863324104541
    H           -1.174370811851     1.160530568924     0.885671969517
    O            1.175982393396     0.459048225903    -0.010496711537
    H            0.056173458940    -1.086392757304    -0.760569636879
    H            0.081202937222    -0.961291651032     0.987946113779
    C            2.387952387378    -0.202706337909    -0.190406306431
    H            2.395040638612    -0.770934371938    -1.118510666361
    H            3.166033833288     0.546855508050    -0.231657387631
    H            2.597195279271    -0.882857724761     0.632855122526

  Mulliken Charges: (a.u.)
   Center  Symbol    Alpha    Beta     Spin     Total
       1     H     0.28133  0.28133  0.00000  0.43735
       2     O     4.37077  4.37077  0.00000 -0.74154
       3     C     3.00452  3.00452  0.00000 -0.00904
       4     C     2.99671  2.99671  0.00000  0.00658
       5     H     0.42294  0.42294  0.00000  0.15411
       6     H     0.40781  0.40781  0.00000  0.18437
       7     O     4.30758  4.30758  0.00000 -0.61516
       8     H     0.43809  0.43809  0.00000  0.12381
       9     H     0.42243  0.42243  0.00000  0.15513
      10     C     3.08000  3.08000  0.00000 -0.15999
      11     H     0.42920  0.42920  0.00000  0.14160
      12     H     0.41069  0.41069  0.00000  0.17862
      13     H     0.42792  0.42792  0.00000  0.14416

   Total alpha = 21.00000, Total beta = 21.00000, Total charge =  0.00000
