  ==> Input File <==

--------------------------------------------------------------------------
set {
	reference rhf
	basis 6-31G*
}

set_num_threads( 1 )
memory 2 gb

molecule MOL {
0 1

O	 0.074228	 1.262779	 -0.000085
C	 0.028650	 0.075053	 -0.000277
C	 -1.233602	 -0.752807	 0.000328
O	 1.109162	 -0.694619	 -0.000298
C	 -2.501530	 0.091881	 0.000126
H	 -1.193807	 -1.406641	 -0.865785
H	 -1.193516	 -1.405779	 0.867015
H	 -2.545121	 0.729328	 -0.874513
H	 -3.377167	 -0.548497	 0.000561
H	 -2.544818	 0.730135	 0.874258
C	 1.162167	 -1.727832	 0.966785
H	 1.121954	 -1.316119	 1.964927
H	 2.102292	 -2.232611	 0.807957
H	 0.340066	 -2.416083	 0.832875

	symmetry c1
}
set optking {
	frozen_dihedral = ("
		4 2 3 6
	")
}

ee = energy('scf')
oeprop('DIPOLE', 'QUADRUPOLE', 'MULLIKEN_CHARGES')
f=open( 'psi4out.xyz', 'w' )
f.write( "14  " )
f.write( str(ee) + "\n" )
f.write( MOL.save_string_xyz() )
f.close()
--------------------------------------------------------------------------

    Molecular point group: c1

    Geometry (in Angstrom), charge = 0, multiplicity = 1:

       Center              X                  Y                   Z               Mass
    ------------   -----------------  -----------------  -----------------  -----------------
           O          0.289448868933     1.564924099842    -0.173083521835    15.994914619560
           C          0.243870868933     0.377198099842    -0.173275521835    12.000000000000
           C         -1.018381131068    -0.450661900158    -0.172670521835    12.000000000000
           O          1.324382868932    -0.392473900158    -0.173296521835    15.994914619560
           C         -2.286309131067     0.394026099842    -0.172872521835    12.000000000000
           H         -0.978586131068    -1.104495900158    -1.038783521835     1.007825032070
           H         -0.978295131067    -1.103633900158     0.694016478165     1.007825032070
           H         -2.329900131067     1.031473099842    -1.047511521835     1.007825032070
           H         -3.161946131067    -0.246351900158    -0.172437521835     1.007825032070
           H         -2.329597131067     1.032280099842     0.701259478165     1.007825032070
           C          1.377387868932    -1.425686900158     0.793786478165    12.000000000000
           H          1.337174868932    -1.013973900158     1.791928478165     1.007825032070
           H          2.317512868932    -1.930465900158     0.634958478165     1.007825032070
           H          0.555286868933    -2.113937900158     0.659876478165     1.007825032070

  Charge       = 0
  Multiplicity = 1
  Basis Set: 6-31G*
  Basis Set:

    Orbital Energies (a.u.)
    -----------------------

    Doubly Occupied:

       1A    -20.596920     2A    -20.552323     3A    -11.375058
       4A    -11.298055     5A    -11.242620     6A    -11.219553
       7A     -1.466544     8A     -1.370561     9A     -1.063243
      10A     -0.987256    11A     -0.902005    12A     -0.768592
      13A     -0.704249    14A     -0.683269    15A     -0.679849
      16A     -0.632423    17A     -0.609564    18A     -0.564058
      19A     -0.548935    20A     -0.524440    21A     -0.514584
      22A     -0.490056    23A     -0.458268    24A     -0.434351

  @DF-RHF Final Energy:  -305.84609947128286

   => Energetics <=

    Nuclear Repulsion Energy =            249.2497817379365870
    One-Electron Energy =                -910.8181332371718781
    Two-Electron Energy =                 355.7222520279522087
    DFT Exchange-Correlation Energy =       0.0000000000000000
    Empirical Dispersion Energy =           0.0000000000000000
    PCM Polarization Energy =               0.0000000000000000
    EFP Energy =                            0.0000000000000000
    Total Energy =                       -305.8460994712830825

  Mulliken Charges: (a.u.)
   Center  Symbol    Alpha    Beta     Spin     Total
       1     O     4.26200  4.26200  0.00000 -0.52400
       2     C     2.60584  2.60584  0.00000  0.78832
       3     C     3.22814  3.22814  0.00000 -0.45629
       4     O     4.30208  4.30208  0.00000 -0.60415
       5     C     3.23657  3.23657  0.00000 -0.47314
       6     H     0.39838  0.39838  0.00000  0.20323
       7     H     0.40504  0.40504  0.00000  0.18992
       8     H     0.40780  0.40780  0.00000  0.18439
       9     H     0.41908  0.41908  0.00000  0.16184
      10     H     0.40991  0.40991  0.00000  0.18018
      11     C     3.10102  3.10102  0.00000 -0.20204
      12     H     0.41106  0.41106  0.00000  0.17789
      13     H     0.39807  0.39807  0.00000  0.20386
      14     H     0.41501  0.41501  0.00000  0.16997

   Total alpha = 24.00000, Total beta = 24.00000, Total charge =  0.00000
