  ==> Input File <==

--------------------------------------------------------------------------
set {
	reference rhf
	basis 6-31G*
}

set_num_threads( 4 )
memory 2 gb

molecule MOL {
0 1

H	 1.227250	 -1.488031	 1.696561
O	 0.550699	 -0.922573	 1.352720
C	 1.135793	 0.118896	 0.612333
C	 0.031547	 1.023609	 0.088541
H	 1.699777	 -0.281668	 -0.228120
H	 1.832128	 0.681689	 1.229976
C	 -1.134819	 0.293262	 -0.585751
H	 0.474374	 1.714721	 -0.623187
H	 -0.338529	 1.620940	 0.920081
C	 -1.917817	 -0.639439	 0.339494
H	 -0.758119	 -0.268455	 -1.433105
H	 -1.813832	 1.041889	 -0.986690
H	 -2.777680	 -1.057197	 -0.174994
H	 -1.310268	 -1.471279	 0.680599
H	 -2.283753	 -0.111424	 1.216626

	symmetry c1
}
set optking {
	frozen_dihedral = ("
		2 3 4 8
	")
}

ee = optimize('scf')
oeprop('DIPOLE', 'QUADRUPOLE', 'MULLIKEN_CHARGES')
f=open( 'psi4out.xyz', 'w' )
f.write( "15  " )
f.write( str(ee) + "\n" )
f.write( MOL.save_string_xyz() )
f.close()
--------------------------------------------------------------------------

    Molecular point group: c1
  Charge       = 0
  Multiplicity = 1
  Basis Set: 6-31G*
  Basis Set:
  @DF-RHF Final Energy:  -232.13502663077128
    Total Energy =                       -232.1350266307713923
    Molecular point group: c1
  Basis Set: 6-31G*
  Basis Set:
  Basis Set: 6-31G*
  Basis Set:
  @DF-RHF Final Energy:  -232.13963656005572
    Total Energy =                       -232.1396365600558056
  Basis Set: 6-31G*
  Basis Set:
  Basis Set: 6-31G*
  Basis Set:
  @DF-RHF Final Energy:  -232.14070357052199
    Total Energy =                       -232.1407035705220778
  Basis Set: 6-31G*
  Basis Set:
  Basis Set: 6-31G*
  Basis Set:
  @DF-RHF Final Energy:  -232.14115352081606
    Total Energy =                       -232.1411535208159194
  Basis Set: 6-31G*
  Basis Set:
  Basis Set: 6-31G*
  Basis Set:
  @DF-RHF Final Energy:  -232.14121218768213
    Total Energy =                       -232.1412121876822425
  Basis Set: 6-31G*
  Basis Set:
  Basis Set: 6-31G*
  Basis Set:
  @DF-RHF Final Energy:  -232.14121729700386
    Total Energy =                       -232.1412172970041752
  Basis Set: 6-31G*
  Basis Set:
  Charge       = 0
  Multiplicity = 1
  Basis Set: 6-31G*
  Basis Set:

    Orbital Energies (a.u.)
    -----------------------

    Doubly Occupied:

       1A    -20.554810     2A    -11.269344     3A    -11.213572
       4A    -11.209196     5A    -11.192541     6A     -1.361811
       7A     -1.059869     8A     -0.969749     9A     -0.858455
      10A     -0.778205    11A     -0.705465    12A     -0.645120
      13A     -0.601994    14A     -0.582017    15A     -0.544420
      16A     -0.535907    17A     -0.509240    18A     -0.470144
      19A     -0.462543    20A     -0.446931    21A     -0.430668

  @DF-RHF Final Energy:  -232.14121857745658

   => Energetics <=

    Nuclear Repulsion Energy =            192.6088977029975240
    One-Electron Energy =                -696.6962327734145219
    Two-Electron Energy =                 271.9461164929605275
    DFT Exchange-Correlation Energy =       0.0000000000000000
    Empirical Dispersion Energy =           0.0000000000000000
    PCM Polarization Energy =               0.0000000000000000
    EFP Energy =                            0.0000000000000000
    Total Energy =                       -232.1412185774564705
    Molecular point group: c1
  Basis Set: 6-31G*
  Basis Set:

  -Total Gradient:
     Atom            X                  Y                   Z
    ------   -----------------  -----------------  -----------------
       1        0.000006493334     0.000014524188    -0.000004418094
       2       -0.000104250092    -0.001306400356    -0.002496378760
       3        0.000091237790     0.001338225250     0.002679501643
       4        0.000538715102     0.002077888481     0.002662865889
       5        0.000027931352    -0.000031176184     0.000000837831
       6       -0.000015034672    -0.000011673763     0.000005190301
       7        0.000029310573    -0.000005199224    -0.000024303305
       8       -0.000501523895    -0.002112950504    -0.002842543081
       9       -0.000029972208     0.000024878290     0.000016154197
      10       -0.000015711362     0.000057287098     0.000009619632
      11       -0.000002187837     0.000004598111     0.000005774150
      12       -0.000009485111    -0.000013380573     0.000009623046
      13       -0.000023186411    -0.000020377972    -0.000017306183
      14        0.000005805253    -0.000010534513    -0.000005634867
      15        0.000001858179    -0.000005708327     0.000001017599

  **** Optimization is complete! (in 7 steps) ****
    Final optimized geometry and variables:
    Molecular point group: c1

    Geometry (in Angstrom), charge = 0, multiplicity = 1:

    H            1.791417762679    -1.449512683470     1.079583640699
    O            1.023865414187    -0.945176616856     0.850598830398
    C            1.416856989806     0.235553609321     0.199201238588
    C            0.196742506236     1.060675179941    -0.188105484402
    H            1.977866916546    -0.010986692856    -0.701573082402
    H            2.069478090426     0.828281041377     0.837576396109
    C           -0.895400382487     0.288264680731    -0.948235296247
    H            0.559608787322     1.854949373807    -0.836729601777
    H           -0.228338660734     1.530451787223     0.694550632548
    C           -1.899855538626    -0.446532223085    -0.059036177442
    H           -0.427679240308    -0.416853107057    -1.631496716815
    H           -1.440418118847     0.994761467004    -1.569543394022
    H           -2.656618511775    -0.937861148777    -0.664497099391
    H           -1.414156596547    -1.192980465129     0.553848759397
    H           -2.410866936418     0.250879619530     0.599953393852

  Mulliken Charges: (a.u.)
   Center  Symbol    Alpha    Beta     Spin     Total
       1     H     0.28029  0.28029  0.00000  0.43941
       2     O     4.36875  4.36875  0.00000 -0.73751
       3     C     2.99472  2.99472  0.00000  0.01055
       4     C     3.16369  3.16369  0.00000 -0.32737
       5     H     0.43278  0.43278  0.00000  0.13444
       6     H     0.42974  0.42974  0.00000  0.14052
       7     C     3.15061  3.15061  0.00000 -0.30122
       8     H     0.42201  0.42201  0.00000  0.15598
       9     H     0.41688  0.41688  0.00000  0.16625
      10     C     3.24094  3.24094  0.00000 -0.48188
      11     H     0.42195  0.42195  0.00000  0.15610
      12     H     0.42385  0.42385  0.00000  0.15229
      13     H     0.42577  0.42577  0.00000  0.14847
      14     H     0.40088  0.40088  0.00000  0.19823
      15     H     0.42713  0.42713  0.00000  0.14574

   Total alpha = 21.00000, Total beta = 21.00000, Total charge = -0.00000
