                              Psi4 1.0.54 Driver

  ==> Input File <==

--------------------------------------------------------------------------
set {
	reference rhf
	basis cc-pvtz
}

set_num_threads( 4 )
memory 2 gb

molecule MOL {
0 1

O	 -2.038683	 1.836335	 -1.005413
C	 -1.937516	 0.754624	 -0.524687
C	 -0.805141	 -0.173161	 -0.918374
C	 -2.914406	 0.254668	 0.512857
C	 0.464975	 0.137091	 -0.116257
H	 -0.613180	 -0.026450	 -1.973712
H	 -1.095122	 -1.207155	 -0.764648
C	 1.630207	 -0.772146	 -0.501001
H	 0.724273	 1.175577	 -0.279163
H	 0.263160	 0.027617	 0.946563
C	 2.907848	 -0.545876	 0.309149
H	 1.848490	 -0.643966	 -1.558309
H	 1.321305	 -1.806520	 -0.377492
C	 3.373802	 0.906639	 0.372125
H	 3.699140	 -1.146831	 -0.127906
H	 2.764321	 -0.923458	 1.318191
H	 3.519798	 1.311927	 -0.623875
H	 4.316899	 0.983758	 0.900700
H	 2.661122	 1.540651	 0.885346
H	 -3.496479	 -0.559002	 0.091987
H	 -3.575932	 1.051727	 0.815593
H	 -2.388655	 -0.140323	 1.374922

	symmetry c1
}
set optking {
	frozen_dihedral = ("
		12 8 11 15
	")
}

ee,wfn = optimize('scf', return_wfn=True)
oeprop( wfn, 'DIPOLE', 'QUADRUPOLE', 'MULLIKEN_CHARGES')
f=open( 'psi4out.xyz', 'w' )
f.write( "22  " )
f.write( str(ee) + "\n" )
f.write( MOL.save_string_xyz() )
f.close()
--------------------------------------------------------------------------

    Molecular point group: c1
  Charge       = 0
  Multiplicity = 1
  Basis Set: CC-PVTZ
  Basis Set:
  @DF-RHF Final Energy:  -348.22256219331962
    Total Energy =                       -348.2225621933191064
    Molecular point group: c1
  Basis Set: CC-PVTZ
  Basis Set:
  Basis Set: CC-PVTZ
  Basis Set:
  @DF-RHF Final Energy:  -348.22259672971791
    Total Energy =                       -348.2225967297177363
  Basis Set: CC-PVTZ
  Basis Set:
  Basis Set: CC-PVTZ
  Basis Set:
  @DF-RHF Final Energy:  -348.22275193121749
    Total Energy =                       -348.2227519312172603
  Basis Set: CC-PVTZ
  Basis Set:
  Basis Set: CC-PVTZ
  Basis Set:
  @DF-RHF Final Energy:  -348.22276832268341
    Total Energy =                       -348.2227683226838622
  Basis Set: CC-PVTZ
  Basis Set:
  Basis Set: CC-PVTZ
  Basis Set:
  @DF-RHF Final Energy:  -348.22277640553182
    Total Energy =                       -348.2227764055315333
  Basis Set: CC-PVTZ
  Basis Set:
  Basis Set: CC-PVTZ
  Basis Set:
  @DF-RHF Final Energy:  -348.22277853801984
    Total Energy =                       -348.2227785380196678
  Basis Set: CC-PVTZ
  Basis Set:
  Basis Set: CC-PVTZ
  Basis Set:
  @DF-RHF Final Energy:  -348.22278172403554
    Total Energy =                       -348.2227817240352579
  Basis Set: CC-PVTZ
  Basis Set:
  Charge       = 0
  Multiplicity = 1
  Basis Set: CC-PVTZ
  Basis Set:

    Orbital Energies (a.u.)
    -----------------------

    Doubly Occupied:

       1A    -20.536758     2A    -11.319282     3A    -11.228102
       4A    -11.227490     5A    -11.226932     6A    -11.220618
       7A    -11.219228     8A    -11.209383     9A     -1.396831
      10A     -1.097287    11A     -1.045487    12A     -1.000077
      13A     -0.938680    14A     -0.861050    15A     -0.784265
      16A     -0.734392    17A     -0.664849    18A     -0.646582
      19A     -0.630160    20A     -0.620705    21A     -0.597195
      22A     -0.586133    23A     -0.563406    24A     -0.539082
      25A     -0.536250    26A     -0.524214    27A     -0.498254
      28A     -0.491009    29A     -0.469288    30A     -0.465467
      31A     -0.462259    32A     -0.398562

  @DF-RHF Final Energy:  -348.22278196751563

   => Energetics <=

    Nuclear Repulsion Energy =            374.1879126916855967
    One-Electron Energy =               -1213.3428230140293635
    Two-Electron Energy =                 490.9321283548283645
    DFT Exchange-Correlation Energy =       0.0000000000000000
    Empirical Dispersion Energy =           0.0000000000000000
    PCM Polarization Energy =               0.0000000000000000
    EFP Energy =                            0.0000000000000000
    Total Energy =                       -348.2227819675154024
    Molecular point group: c1
  Basis Set: CC-PVTZ
  Basis Set:

  -Total Gradient:
     Atom            X                  Y                   Z
    ------   -----------------  -----------------  -----------------
       1       -0.000018272950     0.000108787208    -0.000050133023
       2        0.000024091797    -0.000051930532     0.000013426672
       3       -0.000023308827     0.000008811065    -0.000001496793
       4       -0.000008203816    -0.000016446932    -0.000008638902
       5       -0.000030585901    -0.000020259965     0.000023729145
       6       -0.000006724901    -0.000004093668    -0.000031092794
       7       -0.000014923748    -0.000021630915     0.000011636140
       8       -0.000618804063     0.004073117605    -0.000000281268
       9       -0.000010866706     0.000017486928     0.000012794627
      10       -0.000006071539    -0.000001812365     0.000030475331
      11       -0.000731898529    -0.003509365122     0.001992254219
      12        0.000670045334    -0.002900531047    -0.000304566892
      13        0.000024134896     0.000001080928    -0.000004724406
      14        0.000016577625    -0.000003778453    -0.000028397523
      15        0.000756614000     0.002271901044    -0.001720806934
      16       -0.000024488844    -0.000013337329     0.000020276266
      17        0.000014412061     0.000025231452    -0.000039428184
      18        0.000036667068    -0.000005832998     0.000020338542
      19       -0.000047355070     0.000049260737     0.000031474270
      20        0.000002542124    -0.000013280870    -0.000011963276
      21       -0.000010366149     0.000020036415     0.000008645805
      22        0.000006786134    -0.000013413187     0.000036478980

  **** Optimization is complete! (in 8 steps) ****
    Final optimized geometry and variables:
    Molecular point group: c1

    Geometry (in Angstrom), charge = 0, multiplicity = 1:

    O           -2.187726265780     1.477332977258    -0.752828497177
    C           -2.048573782404     0.398366250909    -0.275436891983
    C           -0.895626272106    -0.495942981969    -0.686219062704
    C           -2.997058253163    -0.131545789024     0.773527349966
    C            0.375527873458    -0.152492091553     0.100813431921
    H           -0.721056711634    -0.340340046167    -1.743338490460
    H           -1.154749999116    -1.538090801145    -0.532614857314
    C            1.562507702306    -1.017088037704    -0.314624671435
    H            0.597357758865     0.895768178600    -0.053254762237
    H            0.193750892156    -0.281061134590     1.165415889945
    C            2.838512058494    -0.814127751938     0.506662883083
    H            1.783701487072    -0.860165770041    -1.367293602519
    H            1.275590737808    -2.062732095161    -0.234180961744
    C            3.326538193616     0.631555792629     0.588400580761
    H            3.626538716610    -1.405538869761     0.051288006330
    H            2.691193655408    -1.201932083584     1.510450694044
    H            3.454313892562     1.057752600666    -0.401652636031
    H            4.283926242883     0.681540213033     1.094140484604
    H            2.637482809843     1.264707874268     1.133903670216
    H           -3.561717859201    -0.959774887517     0.357333042808
    H           -3.676533212174     0.645915684761     1.087341178566
    H           -2.449504906032    -0.514429419492     1.627492712870

  Mulliken Charges: (a.u.)
   Center  Symbol    Alpha    Beta     Spin     Total
       1     O     4.17789  4.17789  0.00000 -0.35578
       2     C     2.85852  2.85852  0.00000  0.28296
       3     C     3.09748  3.09748  0.00000 -0.19496
       4     C     3.15533  3.15533  0.00000 -0.31066
       5     C     3.10511  3.10511  0.00000 -0.21022
       6     H     0.43907  0.43907  0.00000  0.12187
       7     H     0.44819  0.44819  0.00000  0.10362
       8     C     3.09754  3.09754  0.00000 -0.19508
       9     H     0.43770  0.43770  0.00000  0.12461
      10     H     0.45158  0.45158  0.00000  0.09683
      11     C     3.09042  3.09042  0.00000 -0.18083
      12     H     0.44944  0.44944  0.00000  0.10113
      13     H     0.45007  0.45007  0.00000  0.09985
      14     C     3.15497  3.15497  0.00000 -0.30993
      15     H     0.44839  0.44839  0.00000  0.10321
      16     H     0.45302  0.45302  0.00000  0.09395
      17     H     0.45256  0.45256  0.00000  0.09489
      18     H     0.44553  0.44553  0.00000  0.10894
      19     H     0.45202  0.45202  0.00000  0.09595
      20     H     0.44834  0.44834  0.00000  0.10332
      21     H     0.43606  0.43606  0.00000  0.12788
      22     H     0.45078  0.45078  0.00000  0.09845

   Total alpha = 32.00000, Total beta = 32.00000, Total charge = -0.00000

*** Psi4 exiting successfully. Buy a developer a beer!
