  ==> Input File <==

--------------------------------------------------------------------------
set {
	reference rhf
	basis 6-31G*
}

set_num_threads( 1 )
memory 2 gb

molecule MOL {
0 1

H	 -3.161837	 0.500524	 -0.000234
C	 -2.367097	 -0.232926	 -0.000000
O	 -1.158440	 0.455814	 -0.000122
H	 -2.468853	 -0.861886	 -0.882833
H	 -2.468942	 -0.861421	 0.883154
C	 -0.029776	 -0.365156	 0.000148
C	 1.212217	 0.508981	 0.000007
H	 -0.036772	 -1.013236	 -0.877259
H	 -0.036869	 -1.012778	 0.877897
C	 1.505911	 1.107298	 1.375013
H	 2.053808	 -0.088760	 -0.336283
H	 1.076911	 1.299315	 -0.731953
H	 1.668863	 0.331743	 2.118238
H	 2.396338	 1.726275	 1.345775
H	 0.684627	 1.729209	 1.720157

	symmetry c1
}
set optking {
	frozen_dihedral = ("
		6 3 2 4,
		8 6 3 2
	")
}

ee = energy('scf')
oeprop('DIPOLE', 'QUADRUPOLE', 'MULLIKEN_CHARGES')
f=open( 'psi4out.xyz', 'w' )
f.write( "15  " )
f.write( str(ee) + "\n" )
f.write( MOL.save_string_xyz() )
f.close()
--------------------------------------------------------------------------

    Molecular point group: c1

    Geometry (in Angstrom), charge = 0, multiplicity = 1:

       Center              X                  Y                   Z               Mass
    ------------   -----------------  -----------------  -----------------  -----------------
           H         -2.959751595734     0.213351973622    -0.278998065580     1.007825032070
           C         -2.165011595734    -0.520098026378    -0.278764065580    12.000000000000
           O         -0.956354595734     0.168641973622    -0.278886065580    15.994914619560
           H         -2.266767595734    -1.149058026378    -1.161597065580     1.007825032070
           H         -2.266856595734    -1.148593026378     0.604389934420     1.007825032070
           C          0.172309404266    -0.652328026378    -0.278616065580    12.000000000000
           C          1.414302404266     0.221808973622    -0.278757065580    12.000000000000
           H          0.165313404266    -1.300408026378    -1.156023065580     1.007825032070
           H          0.165216404266    -1.299950026378     0.599132934420     1.007825032070
           C          1.707996404266     0.820125973622     1.096248934420    12.000000000000
           H          2.255893404266    -0.375932026378    -0.615047065580     1.007825032070
           H          1.278996404266     1.012142973622    -1.010717065580     1.007825032070
           H          1.870948404266     0.044570973622     1.839473934420     1.007825032070
           H          2.598423404266     1.439102973622     1.067010934420     1.007825032070
           H          0.886712404266     1.442036973622     1.441392934420     1.007825032070

  Charge       = 0
  Multiplicity = 1
  Basis Set: 6-31G*
  Basis Set:

    Orbital Energies (a.u.)
    -----------------------

    Doubly Occupied:

       1A    -20.554003     2A    -11.266032     3A    -11.264284
       4A    -11.214291     5A    -11.205315     6A     -1.379008
       7A     -1.054683     8A     -0.950974     9A     -0.884202
      10A     -0.802275    11A     -0.668289    12A     -0.662987
      13A     -0.632652    14A     -0.587057    15A     -0.571705
      16A     -0.546253    17A     -0.496264    18A     -0.485973
      19A     -0.480186    20A     -0.459662    21A     -0.412703

  @DF-RHF Final Energy:  -232.13861390855064

   => Energetics <=

    Nuclear Repulsion Energy =            192.4065537616298514
    One-Electron Energy =                -695.9327284254258075
    Two-Electron Energy =                 271.3875607552449196
    DFT Exchange-Correlation Energy =       0.0000000000000000
    Empirical Dispersion Energy =           0.0000000000000000
    PCM Polarization Energy =               0.0000000000000000
    EFP Energy =                            0.0000000000000000
    Total Energy =                       -232.1386139085510081

  Mulliken Charges: (a.u.)
   Center  Symbol    Alpha    Beta     Spin     Total
       1     H     0.41227  0.41227  0.00000  0.17546
       2     C     3.07915  3.07915  0.00000 -0.15829
       3     O     4.30377  4.30377  0.00000 -0.60753
       4     H     0.43029  0.43029  0.00000  0.13942
       5     H     0.43028  0.43028  0.00000  0.13945
       6     C     2.98901  2.98901  0.00000  0.02198
       7     C     3.16014  3.16014  0.00000 -0.32028
       8     H     0.43075  0.43075  0.00000  0.13851
       9     H     0.43289  0.43289  0.00000  0.13422
      10     C     3.24320  3.24320  0.00000 -0.48639
      11     H     0.42253  0.42253  0.00000  0.15495
      12     H     0.41118  0.41118  0.00000  0.17763
      13     H     0.42404  0.42404  0.00000  0.15192
      14     H     0.41998  0.41998  0.00000  0.16004
      15     H     0.41054  0.41054  0.00000  0.17892

   Total alpha = 21.00000, Total beta = 21.00000, Total charge =  0.00000
