  ==> Input File <==

--------------------------------------------------------------------------
set {
	reference rhf
	basis cc-pvtz
}

set_num_threads( 4 )
memory 2 gb

molecule MOL {
0 1

H	 1.349414	 -1.541395	 -0.305213
O	 1.583947	 -0.677544	 -0.001533
C	 0.489979	 0.078084	 0.002623
C	 -0.763662	 -0.754014	 0.000816
O	 0.539051	 1.259395	 -0.000088
C	 -2.038001	 0.074705	 -0.000833
H	 -0.712945	 -1.405886	 -0.864342
H	 -0.715137	 -1.405770	 0.866182
H	 -2.087267	 0.710831	 -0.874232
H	 -2.903419	 -0.576199	 -0.001922
H	 -2.089467	 0.710909	 0.872389

	symmetry c1
}
set optking {
	frozen_dihedral = ("
		1 2 3 5
	")
}

ee = optimize('scf')
oeprop('DIPOLE', 'QUADRUPOLE', 'MULLIKEN_CHARGES')
f=open( 'psi4out.xyz', 'w' )
f.write( "11  " )
f.write( str(ee) + "\n" )
f.write( MOL.save_string_xyz() )
f.close()
--------------------------------------------------------------------------

    Molecular point group: c1
  Charge       = 0
  Multiplicity = 1
  Basis Set: CC-PVTZ
  Basis Set:
  @DF-RHF Final Energy:  -266.94118009292060
    Total Energy =                       -266.9411800929204901
    Molecular point group: c1
  Basis Set: CC-PVTZ
  Basis Set:
  Basis Set: CC-PVTZ
  Basis Set:
  @DF-RHF Final Energy:  -266.94245662577748
    Total Energy =                       -266.9424566257774813
  Basis Set: CC-PVTZ
  Basis Set:
  Basis Set: CC-PVTZ
  Basis Set:
  @DF-RHF Final Energy:  -266.94252346536905
    Total Energy =                       -266.9425234653690495
  Basis Set: CC-PVTZ
  Basis Set:
  Basis Set: CC-PVTZ
  Basis Set:
  @DF-RHF Final Energy:  -266.94256397140998
    Total Energy =                       -266.9425639714100384
  Basis Set: CC-PVTZ
  Basis Set:
  Basis Set: CC-PVTZ
  Basis Set:
  @DF-RHF Final Energy:  -266.94262192892955
    Total Energy =                       -266.9426219289296114
  Basis Set: CC-PVTZ
  Basis Set:
  Charge       = 0
  Multiplicity = 1
  Basis Set: CC-PVTZ
  Basis Set:

    Orbital Energies (a.u.)
    -----------------------

    Doubly Occupied:

       1A    -20.603691     2A    -20.538839     3A    -11.373759
       4A    -11.253621     5A    -11.224273     6A     -1.471614
       7A     -1.374603     8A     -1.069711     9A     -0.909437
      10A     -0.831105    11A     -0.719927    12A     -0.670173
      13A     -0.662044    14A     -0.614373    15A     -0.594637
      16A     -0.535063    17A     -0.528947    18A     -0.513488
      19A     -0.483646    20A     -0.445907

  @DF-RHF Final Energy:  -266.94262407429414

   => Energetics <=

    Nuclear Repulsion Energy =            180.0229909369577115
    One-Electron Energy =                -721.0935136394516576
    Two-Electron Energy =                 274.1278986281996595
    DFT Exchange-Correlation Energy =       0.0000000000000000
    Empirical Dispersion Energy =           0.0000000000000000
    PCM Polarization Energy =               0.0000000000000000
    EFP Energy =                            0.0000000000000000
    Total Energy =                       -266.9426240742942582
    Molecular point group: c1
  Basis Set: CC-PVTZ
  Basis Set:

  -Total Gradient:
     Atom            X                  Y                   Z
    ------   -----------------  -----------------  -----------------
       1        0.000806802504     0.001312071198    -0.004241558857
       2       -0.001055408919    -0.001660516884     0.003643223389
       3        0.000306731275     0.000273346712     0.004469214333
       4       -0.000001988933     0.000001692758     0.000026289258
       5       -0.000049035866     0.000067634832    -0.003886158955
       6        0.000002425136     0.000005041391    -0.000005791400
       7        0.000004767274     0.000017800055    -0.000005156395
       8       -0.000008491539    -0.000001912042    -0.000007510345
       9        0.000007532342    -0.000008465725     0.000005352386
      10       -0.000013698913    -0.000002802099     0.000002138126
      11        0.000000365639    -0.000003890199    -0.000000041540

  **** Optimization is complete! (in 6 steps) ****
    Final optimized geometry and variables:
    Molecular point group: c1

    Geometry (in Angstrom), charge = 0, multiplicity = 1:

    H            1.490821431932    -1.513340427974    -0.305515209327
    O            1.631759679362    -0.632878618142    -0.004142714071
    C            0.500655089625     0.081081473061     0.005202258281
    C           -0.770626405881    -0.738229380938     0.006799913907
    O            0.540786163582     1.255944380759     0.009937358785
    C           -2.034099422535     0.106918460286     0.003790521602
    H           -0.745411747939    -1.392533940148    -0.861276131089
    H           -0.737646366633    -1.387229354358     0.876562321784
    H           -2.072476357593     0.741513804890    -0.870868801342
    H           -2.909299344017    -0.530951856244     0.005695443754
    H           -2.071691159049     0.745523742607     0.875396260105

  Mulliken Charges: (a.u.)
   Center  Symbol    Alpha    Beta     Spin     Total
       1     H     0.38796  0.38796  0.00000  0.22407
       2     O     4.14771  4.14771  0.00000 -0.29541
       3     C     2.80564  2.80564  0.00000  0.38873
       4     C     3.11502  3.11502  0.00000 -0.23005
       5     O     4.17366  4.17366  0.00000 -0.34733
       6     C     3.14039  3.14039  0.00000 -0.28077
       7     H     0.45006  0.45006  0.00000  0.09988
       8     H     0.43883  0.43883  0.00000  0.12233
       9     H     0.44578  0.44578  0.00000  0.10844
      10     H     0.45043  0.45043  0.00000  0.09913
      11     H     0.44451  0.44451  0.00000  0.11098

   Total alpha = 20.00000, Total beta = 20.00000, Total charge = -0.00000
