                              Psi4 1.0.54 Driver

  ==> Input File <==

--------------------------------------------------------------------------
set {
	reference rhf
	basis cc-pvtz
}

set_num_threads( 4 )
memory 2 gb

molecule MOL {
0 1

H	 3.721907	 -0.933076	 -0.066039
O	 2.824271	 -1.154299	 0.131461
C	 2.076458	 -0.067370	 -0.038225
C	 0.626018	 -0.337582	 0.258241
O	 2.538288	 0.965419	 -0.381593
C	 -0.267326	 0.883135	 0.076490
H	 0.325620	 -1.161483	 -0.378003
H	 0.574537	 -0.713685	 1.275261
C	 -1.726822	 0.642622	 0.463839
H	 -0.210803	 1.217591	 -0.953497
H	 0.129920	 1.693110	 0.675679
C	 -2.480891	 -0.340606	 -0.429852
H	 -2.243098	 1.597649	 0.438609
H	 -1.776542	 0.301208	 1.495542
C	 -1.975427	 -1.772644	 -0.287548
H	 -3.538932	 -0.306233	 -0.184084
H	 -2.398609	 -0.040898	 -1.469736
H	 -2.527458	 -2.449380	 -0.929399
H	 -2.080223	 -2.124713	 0.733120
H	 -0.926428	 -1.845381	 -0.554877

	symmetry c1
}
set optking {
	frozen_dihedral = ("
		16 12 9 6
	")
}

ee,wfn = optimize('scf', return_wfn=True)
oeprop( wfn, 'DIPOLE', 'QUADRUPOLE', 'MULLIKEN_CHARGES')
f=open( 'psi4out.xyz', 'w' )
f.write( "20  " )
f.write( str(ee) + "\n" )
f.write( MOL.save_string_xyz() )
f.close()
--------------------------------------------------------------------------

    Molecular point group: c1
  Charge       = 0
  Multiplicity = 1
  Basis Set: CC-PVTZ
  Basis Set:
  @DF-RHF Final Energy:  -384.07681688782134
    Total Energy =                       -384.0768168878214510
    Molecular point group: c1
  Basis Set: CC-PVTZ
  Basis Set:
  Basis Set: CC-PVTZ
  Basis Set:
  @DF-RHF Final Energy:  -384.08730509228474
    Total Energy =                       -384.0873050922849643
  Basis Set: CC-PVTZ
  Basis Set:
  Basis Set: CC-PVTZ
  Basis Set:
  @DF-RHF Final Energy:  -384.08932780388523
    Total Energy =                       -384.0893278038851122
  Basis Set: CC-PVTZ
  Basis Set:
  Basis Set: CC-PVTZ
  Basis Set:
  @DF-RHF Final Energy:  -384.08954428283812
    Total Energy =                       -384.0895442828377782
  Basis Set: CC-PVTZ
  Basis Set:
  @DF-RHF Final Energy:  -384.08972647512581
    Total Energy =                       -384.0897264751258717
  @DF-RHF Final Energy:  -384.08981306850393
    Total Energy =                       -384.0898130685040996
  @DF-RHF Final Energy:  -384.08985054959493
    Total Energy =                       -384.0898505495952122
  @DF-RHF Final Energy:  -384.08988311507898
    Total Energy =                       -384.0898831150785782
  @DF-RHF Final Energy:  -384.08991405781842
    Total Energy =                       -384.0899140578191009
  @DF-RHF Final Energy:  -384.08999960278237
    Total Energy =                       -384.0899996027826546
  @DF-RHF Final Energy:  -384.09006173191591
    Total Energy =                       -384.0900617319164212
  @DF-RHF Final Energy:  -384.09024634949259
    Total Energy =                       -384.0902463494929862
  @DF-RHF Final Energy:  -384.09028896331887
    Total Energy =                       -384.0902889633186987
  @DF-RHF Final Energy:  -384.09035591136535
    Total Energy =                       -384.0903559113655774
  @DF-RHF Final Energy:  -384.09040360147173
    Total Energy =                       -384.0904036014713938
  @DF-RHF Final Energy:  -384.09041961207589
    Total Energy =                       -384.0904196120757206
  @DF-RHF Final Energy:  -384.09043252303542
    Total Energy =                       -384.0904325230352470
  @DF-RHF Final Energy:  -384.09044275332593
    Total Energy =                       -384.0904427533258740
  Basis Set: CC-PVTZ
  Basis Set:
  @DF-RHF Final Energy:  -384.09045017197747
    Total Energy =                       -384.0904501719775226
  Basis Set: CC-PVTZ
  Basis Set:
  Basis Set: CC-PVTZ
  Basis Set:
  @DF-RHF Final Energy:  -384.09045455831790
    Total Energy =                       -384.0904545583179015
  Basis Set: CC-PVTZ
  Basis Set:
  Basis Set: CC-PVTZ
  Basis Set:
  @DF-RHF Final Energy:  -384.09045671501491
    Total Energy =                       -384.0904567150153071
  Basis Set: CC-PVTZ
  Basis Set:
  Charge       = 0
  Multiplicity = 1
  Basis Set: CC-PVTZ
  Basis Set:

    Orbital Energies (a.u.)
    -----------------------

    Doubly Occupied:

       1A    -20.603587     2A    -20.540242     3A    -11.372946
       4A    -11.237934     5A    -11.220969     6A    -11.218916
       7A    -11.218249     8A    -11.212010     9A     -1.477141
      10A     -1.368638    11A     -1.095355    12A     -1.040534
      13A     -0.962729    14A     -0.879496    15A     -0.809101
      16A     -0.779093    17A     -0.703366    18A     -0.689896
      19A     -0.668814    20A     -0.627882    21A     -0.616984
      22A     -0.595022    23A     -0.575973    24A     -0.560080
      25A     -0.532430    26A     -0.519225    27A     -0.501993
      28A     -0.484091    29A     -0.470535    30A     -0.466285
      31A     -0.455043    32A     -0.443549

  @DF-RHF Final Energy:  -384.09045680348771

   => Energetics <=

    Nuclear Repulsion Energy =            382.3903194707543776
    One-Electron Energy =               -1281.0653416887321328
    Two-Electron Energy =                 514.5845654144898162
    DFT Exchange-Correlation Energy =       0.0000000000000000
    Empirical Dispersion Energy =           0.0000000000000000
    PCM Polarization Energy =               0.0000000000000000
    EFP Energy =                            0.0000000000000000
    Total Energy =                       -384.0904568034879958
    Molecular point group: c1
  Basis Set: CC-PVTZ
  Basis Set:

  -Total Gradient:
     Atom            X                  Y                   Z
    ------   -----------------  -----------------  -----------------
       1       -0.000005682463     0.000000525336     0.000002704969
       2        0.000002281270     0.000004130369    -0.000013815768
       3        0.000002707286     0.000003564798     0.000005135485
       4       -0.000006316401    -0.000018936505    -0.000028988079
       5       -0.000008694136    -0.000016095068     0.000018695494
       6       -0.000219441545     0.000538586807    -0.000420122969
       7        0.000000702358     0.000009391138     0.000015411763
       8        0.000003866361     0.000006418647    -0.000005506616
       9        0.000277143107    -0.000627706357     0.000466360541
      10       -0.000001419979     0.000004523051    -0.000001276388
      11        0.000000008603    -0.000005930787     0.000003562253
      12        0.000090519472    -0.000593966429     0.000622920637
      13       -0.000003539795    -0.000001581221    -0.000005337568
      14        0.000001712102     0.000005764176     0.000000711393
      15       -0.000004005646     0.000006659132     0.000007873385
      16       -0.000143341162     0.000677132726    -0.000658868361
      17       -0.000000406979     0.000001152717    -0.000000723738
      18        0.000003674112     0.000003106084    -0.000001622027
      19        0.000000485034    -0.000001363026    -0.000003257912
      20        0.000009748395     0.000004624409    -0.000003856493

  **** Optimization is complete! (in 22 steps) ****
    Final optimized geometry and variables:
    Molecular point group: c1

    Geometry (in Angstrom), charge = 0, multiplicity = 1:

    H            3.606722560871    -0.448798699368     0.389378882619
    O            2.734999194876    -0.622522330942     0.711297300662
    C            1.887636812378     0.195166029271     0.092454021191
    C            0.470799228122    -0.018673927274     0.552578694594
    O            2.248503323377     0.980034605856    -0.715018280164
    C           -0.533624792346     0.905039768923    -0.127972097870
    H            0.242695221628    -1.065275032831     0.397751331497
    H            0.462887537117     0.127311283825     1.627903778289
    C           -1.985452953434     0.711814905636     0.338750825738
    H           -0.469292867079     0.781378638482    -1.202876791628
    H           -0.229441225901     1.925336886534     0.068721818920
    C           -2.832020213024    -0.271048894882    -0.475999808570
    H           -2.481472954859     1.675098980668     0.289291005740
    H           -2.002181134813     0.423781324214     1.387269626167
    C           -2.428212857182    -1.740339560629    -0.389789109779
    H           -3.862934847295    -0.172295505338    -0.150030218300
    H           -2.820171689595     0.039568878863    -1.517223208524
    H           -3.149194239969    -2.363039164393    -0.906683280247
    H           -2.381046725759    -2.077572193625     0.640682920313
    H           -1.462943770231    -1.923289722954    -0.846331137988

  Mulliken Charges: (a.u.)
   Center  Symbol    Alpha    Beta     Spin     Total
       1     H     0.38250  0.38250  0.00000  0.23500
       2     O     4.16061  4.16061  0.00000 -0.32123
       3     C     2.80385  2.80385  0.00000  0.39230
       4     C     3.11223  3.11223  0.00000 -0.22446
       5     O     4.19140  4.19140  0.00000 -0.38279
       6     C     3.09610  3.09610  0.00000 -0.19220
       7     H     0.43598  0.43598  0.00000  0.12804
       8     H     0.43695  0.43695  0.00000  0.12611
       9     C     3.10486  3.10486  0.00000 -0.20973
      10     H     0.44414  0.44414  0.00000  0.11172
      11     H     0.43868  0.43868  0.00000  0.12263
      12     C     3.08432  3.08432  0.00000 -0.16863
      13     H     0.44171  0.44171  0.00000  0.11657
      14     H     0.45533  0.45533  0.00000  0.08934
      15     C     3.16080  3.16080  0.00000 -0.32160
      16     H     0.44835  0.44835  0.00000  0.10330
      17     H     0.45308  0.45308  0.00000  0.09383
      18     H     0.44243  0.44243  0.00000  0.11514
      19     H     0.45251  0.45251  0.00000  0.09497
      20     H     0.45416  0.45416  0.00000  0.09168

   Total alpha = 32.00000, Total beta = 32.00000, Total charge = -0.00000

*** Psi4 exiting successfully. Buy a developer a beer!
