  ==> Input File <==

--------------------------------------------------------------------------
set {
	reference rhf
	basis cc-pvtz
}

set_num_threads( 4 )
memory 2 gb

molecule MOL {
0 1

H	 -0.097867	 -3.730071	 -0.124227
O	 0.243582	 -2.849940	 -0.074050
C	 -0.779682	 -2.000506	 -0.077824
C	 -0.318151	 -0.570512	 0.000144
O	 -1.902096	 -2.367539	 -0.136494
C	 -1.454884	 0.441630	 -0.000560
H	 0.290437	 -0.478876	 0.894076
H	 0.356359	 -0.406013	 -0.834048
C	 -2.822577	 -0.232186	 0.000063
H	 -1.359760	 1.084704	 -0.867077
H	 -1.359641	 1.085996	 0.864983
H	 -2.954352	 -0.858985	 -0.875745
H	 -3.615886	 0.505352	 0.000019
H	 -2.953878	 -0.858359	 0.876394

	symmetry c1
}
set optking {
	frozen_dihedral = ("
		7 4 6 10
	")
}

ee = optimize('scf')
oeprop('DIPOLE', 'QUADRUPOLE', 'MULLIKEN_CHARGES')
f=open( 'psi4out.xyz', 'w' )
f.write( "14  " )
f.write( str(ee) + "\n" )
f.write( MOL.save_string_xyz() )
f.close()
--------------------------------------------------------------------------

    Molecular point group: c1
  Charge       = 0
  Multiplicity = 1
  Basis Set: CC-PVTZ
  Basis Set:
  @DF-RHF Final Energy:  -305.96436307083070
    Total Energy =                       -305.9643630708309274
    Molecular point group: c1
  Basis Set: CC-PVTZ
  Basis Set:
  Basis Set: CC-PVTZ
  Basis Set:
  @DF-RHF Final Energy:  -305.98324703725905
    Total Energy =                       -305.9832470372590478
  Basis Set: CC-PVTZ
  Basis Set:
  Basis Set: CC-PVTZ
  Basis Set:
  @DF-RHF Final Energy:  -305.98686546574277
    Total Energy =                       -305.9868654657426532
  Basis Set: CC-PVTZ
  Basis Set:
  Basis Set: CC-PVTZ
  Basis Set:
  @DF-RHF Final Energy:  -305.98507729651487
    Total Energy =                       -305.9850772965146462
  Basis Set: CC-PVTZ
  Basis Set:
  @DF-RHF Final Energy:  -305.98834745012084
    Total Energy =                       -305.9883474501211822
  @DF-RHF Final Energy:  -305.98861670580936
    Total Energy =                       -305.9886167058093633
  @DF-RHF Final Energy:  -305.98868396156877
    Total Energy =                       -305.9886839615688814
  @DF-RHF Final Energy:  -305.98885567087035
    Total Energy =                       -305.9888556708700662
  @DF-RHF Final Energy:  -305.98912234260877
    Total Energy =                       -305.9891223426085389
  @DF-RHF Final Energy:  -305.98949869400525
    Total Energy =                       -305.9894986940053059
  @DF-RHF Final Energy:  -305.98975693452820
    Total Energy =                       -305.9897569345280317
  @DF-RHF Final Energy:  -305.98991498011941
    Total Energy =                       -305.9899149801194653
  @DF-RHF Final Energy:  -305.99006423110484
    Total Energy =                       -305.9900642311049523
  @DF-RHF Final Energy:  -305.99012917858920
    Total Energy =                       -305.9901291785894273
  @DF-RHF Final Energy:  -305.99017548298320
    Total Energy =                       -305.9901754829838865
  @DF-RHF Final Energy:  -305.99022039182285
    Total Energy =                       -305.9902203918225041
  @DF-RHF Final Energy:  -305.99026491134794
    Total Energy =                       -305.9902649113476514
  @DF-RHF Final Energy:  -305.99034055809784
    Total Energy =                       -305.9903405580977278
  @DF-RHF Final Energy:  -305.99048474852100
    Total Energy =                       -305.9904847485211121
  @DF-RHF Final Energy:  -305.99060375865088
    Total Energy =                       -305.9906037586511616
  @DF-RHF Final Energy:  -305.99088355290962
    Total Energy =                       -305.9908835529098496
  @DF-RHF Final Energy:  -305.99074803246629
    Total Energy =                       -305.9907480324665130
  @DF-RHF Final Energy:  -305.99056167037060
    Total Energy =                       -305.9905616703703686
  @DF-RHF Final Energy:  -305.99057831260461
    Total Energy =                       -305.9905783126045549
  @DF-RHF Final Energy:  -305.99072180635483
    Total Energy =                       -305.9907218063549408
  @DF-RHF Final Energy:  -305.99025893830867
    Total Energy =                       -305.9902589383086706
  @DF-RHF Final Energy:  -305.99012220413681
    Total Energy =                       -305.9901222041366964
  @DF-RHF Final Energy:  -305.99051469896028
    Total Energy =                       -305.9905146989607374
  @DF-RHF Final Energy:  -305.98808268554063
    Total Energy =                       -305.9880826855406895
  @DF-RHF Final Energy:  -305.98434835297962
    Total Energy =                       -305.9843483529791683
  @DF-RHF Final Energy:  -305.98042399493715
    Total Energy =                       -305.9804239949371549
  @DF-RHF Final Energy:  -305.97600093903520
    Total Energy =                       -305.9760009390349751
  @DF-RHF Final Energy:  -305.98911872174460
    Total Energy =                       -305.9891187217442621
  @DF-RHF Final Energy:  -305.98918890605285
    Total Energy =                       -305.9891889060529593
  @DF-RHF Final Energy:  -305.99032465656967
    Total Energy =                       -305.9903246565696691
  @DF-RHF Final Energy:  -305.99070787898415
    Total Energy =                       -305.9907078789838693
  Basis Set: CC-PVTZ
  Basis Set:
  @DF-RHF Final Energy:  -305.99075111916557
    Total Energy =                       -305.9907511191655658
  Basis Set: CC-PVTZ
  Basis Set:
  Basis Set: CC-PVTZ
  Basis Set:
  @DF-RHF Final Energy:  -305.99079136121918
    Total Energy =                       -305.9907913612196353
  Basis Set: CC-PVTZ
  Basis Set:
  Basis Set: CC-PVTZ
  Basis Set:
  @DF-RHF Final Energy:  -305.99081452905568
    Total Energy =                       -305.9908145290557968
  Basis Set: CC-PVTZ
  Basis Set:
  Charge       = 0
  Multiplicity = 1
  Basis Set: CC-PVTZ
  Basis Set:

    Orbital Energies (a.u.)
    -----------------------

    Doubly Occupied:

       1A    -20.606244     2A    -20.537905     3A    -11.373655
       4A    -11.237605     5A    -11.234323     6A    -11.215213
       7A     -1.478542     8A     -1.367831     9A     -1.080446
      10A     -0.978894    11A     -0.867312    12A     -0.798817
      13A     -0.705717    14A     -0.681766    15A     -0.652949
      16A     -0.632506    17A     -0.591382    18A     -0.574400
      19A     -0.558183    20A     -0.511058    21A     -0.497827
      22A     -0.479185    23A     -0.475597    24A     -0.441441

  @DF-RHF Final Energy:  -305.99082683930226

   => Energetics <=

    Nuclear Repulsion Energy =            246.2439342536746096
    One-Electron Energy =                -905.3119270933680127
    Two-Electron Energy =                 353.0771660003913439
    DFT Exchange-Correlation Energy =       0.0000000000000000
    Empirical Dispersion Energy =           0.0000000000000000
    PCM Polarization Energy =               0.0000000000000000
    EFP Energy =                            0.0000000000000000
    Total Energy =                       -305.9908268393020307
    Molecular point group: c1
  Basis Set: CC-PVTZ
  Basis Set:

  -Total Gradient:
     Atom            X                  Y                   Z
    ------   -----------------  -----------------  -----------------
       1        0.000361025480    -0.000030171830     0.000152396320
       2        0.000179128537    -0.000138062452    -0.001902027418
       3       -0.000563475957    -0.000782450917     0.002593708500
       4       -0.002733471939    -0.004728636752     0.003671423037
       5        0.000602186356    -0.000342130131    -0.000833450043
       6       -0.004256295411    -0.004843463474    -0.006389875095
       7        0.002392707802     0.003585258089    -0.002587253431
       8        0.000111379139     0.001850254426     0.001679935039
       9        0.000139247356     0.001406906890     0.001920751821
      10        0.002732318061     0.003922430329     0.003030571624
      11        0.001094355419    -0.000109245100    -0.000982293198
      12       -0.000064296683    -0.000389233624    -0.000215223620
      13        0.000013783524     0.000281230847    -0.000200934625
      14       -0.000008591687     0.000317313696     0.000062271092

    Molecular point group: c1

    Geometry (in Angstrom), charge = 0, multiplicity = 1:

    H            0.393097183187    -2.299206241305     0.676563343588
    O            0.604356790190    -1.401036740426     0.883194890022
    C            0.517040872081    -0.683752296557    -0.229832600272
    C            0.830555880710     0.773961441047    -0.025278983146
    O            0.228629604027    -1.171701812287    -1.269537427967
    C           -0.399652041372     1.704047143407     0.168250989927
    H            1.516933396341     0.888799535012     0.800991237293
    H            1.363659255282     1.093237424416    -0.908676215549
    C           -1.751193484918     1.042344360165     0.406212170815
    H           -0.455833113079     2.390519914749    -0.667089733632
    H           -0.176873484477     2.337241688462     1.019437164273
    H           -2.038126448871     0.404477417743    -0.421157155422
    H           -2.516372547314     1.800449604597     0.521132283809
    H           -1.742437264182     0.440790517704     1.307870993636

  Mulliken Charges: (a.u.)
   Center  Symbol    Alpha    Beta     Spin     Total
       1     H     0.37994  0.37994  0.00000  0.24012
       2     O     4.16415  4.16415  0.00000 -0.32830
       3     C     2.79428  2.79428  0.00000  0.41143
       4     C     3.09920  3.09920  0.00000 -0.19841
       5     O     4.20136  4.20136  0.00000 -0.40272
       6     C     3.08599  3.08599  0.00000 -0.17199
       7     H     0.44010  0.44010  0.00000  0.11981
       8     H     0.43781  0.43781  0.00000  0.12438
       9     C     3.15844  3.15844  0.00000 -0.31688
      10     H     0.44689  0.44689  0.00000  0.10622
      11     H     0.45057  0.45057  0.00000  0.09887
      12     H     0.44516  0.44516  0.00000  0.10967
      13     H     0.44644  0.44644  0.00000  0.10713
      14     H     0.44967  0.44967  0.00000  0.10065

   Total alpha = 24.00000, Total beta = 24.00000, Total charge = -0.00000
