  ==> Input File <==

--------------------------------------------------------------------------
set {
	reference rhf
	basis 6-31G*
}

set_num_threads( 4 )
memory 2 gb

molecule MOL {
0 1

H	 -2.558589	 -0.337547	 0.426253
N	 -1.852125	 0.165761	 -0.074816
C	 -0.563778	 -0.502042	 0.037919
H	 -1.809002	 1.082658	 0.327919
C	 0.575259	 0.508231	 -0.048326
H	 -0.482092	 -1.204004	 -0.786564
H	 -0.460411	 -1.085169	 0.956626
C	 1.954651	 -0.143624	 0.035137
H	 0.475158	 1.060484	 -0.977307
H	 0.469181	 1.234488	 0.755973
H	 2.103292	 -0.853109	 -0.774172
H	 2.742821	 0.599562	 -0.030094
H	 2.083613	 -0.679371	 0.971560

	symmetry c1
}
set optking {
	frozen_dihedral = ("
		1 2 3 6
	")
}

ee = optimize('scf')
oeprop('DIPOLE', 'QUADRUPOLE', 'MULLIKEN_CHARGES')
f=open( 'psi4out.xyz', 'w' )
f.write( "13  " )
f.write( str(ee) + "\n" )
f.write( MOL.save_string_xyz() )
f.close()
--------------------------------------------------------------------------

    Molecular point group: c1
  Charge       = 0
  Multiplicity = 1
  Basis Set: 6-31G*
  Basis Set:
  @DF-RHF Final Energy:  -173.27982101105664
    Total Energy =                       -173.2798210110565833
    Molecular point group: c1
  Basis Set: 6-31G*
  Basis Set:
  Basis Set: 6-31G*
  Basis Set:
  @DF-RHF Final Energy:  -173.28000616480875
    Total Energy =                       -173.2800061648088672
  Basis Set: 6-31G*
  Basis Set:
  Basis Set: 6-31G*
  Basis Set:
  @DF-RHF Final Energy:  -173.28005029123847
    Total Energy =                       -173.2800502912383251
  Basis Set: 6-31G*
  Basis Set:
  Basis Set: 6-31G*
  Basis Set:
  @DF-RHF Final Energy:  -173.28005288865097
    Total Energy =                       -173.2800528886510278
  Basis Set: 6-31G*
  Basis Set:
  Charge       = 0
  Multiplicity = 1
  Basis Set: 6-31G*
  Basis Set:

    Orbital Energies (a.u.)
    -----------------------

    Doubly Occupied:

       1A    -15.532008     2A    -11.239956     3A    -11.217504
       4A    -11.212019     5A     -1.176360     6A     -1.037660
       7A     -0.899811     8A     -0.804868     9A     -0.646515
      10A     -0.643544    11A     -0.603162    12A     -0.560123
      13A     -0.541100    14A     -0.495108    15A     -0.478615
      16A     -0.469014    17A     -0.382238

  @DF-RHF Final Energy:  -173.28005379951281

   => Energetics <=

    Nuclear Repulsion Energy =            131.8475001887530311
    One-Electron Energy =                -494.3758982736347889
    Two-Electron Energy =                 189.2483442853689724
    DFT Exchange-Correlation Energy =       0.0000000000000000
    Empirical Dispersion Energy =           0.0000000000000000
    PCM Polarization Energy =               0.0000000000000000
    EFP Energy =                            0.0000000000000000
    Total Energy =                       -173.2800537995127854
    Molecular point group: c1
  Basis Set: 6-31G*
  Basis Set:

  -Total Gradient:
     Atom            X                  Y                   Z
    ------   -----------------  -----------------  -----------------
       1        0.000629323269     0.002020457090     0.003074950767
       2       -0.000467076726    -0.001977143227    -0.004287311087
       3       -0.001684316609    -0.002457821665     0.003134697096
       4       -0.000009889742     0.000035621043    -0.000000486958
       5       -0.000000220898    -0.000004079134    -0.000032134803
       6        0.001469518141     0.002419459518    -0.001901525884
       7        0.000032919108    -0.000022469144    -0.000004850308
       8        0.000025543610    -0.000003631835     0.000015014499
       9       -0.000009597549     0.000001343569     0.000007422673
      10       -0.000005993609    -0.000006626238    -0.000008239711
      11       -0.000001739288     0.000001322842     0.000002332286
      12        0.000011690307    -0.000001738458     0.000003223508
      13        0.000009839984    -0.000004694361    -0.000003092078

  **** Optimization is complete! (in 5 steps) ****
    Final optimized geometry and variables:
    Molecular point group: c1

    Geometry (in Angstrom), charge = 0, multiplicity = 1:

    H           -2.579305321563    -0.345517551030     0.383709168546
    N           -1.860072790243     0.154275291196    -0.102539670957
    C           -0.567822204278    -0.506998543331     0.058750568336
    H           -1.833443012023     1.063523382468     0.319365949640
    C            0.574013922111     0.502066861089    -0.032472720822
    H           -0.447114344007    -1.222945937396    -0.749056476604
    H           -0.486819611570    -1.055158864363     0.998060614686
    C            1.952431370140    -0.154541007459     0.019864046533
    H            0.466022555138     1.063389950766    -0.956632235061
    H            0.484213758650     1.220095373802     0.781308803329
    H            2.087044457754    -0.849514399586    -0.803762497159
    H            2.741247524082     0.588076244004    -0.042742216177
    H            2.091667301347    -0.706689136309     0.945067365913

  Mulliken Charges: (a.u.)
   Center  Symbol    Alpha    Beta     Spin     Total
       1     H     0.33345  0.33345  0.00000  0.33311
       2     N     3.92381  3.92381  0.00000 -0.84762
       3     C     3.05088  3.05088  0.00000 -0.10176
       4     H     0.33540  0.33540  0.00000  0.32919
       5     C     3.16329  3.16329  0.00000 -0.32657
       6     H     0.42006  0.42006  0.00000  0.15989
       7     H     0.43315  0.43315  0.00000  0.13370
       8     C     3.24245  3.24245  0.00000 -0.48490
       9     H     0.41309  0.41309  0.00000  0.17382
      10     H     0.42642  0.42642  0.00000  0.14716
      11     H     0.41921  0.41921  0.00000  0.16158
      12     H     0.41736  0.41736  0.00000  0.16528
      13     H     0.42145  0.42145  0.00000  0.15710

   Total alpha = 17.00000, Total beta = 17.00000, Total charge =  0.00000
