  ==> Input File <==

--------------------------------------------------------------------------
set {
	reference rhf
	basis cc-pvtz
}

set_num_threads( 4 )
memory 2 gb

molecule MOL {
0 1

O	 0.768427	 1.269468	 0.272573
C	 0.576499	 0.134701	 -0.003900
C	 -0.765656	 -0.550508	 -0.002152
O	 1.541975	 -0.700764	 -0.350058
C	 -1.945526	 0.411052	 0.000603
H	 -0.794329	 -1.203792	 -0.868145
H	 -0.791555	 -1.205429	 0.862701
C	 -3.282915	 -0.321280	 0.002596
H	 -1.880300	 1.059126	 -0.864925
H	 -1.877207	 1.057892	 0.866807
H	 -3.388495	 -0.952755	 -0.873419
H	 -4.107811	 0.380864	 0.004116
H	 -3.385717	 -0.953283	 0.878571
C	 2.859348	 -0.189849	 -0.388863
H	 2.934556	 0.616077	 -1.103623
H	 3.488262	 -1.012558	 -0.687704
H	 3.156385	 0.172633	 0.583977

	symmetry c1
}
set optking {
	frozen_dihedral = ("
		1 2 3 6
	")
}

ee = optimize('scf')
oeprop('DIPOLE', 'QUADRUPOLE', 'MULLIKEN_CHARGES')
f=open( 'psi4out.xyz', 'w' )
f.write( "17  " )
f.write( str(ee) + "\n" )
f.write( MOL.save_string_xyz() )
f.close()
--------------------------------------------------------------------------

    Molecular point group: c1
  Charge       = 0
  Multiplicity = 1
  Basis Set: CC-PVTZ
  Basis Set:
  @DF-RHF Final Energy:  -345.03512864490210
    Total Energy =                       -345.0351286449020449
    Molecular point group: c1
  Basis Set: CC-PVTZ
  Basis Set:
  Basis Set: CC-PVTZ
  Basis Set:
  @DF-RHF Final Energy:  -345.03485858400484
    Total Energy =                       -345.0348585840048372
  Basis Set: CC-PVTZ
  Basis Set:
  Basis Set: CC-PVTZ
  Basis Set:
  @DF-RHF Final Energy:  -345.03516260829446
    Total Energy =                       -345.0351626082945131
  Basis Set: CC-PVTZ
  Basis Set:
  Basis Set: CC-PVTZ
  Basis Set:
  @DF-RHF Final Energy:  -345.03523006335439
    Total Energy =                       -345.0352300633545610
  Basis Set: CC-PVTZ
  Basis Set:
  Charge       = 0
  Multiplicity = 1
  Basis Set: CC-PVTZ
  Basis Set:

    Orbital Energies (a.u.)
    -----------------------

    Doubly Occupied:

       1A    -20.597088     2A    -20.534083     3A    -11.364971
       4A    -11.278781     5A    -11.234263     6A    -11.220633
       7A    -11.212925     8A     -1.472713     9A     -1.366052
      10A     -1.081829    11A     -1.002544    12A     -0.940567
      13A     -0.828065    14A     -0.769807    15A     -0.702510
      16A     -0.686447    17A     -0.676223    18A     -0.637754
      19A     -0.596760    20A     -0.577056    21A     -0.568396
      22A     -0.529514    23A     -0.523410    24A     -0.500769
      25A     -0.487697    26A     -0.479434    27A     -0.460438
      28A     -0.440989

  @DF-RHF Final Energy:  -345.03523018226434

   => Energetics <=

    Nuclear Repulsion Energy =            313.0070540944709023
    One-Electron Energy =               -1090.5411320280272776
    Two-Electron Energy =                 432.4988477512914642
    DFT Exchange-Correlation Energy =       0.0000000000000000
    Empirical Dispersion Energy =           0.0000000000000000
    PCM Polarization Energy =               0.0000000000000000
    EFP Energy =                            0.0000000000000000
    Total Energy =                       -345.0352301822648542
    Molecular point group: c1
  Basis Set: CC-PVTZ
  Basis Set:

  -Total Gradient:
     Atom            X                  Y                   Z
    ------   -----------------  -----------------  -----------------
       1        0.000100541661    -0.000213026785     0.000639163485
       2       -0.000095154634     0.000196435366    -0.000875445939
       3       -0.000256745821     0.000505973005    -0.000111011134
       4        0.000000316518     0.000003407169    -0.000052755062
       5       -0.000001706031     0.000005618330     0.000008266166
       6        0.000258827287    -0.000475151129     0.000350412777
       7       -0.000009854505    -0.000005786966    -0.000000386401
       8        0.000001109816    -0.000002531844    -0.000010441008
       9        0.000002657880    -0.000008182974     0.000005137701
      10        0.000000110231     0.000002243917     0.000001610477
      11       -0.000002763987    -0.000002722583     0.000001143313
      12        0.000000916597     0.000000412096    -0.000003392792
      13        0.000001943270     0.000002520330     0.000000881522
      14       -0.000000454315    -0.000021731119     0.000082225698
      15       -0.000025643992     0.000000545204    -0.000011445670
      16        0.000002405099     0.000004608523    -0.000011070209
      17        0.000023494926     0.000007369463    -0.000012892923

  **** Optimization is complete! (in 5 steps) ****
    Final optimized geometry and variables:
    Molecular point group: c1

    Geometry (in Angstrom), charge = 0, multiplicity = 1:

    O            0.766522666187     1.263852764123     0.316277961977
    C            0.579009163158     0.128334653709     0.039171272799
    C           -0.762471953566    -0.558876851513     0.040714144430
    O            1.550859179289    -0.707413225693    -0.287205815634
    C           -1.943115186698     0.401756399676     0.076630503369
    H           -0.806038520722    -1.216059743248    -0.819602095980
    H           -0.771697846895    -1.209951996986     0.910823390020
    C           -3.279584538096    -0.331385173789     0.108061807590
    H           -1.901355060064     1.052042199201    -0.789989182086
    H           -1.852223124511     1.045750795378     0.941889873187
    H           -3.405516028891    -0.962239665880    -0.765711567944
    H           -4.104657991895     0.370285564170     0.129905357884
    H           -3.360930235372    -0.964093876702     0.985830707548
    C            2.870521173766    -0.201331491558    -0.281572876954
    H            2.969888710730     0.610963966693    -0.986097540050
    H            3.505686908943    -1.023353869010    -0.569138731324
    H            3.139758674182     0.151270991344     0.703052053946

  Mulliken Charges: (a.u.)
   Center  Symbol    Alpha    Beta     Spin     Total
       1     O     4.19748  4.19748  0.00000 -0.39497
       2     C     2.80869  2.80869  0.00000  0.38262
       3     C     3.09344  3.09344  0.00000 -0.18688
       4     O     4.14629  4.14629  0.00000 -0.29257
       5     C     3.07949  3.07949  0.00000 -0.15899
       6     H     0.43931  0.43931  0.00000  0.12137
       7     H     0.44329  0.44329  0.00000  0.11341
       8     C     3.15123  3.15123  0.00000 -0.30247
       9     H     0.44958  0.44958  0.00000  0.10084
      10     H     0.44348  0.44348  0.00000  0.11303
      11     H     0.45594  0.45594  0.00000  0.08813
      12     H     0.44563  0.44563  0.00000  0.10874
      13     H     0.45546  0.45546  0.00000  0.08909
      14     C     3.03681  3.03681  0.00000 -0.07363
      15     H     0.45424  0.45424  0.00000  0.09152
      16     H     0.44520  0.44520  0.00000  0.10960
      17     H     0.45442  0.45442  0.00000  0.09115

   Total alpha = 28.00000, Total beta = 28.00000, Total charge =  0.00000
