  ==> Input File <==

--------------------------------------------------------------------------
set {
	reference rhf
	basis cc-pvtz
}

set_num_threads( 4 )
memory 2 gb

molecule MOL {
0 1

H	 2.714091	 -0.649118	 0.705151
N	 2.326826	 -0.066186	 0.000000
C	 0.934676	 -0.005420	 0.000000
H	 2.778153	 0.818547	 -0.023943
C	 0.226436	 -0.001077	 -1.195129
C	 0.226436	 -0.001077	 1.195129
H	 0.759091	 -0.011439	 -2.128123
C	 -1.153391	 0.009141	 -1.189028
H	 0.759091	 -0.011439	 2.128123
C	 -1.153391	 0.009141	 1.189028
H	 -1.680905	 0.012964	 -2.124348
C	 -1.857876	 0.014675	 0.000000
H	 -1.680905	 0.012964	 2.124348
H	 -2.930222	 0.022904	 0.000000

	symmetry c1
}
set optking {
	frozen_dihedral = ("
		1 2 3 5
	")
}

ee = optimize('scf')
oeprop('DIPOLE', 'QUADRUPOLE', 'MULLIKEN_CHARGES')
f=open( 'psi4out.xyz', 'w' )
f.write( "14  " )
f.write( str(ee) + "\n" )
f.write( MOL.save_string_xyz() )
f.close()
--------------------------------------------------------------------------

    Molecular point group: c1
  Charge       = 0
  Multiplicity = 1
  Basis Set: CC-PVTZ
  Basis Set:
  @DF-RHF Final Energy:  -285.82680581708888
    Total Energy =                       -285.8268058170889958
    Molecular point group: c1
  Basis Set: CC-PVTZ
  Basis Set:
  Basis Set: CC-PVTZ
  Basis Set:
  @DF-RHF Final Energy:  -285.82768290001803
    Total Energy =                       -285.8276829000181465
  Basis Set: CC-PVTZ
  Basis Set:
  Basis Set: CC-PVTZ
  Basis Set:
  @DF-RHF Final Energy:  -285.82784496883443
    Total Energy =                       -285.8278449688347109
  Basis Set: CC-PVTZ
  Basis Set:
  Basis Set: CC-PVTZ
  Basis Set:
  @DF-RHF Final Energy:  -285.82790855105577
    Total Energy =                       -285.8279085510557707
  Basis Set: CC-PVTZ
  Basis Set:
  Basis Set: CC-PVTZ
  Basis Set:
  @DF-RHF Final Energy:  -285.82791390613943
    Total Energy =                       -285.8279139061396563
  Basis Set: CC-PVTZ
  Basis Set:
  Charge       = 0
  Multiplicity = 1
  Basis Set: CC-PVTZ
  Basis Set:

    Orbital Energies (a.u.)
    -----------------------

    Doubly Occupied:

       1A    -15.542734     2A    -11.260637     3A    -11.228127
       4A    -11.226727     5A    -11.222959     6A    -11.222524
       7A    -11.218923     8A     -1.210733     9A     -1.131390
      10A     -1.015479    11A     -0.989857    12A     -0.830607
      13A     -0.811075    14A     -0.706025    15A     -0.670028
      16A     -0.648807    17A     -0.627058    18A     -0.594457
      19A     -0.585246    20A     -0.509665    21A     -0.502048
      22A     -0.494879    23A     -0.416718    24A     -0.336110
      25A     -0.323244

  @DF-RHF Final Energy:  -285.82791456666735

   => Energetics <=

    Nuclear Repulsion Energy =            273.0364041215314046
    One-Electron Energy =                -927.0765176712951643
    Two-Electron Energy =                 368.2121989830965276
    DFT Exchange-Correlation Energy =       0.0000000000000000
    Empirical Dispersion Energy =           0.0000000000000000
    PCM Polarization Energy =               0.0000000000000000
    EFP Energy =                            0.0000000000000000
    Total Energy =                       -285.8279145666672321
    Molecular point group: c1
  Basis Set: CC-PVTZ
  Basis Set:

  -Total Gradient:
     Atom            X                  Y                   Z
    ------   -----------------  -----------------  -----------------
       1       -0.000103683337    -0.002032743919    -0.001630062941
       2        0.000102927690     0.001614074825     0.002069354872
       3        0.000042386628     0.002414784577    -0.000475648065
       4        0.000004087111     0.000005841602     0.000014628509
       5       -0.000128153571    -0.002013862904     0.000008044825
       6        0.000055900864     0.000030860226     0.000017479369
       7       -0.000000600828     0.000005068236     0.000002719755
       8        0.000090089733     0.000017846217    -0.000016572916
       9       -0.000010509212    -0.000011084699    -0.000009365819
      10       -0.000028399731    -0.000035059659    -0.000030849589
      11       -0.000007607912    -0.000006296030    -0.000006725568
      12       -0.000017914858    -0.000000345003     0.000051292418
      13       -0.000007849531     0.000009717455     0.000008246327
      14        0.000009326953     0.000001199077    -0.000002541175

  **** Optimization is complete! (in 6 steps) ****
    Final optimized geometry and variables:
    Molecular point group: c1

    Geometry (in Angstrom), charge = 0, multiplicity = 1:

    H            2.727015501388    -0.645131806759     0.664103090653
    N            2.350313593879    -0.054674409787    -0.044119048772
    C            0.926807713005    -0.007572565122    -0.000790709709
    H            2.764398338489     0.849513766717     0.029368315842
    C            0.224074140837    -0.010959510659    -1.193920454858
    C            0.221241549194     0.000338517382     1.192376883020
    H            0.772137704796    -0.042449103078    -2.115274348238
    C           -1.157448819772     0.019857447124    -1.194442380441
    H            0.757066532672    -0.002708311346     2.123568673034
    C           -1.160853673634     0.012950753286     1.191829861031
    H           -1.688082855212     0.022252583467    -2.127658521149
    C           -1.856150043740     0.028996034590    -0.001979311505
    H           -1.692668989449     0.015726929444     2.124407386047
    H           -2.929093631288     0.043196486771    -0.003041044501

  Mulliken Charges: (a.u.)
   Center  Symbol    Alpha    Beta     Spin     Total
       1     H     0.42048  0.42048  0.00000  0.15905
       2     N     3.70435  3.70435  0.00000 -0.40870
       3     C     2.89933  2.89933  0.00000  0.20134
       4     H     0.42135  0.42135  0.00000  0.15729
       5     C     3.10054  3.10054  0.00000 -0.20107
       6     C     3.11292  3.11292  0.00000 -0.22584
       7     H     0.41853  0.41853  0.00000  0.16293
       8     C     3.06582  3.06582  0.00000 -0.13165
       9     H     0.42728  0.42728  0.00000  0.14543
      10     C     3.07231  3.07231  0.00000 -0.14463
      11     H     0.42327  0.42327  0.00000  0.15346
      12     C     3.08625  3.08625  0.00000 -0.17250
      13     H     0.42371  0.42371  0.00000  0.15259
      14     H     0.42384  0.42384  0.00000  0.15231

   Total alpha = 25.00000, Total beta = 25.00000, Total charge = -0.00000
