  ==> Input File <==

--------------------------------------------------------------------------
set {
	reference rhf
	basis 6-31G*
}

set_num_threads( 4 )
memory 2 gb

molecule MOL {
0 1

O	 1.133136	 1.201442	 0.497105
C	 1.122059	 0.121804	 -0.000188
C	 -0.054870	 -0.508965	 -0.703652
O	 2.172624	 -0.688929	 0.000216
C	 -1.292683	 0.382282	 -0.732623
H	 0.267889	 -0.767212	 -1.708584
H	 -0.261365	 -1.453571	 -0.207835
C	 -2.469596	 -0.280438	 -1.450290
H	 -1.046832	 1.321384	 -1.218574
H	 -1.576574	 0.634452	 0.284391
C	 -3.714434	 0.605182	 -1.482818
H	 -2.179526	 -0.531746	 -2.468514
H	 -2.710070	 -1.222128	 -0.960940
H	 -3.515605	 1.541223	 -1.996578
H	 -4.533481	 0.112295	 -1.997114
H	 -4.050291	 0.845389	 -0.478257
C	 3.452279	 -0.082609	 0.000533
H	 3.583069	 0.529321	 -0.880332
H	 4.163299	 -0.894027	 0.001117
H	 3.582335	 0.529955	 0.881077

	symmetry c1
}
set optking {
	frozen_dihedral = ("
		1 2 4 17
	")
}

ee = optimize('scf')
oeprop('DIPOLE', 'QUADRUPOLE', 'MULLIKEN_CHARGES')
f=open( 'psi4out.xyz', 'w' )
f.write( "20  " )
f.write( str(ee) + "\n" )
f.write( MOL.save_string_xyz() )
f.close()
--------------------------------------------------------------------------

    Molecular point group: c1
  Charge       = 0
  Multiplicity = 1
  Basis Set: 6-31G*
  Basis Set:
  @DF-RHF Final Energy:  -383.93633492948618
    Total Energy =                       -383.9363349294861791
    Molecular point group: c1
  Basis Set: 6-31G*
  Basis Set:
  Basis Set: 6-31G*
  Basis Set:
  @DF-RHF Final Energy:  -383.93298211888452
    Total Energy =                       -383.9329821188841834
  Basis Set: 6-31G*
  Basis Set:
  Basis Set: 6-31G*
  Basis Set:
  @DF-RHF Final Energy:  -383.93676077895088
    Total Energy =                       -383.9367607789506565
  Basis Set: 6-31G*
  Basis Set:
  Basis Set: 6-31G*
  Basis Set:
  @DF-RHF Final Energy:  -383.93682906838802
    Total Energy =                       -383.9368290683883060
  Basis Set: 6-31G*
  Basis Set:
  @DF-RHF Final Energy:  -383.93683985397320
    Total Energy =                       -383.9368398539731970
  @DF-RHF Final Energy:  -383.93684279654019
    Total Energy =                       -383.9368427965398496
  Basis Set: 6-31G*
  Basis Set:
  @DF-RHF Final Energy:  -383.93684406516843
    Total Energy =                       -383.9368440651685432
  Basis Set: 6-31G*
  Basis Set:
  Basis Set: 6-31G*
  Basis Set:
  @DF-RHF Final Energy:  -383.93681319840061
    Total Energy =                       -383.9368131984002730
  Basis Set: 6-31G*
  Basis Set:
  Basis Set: 6-31G*
  Basis Set:
  @DF-RHF Final Energy:  -383.93684412004950
    Total Energy =                       -383.9368441200493862
  Basis Set: 6-31G*
  Basis Set:
  Charge       = 0
  Multiplicity = 1
  Basis Set: 6-31G*
  Basis Set:

    Orbital Energies (a.u.)
    -----------------------

    Doubly Occupied:

       1A    -20.599295     2A    -20.547940     3A    -11.373123
       4A    -11.283082     5A    -11.236048     6A    -11.220556
       7A    -11.219544     8A    -11.210824     9A     -1.466369
      10A     -1.363704    11A     -1.088775    12A     -1.023460
      13A     -0.969150    14A     -0.887440    15A     -0.804475
      16A     -0.766987    17A     -0.696269    18A     -0.681481
      19A     -0.672166    20A     -0.645483    21A     -0.600607
      22A     -0.592518    23A     -0.580146    24A     -0.543270
      25A     -0.535454    26A     -0.520784    27A     -0.501621
      28A     -0.478871    29A     -0.474559    30A     -0.470356
      31A     -0.454370    32A     -0.435607

  @DF-RHF Final Energy:  -383.93684451303881

   => Energetics <=

    Nuclear Repulsion Energy =            380.7741963652987920
    One-Electron Energy =               -1277.5334101073838156
    Two-Electron Energy =                 512.8223692290462168
    DFT Exchange-Correlation Energy =       0.0000000000000000
    Empirical Dispersion Energy =           0.0000000000000000
    PCM Polarization Energy =               0.0000000000000000
    EFP Energy =                            0.0000000000000000
    Total Energy =                       -383.9368445130387499
    Molecular point group: c1
  Basis Set: 6-31G*
  Basis Set:

  -Total Gradient:
     Atom            X                  Y                   Z
    ------   -----------------  -----------------  -----------------
       1       -0.003243942254    -0.002999527258     0.007633474018
       2        0.005025424873     0.004256361208    -0.014727659176
       3       -0.000009924997    -0.000040019855     0.000055846809
       4       -0.002216262061    -0.000776373016     0.013972080835
       5        0.000005820441    -0.000008435054    -0.000021129189
       6        0.000012723373    -0.000018908147    -0.000025086611
       7       -0.000011173396     0.000024661217    -0.000013509495
       8       -0.000004795008    -0.000003433181     0.000012371178
       9       -0.000003739667    -0.000004481240     0.000009987418
      10       -0.000003035264    -0.000002476021     0.000013606003
      11        0.000006067770     0.000006069820    -0.000013696155
      12        0.000002862899    -0.000007528769     0.000002751525
      13       -0.000006243107     0.000003118992     0.000004685298
      14       -0.000001812506     0.000004060567     0.000002154233
      15        0.000001509242     0.000001661135    -0.000004167377
      16        0.000001565393    -0.000004647938    -0.000001049404
      17        0.000427429876    -0.000464291222    -0.006962472300
      18        0.000001753208     0.000011172587     0.000026708869
      19        0.000003007189     0.000000353040     0.000013956139
      20        0.000012763986     0.000022663133     0.000021147377

  **** Optimization is complete! (in 10 steps) ****
    Final optimized geometry and variables:
    Molecular point group: c1

    Geometry (in Angstrom), charge = 0, multiplicity = 1:

    O            1.090740894918     1.168841897604     0.832329529799
    C            1.062918655212     0.062890060446     0.401463340405
    C           -0.124862725548    -0.588313134516    -0.262494441039
    O            2.078814504717    -0.791403112334     0.524267678509
    C           -1.379320957784     0.279416239760    -0.255729704302
    H            0.173247313540    -0.838909506479    -1.277997755503
    H           -0.296011507181    -1.538060004358     0.235997615791
    C           -2.562407095167    -0.402178217392    -0.944982492555
    H           -1.163668576134     1.224947461391    -0.743119083485
    H           -1.641269451977     0.521657969616     0.769875767905
    C           -3.822717192183     0.461874970250    -0.944223216448
    H           -2.293681290425    -0.646282415705    -1.970842482777
    H           -2.774211492914    -1.348874618278    -0.452163421882
    H           -3.652795188789     1.402456375759    -1.460073440329
    H           -4.645659582055    -0.043863072818    -1.439478973598
    H           -4.137650852001     0.693782239473     0.069025319091
    C            3.382030687766    -0.239491758908     0.576641162621
    H            3.561679937421     0.382178731452    -0.290517051353
    H            4.060880807789    -1.078006259637     0.575520959102
    H            3.517383706124     0.348695243145     1.472322484249

  Mulliken Charges: (a.u.)
   Center  Symbol    Alpha    Beta     Spin     Total
       1     O     4.27945  4.27945  0.00000 -0.55891
       2     C     2.60496  2.60496  0.00000  0.79009
       3     C     3.20997  3.20997  0.00000 -0.41995
       4     O     4.30971  4.30971  0.00000 -0.61942
       5     C     3.15141  3.15141  0.00000 -0.30281
       6     H     0.40297  0.40297  0.00000  0.19406
       7     H     0.39901  0.39901  0.00000  0.20199
       8     C     3.15418  3.15418  0.00000 -0.30836
       9     H     0.41135  0.41135  0.00000  0.17729
      10     H     0.41244  0.41244  0.00000  0.17512
      11     C     3.23931  3.23931  0.00000 -0.47863
      12     H     0.42324  0.42324  0.00000  0.15352
      13     H     0.42267  0.42267  0.00000  0.15466
      14     H     0.42001  0.42001  0.00000  0.15999
      15     H     0.41872  0.41872  0.00000  0.16256
      16     H     0.41986  0.41986  0.00000  0.16028
      17     C     3.09326  3.09326  0.00000 -0.18652
      18     H     0.41517  0.41517  0.00000  0.16965
      19     H     0.40740  0.40740  0.00000  0.18520
      20     H     0.40491  0.40491  0.00000  0.19019

   Total alpha = 32.00000, Total beta = 32.00000, Total charge = -0.00000
