  ==> Input File <==

--------------------------------------------------------------------------
set {
	reference rhf
	basis cc-pvtz
}

set_num_threads( 4 )
memory 2 gb

molecule MOL {
0 1

O	 1.719562	 1.540537	 1.264555
C	 0.788060	 1.331617	 0.541110
C	 -0.265871	 2.400240	 0.335909
N	 0.622280	 0.144970	 -0.099307
H	 -1.245489	 2.051274	 0.637430
H	 0.012272	 3.247390	 0.940448
H	 -0.321769	 2.705168	 -0.701814
C	 1.664396	 -0.854993	 0.000772
C	 -0.350697	 -0.079953	 -1.141650
H	 2.462727	 -0.615153	 -0.690869
H	 1.261798	 -1.821849	 -0.240651
H	 2.081615	 -0.891605	 1.003877
H	 -0.685581	 -1.108417	 -1.099820
H	 -1.216051	 0.549024	 -1.021454
H	 0.066484	 0.094240	 -2.130923

	symmetry c1
}
set optking {
	frozen_dihedral = ("
		2 4 8 10
	")
}

ee = optimize('scf')
oeprop('DIPOLE', 'QUADRUPOLE', 'MULLIKEN_CHARGES')
f=open( 'psi4out.xyz', 'w' )
f.write( "15  " )
f.write( str(ee) + "\n" )
f.write( MOL.save_string_xyz() )
f.close()
--------------------------------------------------------------------------

    Molecular point group: c1
  Charge       = 0
  Multiplicity = 1
  Basis Set: CC-PVTZ
  Basis Set:
  @DF-RHF Final Energy:  -286.13490089719642
    Total Energy =                       -286.1349008971961894
    Molecular point group: c1
  Basis Set: CC-PVTZ
  Basis Set:
  Basis Set: CC-PVTZ
  Basis Set:
  @DF-RHF Final Energy:  -286.13536106445895
    Total Energy =                       -286.1353610644590049
  Basis Set: CC-PVTZ
  Basis Set:
  Basis Set: CC-PVTZ
  Basis Set:
  @DF-RHF Final Energy:  -286.13529423041336
    Total Energy =                       -286.1352942304135922
  Basis Set: CC-PVTZ
  Basis Set:
  Basis Set: CC-PVTZ
  Basis Set:
  @DF-RHF Final Energy:  -286.13547595147907
    Total Energy =                       -286.1354759514788384
  Basis Set: CC-PVTZ
  Basis Set:
  Basis Set: CC-PVTZ
  Basis Set:
  @DF-RHF Final Energy:  -286.13548384457829
    Total Energy =                       -286.1354838445780615
  Basis Set: CC-PVTZ
  Basis Set:
  Charge       = 0
  Multiplicity = 1
  Basis Set: CC-PVTZ
  Basis Set:

    Orbital Energies (a.u.)
    -----------------------

    Doubly Occupied:

       1A    -20.504590     2A    -15.577812     3A    -11.334120
       4A    -11.264048     5A    -11.246734     6A    -11.226586
       7A     -1.388099     8A     -1.245350     9A     -1.014867
      10A     -0.973403    11A     -0.919865    12A     -0.738652
      13A     -0.682604    14A     -0.661107    15A     -0.653815
      16A     -0.589617    17A     -0.578003    18A     -0.569104
      19A     -0.563260    20A     -0.547618    21A     -0.530600
      22A     -0.504787    23A     -0.414616    24A     -0.371039

  @DF-RHF Final Energy:  -286.13548636931159

   => Energetics <=

    Nuclear Repulsion Energy =            253.0485685118225945
    One-Electron Energy =                -890.1675153937499090
    Two-Electron Energy =                 350.9834605126159204
    DFT Exchange-Correlation Energy =       0.0000000000000000
    Empirical Dispersion Energy =           0.0000000000000000
    PCM Polarization Energy =               0.0000000000000000
    EFP Energy =                            0.0000000000000000
    Total Energy =                       -286.1354863693113657
    Molecular point group: c1
  Basis Set: CC-PVTZ
  Basis Set:

  -Total Gradient:
     Atom            X                  Y                   Z
    ------   -----------------  -----------------  -----------------
       1        0.000034480397    -0.000081014216     0.000084690042
       2        0.000041071520     0.000099910815    -0.000365140739
       3        0.000049548247     0.000059760193    -0.000092973793
       4        0.000046876208     0.000033461740     0.000338542931
       5       -0.000025371104    -0.000000546115     0.000043692438
       6        0.000009865734    -0.000022653107    -0.000010814413
       7       -0.000049322446    -0.000010693191     0.000012164440
       8       -0.000279057685    -0.000349426603    -0.000495338398
       9       -0.000071210995    -0.000022879329     0.000119020765
      10        0.000186280242     0.000294021802     0.000307542370
      11        0.000023692084     0.000049876072    -0.000039599361
      12        0.000024196237    -0.000020559267     0.000085677495
      13       -0.000002378120    -0.000018225688    -0.000007556594
      14        0.000004990997    -0.000010285163    -0.000000097800
      15        0.000006338684    -0.000000747941     0.000020190620

  **** Optimization is complete! (in 6 steps) ****
    Final optimized geometry and variables:
    Molecular point group: c1

    Geometry (in Angstrom), charge = 0, multiplicity = 1:

    O            1.040032573330     0.793430327041     1.093237609849
    C            0.088358181655     0.588378109028     0.395521925786
    C           -0.965543313079     1.660084442064     0.210888915952
    N           -0.092840137226    -0.604480147802    -0.228832569995
    H           -1.944935964405     1.307544232126     0.508820147758
    H           -0.684543135634     2.498325111893     0.826536498946
    H           -1.022778634989     1.980923894847    -0.822041147584
    C            0.972836832097    -1.581604421064    -0.130286310282
    C           -1.050632933969    -0.818337894033    -1.288159621248
    H            1.777161421141    -1.373091872262    -0.830203676282
    H            0.571685198252    -2.562469210473    -0.345693359807
    H            1.384546701605    -1.576441530387     0.864391007332
    H           -1.410768005562    -1.837857145587    -1.245878212553
    H           -1.902500533053    -0.168019108404    -1.186926935053
    H           -0.613187392576    -0.658726937222    -2.271235954419

  Mulliken Charges: (a.u.)
   Center  Symbol    Alpha    Beta     Spin     Total
       1     O     4.21950  4.21950  0.00000 -0.43900
       2     C     2.84511  2.84511  0.00000  0.30978
       3     C     3.16067  3.16067  0.00000 -0.32133
       4     N     3.56376  3.56376  0.00000 -0.12753
       5     H     0.44877  0.44877  0.00000  0.10246
       6     H     0.42874  0.42874  0.00000  0.14252
       7     H     0.44906  0.44906  0.00000  0.10188
       8     C     3.09386  3.09386  0.00000 -0.18772
       9     C     3.09606  3.09606  0.00000 -0.19213
      10     H     0.45549  0.45549  0.00000  0.08902
      11     H     0.45768  0.45768  0.00000  0.08463
      12     H     0.43154  0.43154  0.00000  0.13692
      13     H     0.44869  0.44869  0.00000  0.10262
      14     H     0.44548  0.44548  0.00000  0.10903
      15     H     0.45558  0.45558  0.00000  0.08883

   Total alpha = 24.00000, Total beta = 24.00000, Total charge =  0.00000
