  ==> Input File <==

--------------------------------------------------------------------------
set {
	reference rhf
	basis 6-31G*
}

set_num_threads( 4 )
memory 2 gb

molecule MOL {
0 1

H	 5.268524	 0.192471	 1.070992
C	 4.673736	 -0.214914	 0.259335
C	 3.185378	 -0.203514	 0.605509
H	 4.871837	 0.380453	 -0.627026
H	 5.025590	 -1.224632	 0.065769
C	 2.317601	 -0.778379	 -0.516234
H	 2.874655	 0.814325	 0.817774
H	 3.023650	 -0.778480	 1.515976
C	 0.988436	 -0.046441	 -0.702927
H	 2.867503	 -0.753803	 -1.450390
H	 2.105122	 -1.823176	 -0.301074
C	 1.118643	 1.346681	 -1.300842
H	 0.347870	 -0.613969	 -1.376245
H	 0.444193	 0.016724	 0.236746
C	 -0.067795	 2.284529	 -1.161132
O	 2.107045	 1.690751	 -1.876239
C	 -1.338448	 1.782529	 -1.862987
H	 0.234024	 3.240516	 -1.571873
H	 -0.273645	 2.426454	 -0.101808
C	 -2.483211	 2.794545	 -1.785853
H	 -1.112882	 1.573894	 -2.906638
H	 -1.663377	 0.844088	 -1.421150
C	 -3.753479	 2.306410	 -2.480869
H	 -2.163288	 3.732488	 -2.233038
H	 -2.701563	 3.011144	 -0.742395
H	 -3.574026	 2.112231	 -3.534347
H	 -4.118171	 1.386592	 -2.032485
H	 -4.545852	 3.044761	 -2.411154

	symmetry c1
}
set optking {
	frozen_dihedral = ("
		10 6 3 2
	")
}

ee = optimize('scf')
oeprop('DIPOLE', 'QUADRUPOLE', 'MULLIKEN_CHARGES')
f=open( 'psi4out.xyz', 'w' )
f.write( "28  " )
f.write( str(ee) + "\n" )
f.write( MOL.save_string_xyz() )
f.close()
--------------------------------------------------------------------------

    Molecular point group: c1
  Charge       = 0
  Multiplicity = 1
  Basis Set: 6-31G*
  Basis Set:
  @DF-RHF Final Energy:  -426.16533551967120
    Total Energy =                       -426.1653355196713164
    Molecular point group: c1
  Basis Set: 6-31G*
  Basis Set:
  Basis Set: 6-31G*
  Basis Set:
  @DF-RHF Final Energy:  -426.16562380282198
    Total Energy =                       -426.1656238028220969
  Basis Set: 6-31G*
  Basis Set:
  Basis Set: 6-31G*
  Basis Set:
  @DF-RHF Final Energy:  -426.16525991023968
    Total Energy =                       -426.1652599102394561
  Basis Set: 6-31G*
  Basis Set:
  Basis Set: 6-31G*
  Basis Set:
  @DF-RHF Final Energy:  -426.16569052973307
    Total Energy =                       -426.1656905297331832
  Basis Set: 6-31G*
  Basis Set:
  Basis Set: 6-31G*
  Basis Set:
  @DF-RHF Final Energy:  -426.16557518244474
    Total Energy =                       -426.1655751824450817
  Basis Set: 6-31G*
  Basis Set:
  Basis Set: 6-31G*
  Basis Set:
  @DF-RHF Final Energy:  -426.16569734124823
    Total Energy =                       -426.1656973412485740
  Basis Set: 6-31G*
  Basis Set:
  Basis Set: 6-31G*
  Basis Set:
  @DF-RHF Final Energy:  -426.16571071566568
    Total Energy =                       -426.1657107156656821
  Basis Set: 6-31G*
  Basis Set:
  Charge       = 0
  Multiplicity = 1
  Basis Set: 6-31G*
  Basis Set:

    Orbital Energies (a.u.)
    -----------------------

    Doubly Occupied:

       1A    -20.548761     2A    -11.322195     3A    -11.232602
       4A    -11.230298     5A    -11.229053     6A    -11.226210
       7A    -11.216418     8A    -11.215782     9A    -11.212058
      10A    -11.201353    11A     -1.393596    12A     -1.095033
      13A     -1.075432    14A     -1.021893    15A     -0.989756
      16A     -0.906903    17A     -0.872221    18A     -0.809428
      19A     -0.798781    20A     -0.723179    21A     -0.668754
      22A     -0.652173    23A     -0.626981    24A     -0.621050
      25A     -0.606671    26A     -0.589921    27A     -0.577451
      28A     -0.569315    29A     -0.544558    30A     -0.528293
      31A     -0.523685    32A     -0.504511    33A     -0.501457
      34A     -0.484773    35A     -0.478036    36A     -0.474390
      37A     -0.468353    38A     -0.461346    39A     -0.454908
      40A     -0.392995

  @DF-RHF Final Energy:  -426.16571145048431

   => Energetics <=

    Nuclear Repulsion Energy =            533.7316019064197690
    One-Electron Energy =               -1635.6934800040867231
    Two-Electron Energy =                 675.7961666471830995
    DFT Exchange-Correlation Energy =       0.0000000000000000
    Empirical Dispersion Energy =           0.0000000000000000
    PCM Polarization Energy =               0.0000000000000000
    EFP Energy =                            0.0000000000000000
    Total Energy =                       -426.1657114504839683
    Molecular point group: c1
  Basis Set: 6-31G*
  Basis Set:

  -Total Gradient:
     Atom            X                  Y                   Z
    ------   -----------------  -----------------  -----------------
       1        0.000018425030    -0.000006365122    -0.000018159093
       2       -0.000229052865     0.002190374583    -0.000938320503
       3        0.000491013019    -0.003796401635     0.001490193264
       4        0.000061227487     0.000046003754     0.000005509945
       5       -0.000027511756     0.000018476609    -0.000019016440
       6       -0.001405676403     0.004656930027    -0.001120648207
       7       -0.000006205349    -0.000038658144    -0.000011328403
       8        0.000055064879    -0.000035731646     0.000046632822
       9       -0.000008318819    -0.000000579516     0.000035244579
      10        0.001144119781    -0.003112688707     0.000594952426
      11       -0.000045421306     0.000012004589     0.000033570317
      12       -0.000009324927     0.000067971050     0.000008007941
      13       -0.000005368720     0.000042809152    -0.000030196878
      14       -0.000012399946    -0.000031150975     0.000001232151
      15       -0.000037537275    -0.000034226922    -0.000127261317
      16       -0.000019850161     0.000020404016    -0.000043299299
      17        0.000011703934     0.000014815794     0.000039777330
      18        0.000001002666     0.000009042511     0.000009450827
      19        0.000019285607    -0.000004153636     0.000021625819
      20       -0.000001675921    -0.000008634501     0.000024862305
      21       -0.000011445896    -0.000017150349    -0.000006618184
      22        0.000009768096    -0.000001000413     0.000016522010
      23        0.000010975093     0.000012069230    -0.000023542202
      24        0.000004963903     0.000002250944     0.000016084342
      25       -0.000009910626    -0.000008188197     0.000002395901
      26       -0.000003498431    -0.000009105384    -0.000005043869
      27        0.000001613026     0.000007166625     0.000005637157
      28        0.000004035873     0.000003716257    -0.000008264744

  **** Optimization is complete! (in 8 steps) ****
    Final optimized geometry and variables:
    Molecular point group: c1

    Geometry (in Angstrom), charge = 0, multiplicity = 1:

    H            4.677787537474    -0.984300297918     2.047913229952
    C            4.038011649948    -1.355619973709     1.253001226419
    C            2.565577466231    -1.303011583244     1.657070327765
    H            4.208612252883    -0.747633560768     0.370910713328
    H            4.350477988373    -2.371666732037     1.025591350767
    C            1.625422940884    -1.868844222497     0.575342763005
    H            2.310354164469    -0.266999073467     1.860226297785
    H            2.415387297187    -1.840589667859     2.589970257135
    C            0.295236797188    -1.129254531712     0.454480126621
    H            2.126223764045    -1.872439232298    -0.385700204181
    H            1.413245999510    -2.911468051080     0.799378521375
    C            0.418464887507     0.265589822614    -0.140355183545
    H           -0.385176023761    -1.688897265256    -0.184993515601
    H           -0.200603838093    -1.059463156969     1.420631724629
    C           -0.784060667751     1.187100561078    -0.029455625758
    O            1.417520245539     0.625963528057    -0.686808575627
    C           -2.022561943337     0.682138435008    -0.784697807630
    H           -0.478830174752     2.152210514272    -0.415609528404
    H           -1.030300605135     1.311805890713     1.023349202073
    C           -3.176535467505     1.685763685192    -0.744038685841
    H           -1.755005948463     0.483847843729    -1.820394807568
    H           -2.358009724544    -0.261981764249    -0.363434337695
    C           -4.413678947789     1.196877117260    -1.495949057938
    H           -2.844976954660     2.630494032412    -1.167808478910
    H           -3.439110831853     1.889682975372     0.291769696387
    H           -4.189314372693     1.013865374571    -2.542796310647
    H           -4.790977879359     0.270702159502    -1.071756443958
    H           -5.212860781426     1.929902090718    -1.452424143182

  Mulliken Charges: (a.u.)
   Center  Symbol    Alpha    Beta     Spin     Total
       1     H     0.42193  0.42193  0.00000  0.15613
       2     C     3.24222  3.24222  0.00000 -0.48444
       3     C     3.15136  3.15136  0.00000 -0.30272
       4     H     0.41026  0.41026  0.00000  0.17947
       5     H     0.42450  0.42450  0.00000  0.15100
       6     C     3.15182  3.15182  0.00000 -0.30363
       7     H     0.42053  0.42053  0.00000  0.15894
       8     H     0.42390  0.42390  0.00000  0.15219
       9     C     3.21225  3.21225  0.00000 -0.42451
      10     H     0.40638  0.40638  0.00000  0.18725
      11     H     0.42049  0.42049  0.00000  0.15902
      12     C     2.73152  2.73152  0.00000  0.53696
      13     H     0.40403  0.40403  0.00000  0.19195
      14     H     0.41219  0.41219  0.00000  0.17563
      15     C     3.20168  3.20168  0.00000 -0.40337
      16     O     4.26640  4.26640  0.00000 -0.53280
      17     C     3.16369  3.16369  0.00000 -0.32737
      18     H     0.39971  0.39971  0.00000  0.20058
      19     H     0.41314  0.41314  0.00000  0.17373
      20     C     3.15182  3.15182  0.00000 -0.30363
      21     H     0.41368  0.41368  0.00000  0.17265
      22     H     0.41877  0.41877  0.00000  0.16245
      23     C     3.24034  3.24034  0.00000 -0.48069
      24     H     0.41836  0.41836  0.00000  0.16328
      25     H     0.42140  0.42140  0.00000  0.15719
      26     H     0.41958  0.41958  0.00000  0.16084
      27     H     0.42119  0.42119  0.00000  0.15762
      28     H     0.41686  0.41686  0.00000  0.16629

   Total alpha = 40.00000, Total beta = 40.00000, Total charge = -0.00000
