  ==> Input File <==

--------------------------------------------------------------------------
set {
	reference rhf
	basis 6-31G*
}

set_num_threads( 4 )
memory 2 gb

molecule MOL {
0 1

O	 0.391030	 1.298905	 0.000133
C	 0.503002	 0.111612	 0.000005
C	 -0.702327	 -0.811998	 -0.000075
C	 1.863306	 -0.554493	 0.000030
C	 -0.339145	 -2.289797	 -0.079829
H	 -1.282418	 -0.604025	 0.897150
H	 -1.342525	 -0.525451	 -0.832423
H	 0.277565	 -2.583760	 0.760691
H	 -1.236277	 -2.900041	 -0.076374
H	 0.216924	 -2.504490	 -0.984216
H	 1.974395	 -1.189404	 -0.874166
H	 2.638695	 0.198920	 -0.000196
H	 1.974487	 -1.188655	 0.874727

	symmetry c1
}
set optking {
	frozen_dihedral = ("
		6 3 2 1
	")
}

ee = optimize('scf')
oeprop('DIPOLE', 'QUADRUPOLE', 'MULLIKEN_CHARGES')
f=open( 'psi4out.xyz', 'w' )
f.write( "13  " )
f.write( str(ee) + "\n" )
f.write( MOL.save_string_xyz() )
f.close()
--------------------------------------------------------------------------

    Molecular point group: c1
  Charge       = 0
  Multiplicity = 1
  Basis Set: 6-31G*
  Basis Set:
  @DF-RHF Final Energy:  -230.99043455672154
    Total Energy =                       -230.9904345567215955
    Molecular point group: c1
  Basis Set: 6-31G*
  Basis Set:
  Basis Set: 6-31G*
  Basis Set:
  @DF-RHF Final Energy:  -230.99201671845208
    Total Energy =                       -230.9920167184521631
  Basis Set: 6-31G*
  Basis Set:
  Basis Set: 6-31G*
  Basis Set:
  @DF-RHF Final Energy:  -230.99309560698342
    Total Energy =                       -230.9930956069833883
  Basis Set: 6-31G*
  Basis Set:
  Basis Set: 6-31G*
  Basis Set:
  @DF-RHF Final Energy:  -230.99311387362184
    Total Energy =                       -230.9931138736218372
  Basis Set: 6-31G*
  Basis Set:
  Basis Set: 6-31G*
  Basis Set:
  @DF-RHF Final Energy:  -230.99317459656430
    Total Energy =                       -230.9931745965643586
  Basis Set: 6-31G*
  Basis Set:
  Basis Set: 6-31G*
  Basis Set:
  @DF-RHF Final Energy:  -230.99320180962840
    Total Energy =                       -230.9932018096284025
  Basis Set: 6-31G*
  Basis Set:
  Basis Set: 6-31G*
  Basis Set:
  @DF-RHF Final Energy:  -230.99320780133738
    Total Energy =                       -230.9932078013374621
  Basis Set: 6-31G*
  Basis Set:
  Charge       = 0
  Multiplicity = 1
  Basis Set: 6-31G*
  Basis Set:

    Orbital Energies (a.u.)
    -----------------------

    Doubly Occupied:

       1A    -20.546187     2A    -11.327102     3A    -11.234385
       4A    -11.228671     5A    -11.228459     6A     -1.393537
       7A     -1.066370     8A     -0.993849     9A     -0.890838
      10A     -0.731524    11A     -0.652286    12A     -0.642703
      13A     -0.625923    14A     -0.582971    15A     -0.556391
      16A     -0.544569    17A     -0.530767    18A     -0.514891
      19A     -0.472113    20A     -0.399314

  @DF-RHF Final Energy:  -230.99320795423330

   => Energetics <=

    Nuclear Repulsion Energy =            176.6136538640886329
    One-Electron Energy =                -662.8880234566785248
    Two-Electron Energy =                 255.2811616383565365
    DFT Exchange-Correlation Energy =       0.0000000000000000
    Empirical Dispersion Energy =           0.0000000000000000
    PCM Polarization Energy =               0.0000000000000000
    EFP Energy =                            0.0000000000000000
    Total Energy =                       -230.9932079542333554
    Molecular point group: c1
  Basis Set: 6-31G*
  Basis Set:

  -Total Gradient:
     Atom            X                  Y                   Z
    ------   -----------------  -----------------  -----------------
       1       -0.000031870981     0.000009339018     0.000419740055
       2       -0.000023660130     0.000050631874    -0.000648705544
       3        0.000251839096    -0.000317293169     0.000403172239
       4        0.000009497889    -0.000013200584     0.000044059285
       5        0.000014777745    -0.000009442827     0.000011445055
       6       -0.000225602320     0.000274766002    -0.000208715871
       7       -0.000001160947     0.000007303477    -0.000001343801
       8        0.000000738011    -0.000007461591     0.000003069321
       9        0.000003365449     0.000012890562    -0.000000708190
      10       -0.000004338852     0.000008115494     0.000003017761
      11       -0.000000010792     0.000001821315    -0.000008628880
      12       -0.000010205139    -0.000006354777    -0.000008041942
      13        0.000016630970    -0.000011114799    -0.000008359489

  **** Optimization is complete! (in 8 steps) ****
    Final optimized geometry and variables:
    Molecular point group: c1

    Geometry (in Angstrom), charge = 0, multiplicity = 1:

    O            0.005398699042     1.742491518648     0.006559780124
    C            0.180573250374     0.562074038616     0.012382203781
    C           -1.027813517652    -0.369393898864     0.019738005450
    C            1.578943764203    -0.016039107536     0.029529282753
    C           -0.770640924797    -1.873079233514    -0.066886735548
    H           -1.581887446709    -0.133800309790     0.924204824185
    H           -1.660588573996    -0.047405912201    -0.801554692896
    H           -0.178532612466    -2.234590589580     0.767181120726
    H           -1.713411832105    -2.408912307591    -0.051913770276
    H           -0.257745150474    -2.144416297064    -0.983787929096
    H            1.746392517671    -0.649264563447    -0.836075701607
    H            2.294574629173     0.793890041672     0.028440639178
    H            1.729138480436    -0.630905922546     0.911756000802

  Mulliken Charges: (a.u.)
   Center  Symbol    Alpha    Beta     Spin     Total
       1     O     4.26261  4.26261  0.00000 -0.52522
       2     C     2.73978  2.73978  0.00000  0.52043
       3     C     3.20249  3.20249  0.00000 -0.40497
       4     C     3.29153  3.29153  0.00000 -0.58306
       5     C     3.24949  3.24949  0.00000 -0.49897
       6     H     0.39954  0.39954  0.00000  0.20093
       7     H     0.39875  0.39875  0.00000  0.20249
       8     H     0.41720  0.41720  0.00000  0.16559
       9     H     0.41115  0.41115  0.00000  0.17770
      10     H     0.41699  0.41699  0.00000  0.16602
      11     H     0.40751  0.40751  0.00000  0.18497
      12     H     0.39524  0.39524  0.00000  0.20952
      13     H     0.40772  0.40772  0.00000  0.18456

   Total alpha = 20.00000, Total beta = 20.00000, Total charge = -0.00000
