  ==> Input File <==

--------------------------------------------------------------------------
set {
	reference rhf
	basis 6-31G*
}

set_num_threads( 4 )
memory 2 gb

molecule MOL {
0 1

H	 -3.161837	 0.500524	 -0.000234
C	 -2.367097	 -0.232926	 -0.000000
O	 -1.158440	 0.455814	 -0.000122
H	 -2.468853	 -0.861886	 -0.882833
H	 -2.468942	 -0.861421	 0.883154
C	 -0.029776	 -0.365156	 0.000148
C	 1.212217	 0.508981	 0.000007
H	 -0.036772	 -1.013236	 -0.877259
H	 -0.036869	 -1.012778	 0.877897
C	 2.245383	 0.056253	 -1.030762
H	 0.911840	 1.533796	 -0.195414
H	 1.644182	 0.493603	 0.995933
H	 1.840195	 0.087639	 -2.038364
H	 3.120646	 0.696781	 -1.008787
H	 2.577289	 -0.960340	 -0.838977

	symmetry c1
}
set optking {
	frozen_dihedral = ("
		11 7 6 8
	")
}

ee = optimize('scf')
oeprop('DIPOLE', 'QUADRUPOLE', 'MULLIKEN_CHARGES')
f=open( 'psi4out.xyz', 'w' )
f.write( "15  " )
f.write( str(ee) + "\n" )
f.write( MOL.save_string_xyz() )
f.close()
--------------------------------------------------------------------------

    Molecular point group: c1
  Charge       = 0
  Multiplicity = 1
  Basis Set: 6-31G*
  Basis Set:
  @DF-RHF Final Energy:  -232.13379516060249
    Total Energy =                       -232.1337951606022330
    Molecular point group: c1
  Basis Set: 6-31G*
  Basis Set:
  Basis Set: 6-31G*
  Basis Set:
  @DF-RHF Final Energy:  -232.13413383183772
    Total Energy =                       -232.1341338318378575
  Basis Set: 6-31G*
  Basis Set:
  Basis Set: 6-31G*
  Basis Set:
  @DF-RHF Final Energy:  -232.13424209358323
    Total Energy =                       -232.1342420935831115
  Basis Set: 6-31G*
  Basis Set:
  Charge       = 0
  Multiplicity = 1
  Basis Set: 6-31G*
  Basis Set:

    Orbital Energies (a.u.)
    -----------------------

    Doubly Occupied:

       1A    -20.553897     2A    -11.266513     3A    -11.263834
       4A    -11.213948     5A    -11.211704     6A     -1.378232
       7A     -1.053760     8A     -0.954553     9A     -0.878418
      10A     -0.809376    11A     -0.670312    12A     -0.656535
      13A     -0.631724    14A     -0.597493    15A     -0.570155
      16A     -0.544512    17A     -0.496618    18A     -0.489542
      19A     -0.477796    20A     -0.461256    21A     -0.411354

  @DF-RHF Final Energy:  -232.13424293100252

   => Energetics <=

    Nuclear Repulsion Energy =            189.7072549542859292
    One-Electron Energy =                -690.4999342549415360
    Two-Electron Energy =                 268.6584363696528612
    DFT Exchange-Correlation Energy =       0.0000000000000000
    Empirical Dispersion Energy =           0.0000000000000000
    PCM Polarization Energy =               0.0000000000000000
    EFP Energy =                            0.0000000000000000
    Total Energy =                       -232.1342429310027455
    Molecular point group: c1
  Basis Set: 6-31G*
  Basis Set:

  -Total Gradient:
     Atom            X                  Y                   Z
    ------   -----------------  -----------------  -----------------
       1       -0.000057809878    -0.000029126418    -0.000000547550
       2       -0.000022510453     0.000061944375     0.000005964206
       3       -0.000018290129    -0.000039766532     0.000029665547
       4       -0.000005238863    -0.000008023004     0.000007397888
       5       -0.000009245340    -0.000008680377    -0.000008176301
       6       -0.001955118386     0.002896334866    -0.001487276675
       7        0.000927092529    -0.001111645190    -0.003291041741
       8        0.001515905944    -0.002251768145     0.001667906013
       9       -0.000057436944     0.000034674186    -0.000021790803
      10        0.000051200717     0.000006691292    -0.000050280389
      11       -0.000347224530     0.000466710869     0.003125739083
      12        0.000005368113    -0.000007681827    -0.000015311129
      13       -0.000041235221    -0.000048395336     0.000016832802
      14       -0.000008248626     0.000021627170    -0.000009060664
      15        0.000022791067     0.000017104074     0.000029979711

  **** Optimization is complete! (in 4 steps) ****
    Final optimized geometry and variables:
    Molecular point group: c1

    Geometry (in Angstrom), charge = 0, multiplicity = 1:

    H           -3.125144972726     0.418014010021     0.243432156394
    C           -2.326432797714    -0.311151237265     0.235061382526
    O           -1.121615434072     0.383258026184     0.202390742002
    H           -2.442995781784    -0.950337024072    -0.638645904442
    H           -2.406438800713    -0.930866953709     1.126666135388
    C            0.009197200122    -0.436113326604     0.183737404783
    C            1.271168398489     0.434301632043     0.195124690206
    H           -0.004984968341    -1.084004268945    -0.693467787736
    H           -0.005212588077    -1.099413851741     1.048595988886
    C            2.331680954702    -0.017263517232    -0.807177370339
    H            0.966706720889     1.456325387491     0.000508740327
    H            1.698753396529     0.439205977350     1.193781513232
    H            1.951123525311     0.023481278659    -1.823499918177
    H            3.211858355464     0.615310842926    -0.754911948409
    H            2.649603247115    -1.038348641259    -0.613505928072

  Mulliken Charges: (a.u.)
   Center  Symbol    Alpha    Beta     Spin     Total
       1     H     0.41217  0.41217  0.00000  0.17566
       2     C     3.07992  3.07992  0.00000 -0.15985
       3     O     4.30478  4.30478  0.00000 -0.60956
       4     H     0.43038  0.43038  0.00000  0.13924
       5     H     0.43033  0.43033  0.00000  0.13933
       6     C     2.98690  2.98690  0.00000  0.02619
       7     C     3.16624  3.16624  0.00000 -0.33249
       8     H     0.43058  0.43058  0.00000  0.13884
       9     H     0.43151  0.43151  0.00000  0.13698
      10     C     3.24557  3.24557  0.00000 -0.49113
      11     H     0.40401  0.40401  0.00000  0.19197
      12     H     0.41894  0.41894  0.00000  0.16213
      13     H     0.41850  0.41850  0.00000  0.16301
      14     H     0.41771  0.41771  0.00000  0.16458
      15     H     0.42245  0.42245  0.00000  0.15509

   Total alpha = 21.00000, Total beta = 21.00000, Total charge =  0.00000
