  ==> Input File <==

--------------------------------------------------------------------------
set {
	reference rhf
	basis 6-31G*
}

set_num_threads( 1 )
memory 2 gb

molecule MOL {
0 1

H	 -0.132005	 2.027920	 1.620486
C	 0.742632	 1.393057	 1.434043
C	 0.692068	 0.589600	 0.160137
O	 1.642117	 1.373388	 2.210361
C	 -0.558097	 -0.297372	 0.091132
H	 1.599100	 0.000207	 0.093876
H	 0.683684	 1.290155	 -0.674118
C	 -1.850991	 0.512573	 -0.019058
H	 -0.476753	 -0.965681	 -0.762987
H	 -0.604799	 -0.930658	 0.975228
C	 -3.096943	 -0.368295	 -0.099594
H	 -1.800724	 1.150330	 -0.898172
H	 -1.931651	 1.177355	 0.838044
H	 -3.060452	 -1.020287	 -0.967456
H	 -3.996858	 0.233488	 -0.175704
H	 -3.191959	 -0.995686	 0.782074

	symmetry c1
}
set optking {
	frozen_dihedral = ("
		9 5 8 12,
		4 2 3 6
	")
}

ee = energy('scf')
oeprop('DIPOLE', 'QUADRUPOLE', 'MULLIKEN_CHARGES')
f=open( 'psi4out.xyz', 'w' )
f.write( "16  " )
f.write( str(ee) + "\n" )
f.write( MOL.save_string_xyz() )
f.close()
--------------------------------------------------------------------------

    Molecular point group: c1

    Geometry (in Angstrom), charge = 0, multiplicity = 1:

       Center              X                  Y                   Z               Mass
    ------------   -----------------  -----------------  -----------------  -----------------
           H          0.281642016367     1.494600285447     0.981584999510     1.007825032070
           C          1.156279016367     0.859737285447     0.795141999510    12.000000000000
           C          1.105715016367     0.056280285447    -0.478764000490    12.000000000000
           O          2.055764016367     0.840068285447     1.571459999510    15.994914619560
           C         -0.144449983633    -0.830691714553    -0.547769000490    12.000000000000
           H          2.012747016367    -0.533112714553    -0.545025000490     1.007825032070
           H          1.097331016367     0.756835285447    -1.313019000490     1.007825032070
           C         -1.437343983633    -0.020746714553    -0.657959000490    12.000000000000
           H         -0.063105983633    -1.499000714553    -1.401888000490     1.007825032070
           H         -0.191151983633    -1.463977714553     0.336326999510     1.007825032070
           C         -2.683295983633    -0.901614714553    -0.738495000490    12.000000000000
           H         -1.387076983633     0.617010285447    -1.537073000490     1.007825032070
           H         -1.518003983633     0.644035285447     0.199142999510     1.007825032070
           H         -2.646804983633    -1.553606714553    -1.606357000490     1.007825032070
           H         -3.583210983633    -0.299831714553    -0.814605000490     1.007825032070
           H         -2.778311983633    -1.529005714553     0.143172999510     1.007825032070

  Charge       = 0
  Multiplicity = 1
  Basis Set: 6-31G*
  Basis Set:

    Orbital Energies (a.u.)
    -----------------------

    Doubly Occupied:

       1A    -20.562120     2A    -11.325540     3A    -11.236304
       4A    -11.234880     5A    -11.231027     6A    -11.219881
       7A     -1.401871     8A     -1.099158     9A     -1.017244
      10A     -0.904723    11A     -0.830675    12A     -0.780185
      13A     -0.675386    14A     -0.655848    15A     -0.618039
      16A     -0.603315    17A     -0.582062    18A     -0.559133
      19A     -0.535454    20A     -0.512202    21A     -0.490225
      22A     -0.481433    23A     -0.472239    24A     -0.407045

  @DF-RHF Final Energy:  -270.01684525115570

   => Energetics <=

    Nuclear Repulsion Energy =            232.8165435199164506
    One-Electron Energy =                -826.7946680826296415
    Two-Electron Energy =                 323.9612793115582008
    DFT Exchange-Correlation Energy =       0.0000000000000000
    Empirical Dispersion Energy =           0.0000000000000000
    PCM Polarization Energy =               0.0000000000000000
    EFP Energy =                            0.0000000000000000
    Total Energy =                       -270.0168452511550186

  Mulliken Charges: (a.u.)
   Center  Symbol    Alpha    Beta     Spin     Total
       1     H     0.43017  0.43017  0.00000  0.13965
       2     C     2.83118  2.83118  0.00000  0.33764
       3     C     3.20904  3.20904  0.00000 -0.41807
       4     O     4.23837  4.23837  0.00000 -0.47674
       5     C     3.16466  3.16466  0.00000 -0.32931
       6     H     0.39761  0.39761  0.00000  0.20479
       7     H     0.40965  0.40965  0.00000  0.18070
       8     C     3.15853  3.15853  0.00000 -0.31705
       9     H     0.41226  0.41226  0.00000  0.17547
      10     H     0.41353  0.41353  0.00000  0.17294
      11     C     3.23947  3.23947  0.00000 -0.47894
      12     H     0.42001  0.42001  0.00000  0.15998
      13     H     0.42045  0.42045  0.00000  0.15910
      14     H     0.41963  0.41963  0.00000  0.16074
      15     H     0.41641  0.41641  0.00000  0.16719
      16     H     0.41904  0.41904  0.00000  0.16192

   Total alpha = 24.00000, Total beta = 24.00000, Total charge =  0.00000
