                              Psi4 1.0.54 Driver

  ==> Input File <==

--------------------------------------------------------------------------
set {
	reference rhf
	basis cc-pvtz
}

set_num_threads( 4 )
memory 2 gb

molecule MOL {
0 1

H	 -0.490025	 -1.644036	 -0.001662
N	 -0.625934	 -0.663929	 -0.000707
C	 -1.978629	 -0.158667	 0.004240
C	 0.468494	 0.129045	 -0.002160
H	 -2.520431	 -0.491633	 -0.873013
H	 -1.938887	 0.917207	 0.001359
H	 -2.512871	 -0.487056	 0.887860
C	 1.785715	 -0.615093	 0.000603
O	 0.413285	 1.323206	 0.000532
H	 1.866994	 -1.243310	 -0.878792
H	 2.591506	 0.100263	 0.006422
H	 1.860358	 -1.250360	 0.875522

	symmetry c1
}
set optking {
	frozen_dihedral = ("
		3 2 4 9
	")
}

ee,wfn = optimize('scf', return_wfn=True)
oeprop( wfn, 'DIPOLE', 'QUADRUPOLE', 'MULLIKEN_CHARGES')
f=open( 'psi4out.xyz', 'w' )
f.write( "12  " )
f.write( str(ee) + "\n" )
f.write( MOL.save_string_xyz() )
f.close()
--------------------------------------------------------------------------

    Molecular point group: c1
  Charge       = 0
  Multiplicity = 1
  Basis Set: CC-PVTZ
  Basis Set:
  @DF-RHF Final Energy:  -247.10098488754056
    Total Energy =                       -247.1009848875403350
    Molecular point group: c1
  Basis Set: CC-PVTZ
  Basis Set:
  Basis Set: CC-PVTZ
  Basis Set:
  @DF-RHF Final Energy:  -247.10096194204880
    Total Energy =                       -247.1009619420489116
  Basis Set: CC-PVTZ
  Basis Set:
  Charge       = 0
  Multiplicity = 1
  Basis Set: CC-PVTZ
  Basis Set:

    Orbital Energies (a.u.)
    -----------------------

    Doubly Occupied:

       1A    -20.506608     2A    -15.574924     3A    -11.336935
       4A    -11.252405     5A    -11.228096     6A     -1.388433
       7A     -1.231033     8A     -1.016682     9A     -0.932873
      10A     -0.788216    11A     -0.690978    12A     -0.651699
      13A     -0.635336    14A     -0.586889    15A     -0.582930
      16A     -0.555551    17A     -0.544815    18A     -0.511435
      19A     -0.417216    20A     -0.389319

  @DF-RHF Final Energy:  -247.10098771737140

   => Energetics <=

    Nuclear Repulsion Energy =            181.6324085250972473
    One-Electron Energy =                -695.8220483754678298
    Two-Electron Energy =                 267.0886521329991865
    DFT Exchange-Correlation Energy =       0.0000000000000000
    Empirical Dispersion Energy =           0.0000000000000000
    PCM Polarization Energy =               0.0000000000000000
    EFP Energy =                            0.0000000000000000
    Total Energy =                       -247.1009877173713676
    Molecular point group: c1
  Basis Set: CC-PVTZ
  Basis Set:

  -Total Gradient:
     Atom            X                  Y                   Z
    ------   -----------------  -----------------  -----------------
       1        0.000002597958    -0.000005518231    -0.000009997432
       2        0.000061300611     0.000029142329     0.000013935875
       3       -0.000039157243     0.000026212342    -0.000002131721
       4       -0.000044710690    -0.000111852663     0.000002753479
       5       -0.000010303230    -0.000002991236    -0.000014568047
       6       -0.000002815471     0.000006707617    -0.000000857288
       7       -0.000006649586    -0.000005897859     0.000014755039
       8        0.000025521867     0.000012138586     0.000000935703
       9       -0.000023009642     0.000078433826    -0.000004660453
      10        0.000008879033    -0.000015989934    -0.000020736087
      11        0.000021475701     0.000004276288    -0.000001269183
      12        0.000006870694    -0.000014661061     0.000021840114

  **** Optimization is complete! (in 3 steps) ****
    Final optimized geometry and variables:
    Molecular point group: c1

    Geometry (in Angstrom), charge = 0, multiplicity = 1:

    H           -0.489941687129    -1.644151249305    -0.000620176176
    N           -0.625952956250    -0.663966418521     0.000105821797
    C           -1.978617247227    -0.158577942144     0.001394368636
    C            0.468560624816     0.129072711239    -0.000134762908
    H           -2.518510879975    -0.491930387557    -0.876977134991
    H           -1.939054366200     0.917411628861    -0.002064054672
    H           -2.515154820641    -0.486309705104     0.883957999045
    C            1.786143417550    -0.615121077542    -0.002016911959
    O            0.412851379957     1.323144561787     0.000706458649
    H            1.864760680899    -1.242967257672    -0.882015079073
    H            2.592025168384     0.100284137573     0.001596141349
    H            1.863516359964    -1.250764539677     0.872457083526

  Mulliken Charges: (a.u.)
   Center  Symbol    Alpha    Beta     Spin     Total
       1     H     0.41027  0.41027  0.00000  0.17946
       2     N     3.62196  3.62196  0.00000 -0.24391
       3     C     3.08602  3.08602  0.00000 -0.17204
       4     C     2.83656  2.83656  0.00000  0.32689
       5     H     0.45569  0.45569  0.00000  0.08862
       6     H     0.43100  0.43100  0.00000  0.13800
       7     H     0.45570  0.45570  0.00000  0.08859
       8     C     3.15347  3.15347  0.00000 -0.30694
       9     O     4.21564  4.21564  0.00000 -0.43129
      10     H     0.45001  0.45001  0.00000  0.09998
      11     H     0.43353  0.43353  0.00000  0.13294
      12     H     0.45015  0.45015  0.00000  0.09970

   Total alpha = 20.00000, Total beta = 20.00000, Total charge = -0.00000

*** Psi4 exiting successfully. Buy a developer a beer!
