                              Psi4 1.0.54 Driver

  ==> Input File <==

--------------------------------------------------------------------------
set {
	reference rhf
	basis cc-pvtz
}

set_num_threads( 4 )
memory 2 gb

molecule MOL {
0 1

H	 -2.644180	 -0.653737	 1.272255
C	 -2.092774	 -0.380414	 0.391915
O	 -0.808934	 -0.154049	 0.752536
F	 -2.163230	 -1.351640	 -0.507133
F	 -2.627232	 0.691260	 -0.169301
C	 -0.554169	 0.303695	 2.027238
C	 0.482353	 1.419067	 1.913911
Cl	 0.061421	 -0.996451	 3.064644
H	 -1.429859	 0.707832	 2.504195
F	 0.758942	 1.909272	 3.095529
F	 -0.011445	 2.387925	 1.179886
F	 1.590722	 1.010263	 1.360152

	symmetry c1
}
set optking {
	frozen_dihedral = ("
		6 3 2 4
	")
}

ee,wfn = optimize('scf', return_wfn=True)
oeprop( wfn, 'DIPOLE', 'QUADRUPOLE', 'MULLIKEN_CHARGES')
f=open( 'psi4out.xyz', 'w' )
f.write( "12  " )
f.write( str(ee) + "\n" )
f.write( MOL.save_string_xyz() )
f.close()
--------------------------------------------------------------------------

    Molecular point group: c1
  Charge       = 0
  Multiplicity = 1
  Basis Set: CC-PVTZ
  Basis Set:
  @DF-RHF Final Energy: -1146.61465070990698
    Total Energy =                      -1146.6146507099065275
    Molecular point group: c1
  Basis Set: CC-PVTZ
  Basis Set:
  Basis Set: CC-PVTZ
  Basis Set:
  @DF-RHF Final Energy: -1146.61435787646747
    Total Energy =                      -1146.6143578764681479
  Basis Set: CC-PVTZ
  Basis Set:
  Basis Set: CC-PVTZ
  Basis Set:
  @DF-RHF Final Energy: -1146.61728091926307
    Total Energy =                      -1146.6172809192639761
  Basis Set: CC-PVTZ
  Basis Set:
  Basis Set: CC-PVTZ
  Basis Set:
  @DF-RHF Final Energy: -1146.61647702943173
    Total Energy =                      -1146.6164770294321897
  Basis Set: CC-PVTZ
  Basis Set:
  @DF-RHF Final Energy: -1146.61746158095593
    Total Energy =                      -1146.6174615809568422
  @DF-RHF Final Energy: -1146.61770943900228
    Total Energy =                      -1146.6177094390031925
  @DF-RHF Final Energy: -1146.61759374961571
    Total Energy =                      -1146.6175937496154802
  @DF-RHF Final Energy: -1146.50881667530393
    Total Energy =                      -1146.5088166753043879
  @DF-RHF Final Energy: -1146.57316643686590
    Total Energy =                      -1146.5731664368659040
  @DF-RHF Final Energy: -1146.61659444820839
    Total Energy =                      -1146.6165944482088435
  @DF-RHF Final Energy: -1146.61773373617370
    Total Energy =                      -1146.6177337361730224
  @DF-RHF Final Energy: -1146.61797145015726
    Total Energy =                      -1146.6179714501581657
  Basis Set: CC-PVTZ
  Basis Set:
  @DF-RHF Final Energy: -1146.61797613050999
    Total Energy =                      -1146.6179761305102147
  Basis Set: CC-PVTZ
  Basis Set:
  Basis Set: CC-PVTZ
  Basis Set:
  @DF-RHF Final Energy: -1146.61800367615979
    Total Energy =                      -1146.6180036761588781
  Basis Set: CC-PVTZ
  Basis Set:
  Basis Set: CC-PVTZ
  Basis Set:
  @DF-RHF Final Energy: -1146.61801066537691
    Total Energy =                      -1146.6180106653760049
  Basis Set: CC-PVTZ
  Basis Set:
  Charge       = 0
  Multiplicity = 1
  Basis Set: CC-PVTZ
  Basis Set:

    Orbital Energies (a.u.)
    -----------------------

    Doubly Occupied:

       1A   -104.866574     2A    -26.359464     3A    -26.357645
       4A    -26.357223     5A    -26.340826     6A    -26.339307
       7A    -20.642693     8A    -11.525972     9A    -11.483709
      10A    -11.409826    11A    -10.592109    12A     -8.058865
      13A     -8.056952    14A     -8.056862    15A     -1.772582
      16A     -1.722450    17A     -1.667392    18A     -1.665656
      19A     -1.644127    20A     -1.491985    21A     -1.181433
      22A     -1.061463    23A     -0.987781    24A     -0.933751
      25A     -0.867837    26A     -0.863612    27A     -0.856613
      28A     -0.825680    29A     -0.820664    30A     -0.796288
      31A     -0.738082    32A     -0.734922    33A     -0.705536
      34A     -0.697144    35A     -0.691576    36A     -0.683437
      37A     -0.672812    38A     -0.668053    39A     -0.663220
      40A     -0.646358    41A     -0.604390    42A     -0.570757
      43A     -0.524940    44A     -0.489610    45A     -0.479839

  @DF-RHF Final Energy: -1146.61801152124735

   => Energetics <=

    Nuclear Repulsion Energy =            727.1497953505447640
    One-Electron Energy =               -3037.1795809067025402
    Two-Electron Energy =                1163.4117740349106498
    DFT Exchange-Correlation Energy =       0.0000000000000000
    Empirical Dispersion Energy =           0.0000000000000000
    PCM Polarization Energy =               0.0000000000000000
    EFP Energy =                            0.0000000000000000
    Total Energy =                      -1146.6180115212468991
    Molecular point group: c1
  Basis Set: CC-PVTZ
  Basis Set:

  -Total Gradient:
     Atom            X                  Y                   Z
    ------   -----------------  -----------------  -----------------
       1       -0.000002668028    -0.000035943015    -0.000028027283
       2       -0.000469930928     0.001614696404    -0.000672036376
       3       -0.001385763903     0.001741493027     0.001041815891
       4        0.000702619604    -0.001768493483     0.000339866583
       5       -0.000055682318     0.000005463833    -0.000077704071
       6        0.001146329824    -0.001532030446    -0.000636764355
       7       -0.000035644636    -0.000160794784    -0.000016316340
       8        0.000049973003    -0.000066295475     0.000019157345
       9       -0.000044894916     0.000008153775    -0.000006904508
      10       -0.000015712909     0.000149561109    -0.000068486936
      11        0.000160076005    -0.000089843516     0.000045415113
      12       -0.000048700763     0.000134032526     0.000059984968

  **** Optimization is complete! (in 14 steps) ****
    Final optimized geometry and variables:
    Molecular point group: c1

    Geometry (in Angstrom), charge = 0, multiplicity = 1:

    H           -1.664071272811    -1.409155946564    -1.080237927753
    C           -1.408734350927    -0.436990402837    -1.471366135357
    O           -0.334064104607     0.116135198963    -0.847735248018
    F           -1.117385059421    -0.536102868897    -2.745145455415
    F           -2.454883021361     0.363057624741    -1.347493781690
    C           -0.106393618721    -0.227089333457     0.455632850755
    C            0.829170489658     0.827859583110     1.042512762517
    CL           0.624276810244    -1.847223172541     0.602309119396
    H           -1.007484254926    -0.237785997503     1.048475011715
    F            1.073159551390     0.565037353144     2.301550124038
    F            0.245031049065     1.998965607790     0.980105357043
    F            1.961265151909     0.895222327898     0.400846749540

  Mulliken Charges: (a.u.)
   Center  Symbol    Alpha    Beta     Spin     Total
       1     H     0.47964  0.47964  0.00000  0.04071
       2     C     2.73767  2.73767  0.00000  0.52465
       3     O     4.13907  4.13907  0.00000 -0.27814
       4     F     4.60026  4.60026  0.00000 -0.20051
       5     F     4.61333  4.61333  0.00000 -0.22666
       6     C     2.94828  2.94828  0.00000  0.10344
       7     C     2.66869  2.66869  0.00000  0.66261
       8    CL     8.57848  8.57848  0.00000 -0.15697
       9     H     0.43181  0.43181  0.00000  0.13639
      10     F     4.60241  4.60241  0.00000 -0.20481
      11     F     4.60213  4.60213  0.00000 -0.20426
      12     F     4.59823  4.59823  0.00000 -0.19645

   Total alpha = 45.00000, Total beta = 45.00000, Total charge =  0.00000

*** Psi4 exiting successfully. Buy a developer a beer!
