  ==> Input File <==

--------------------------------------------------------------------------
set {
	reference rhf
	basis cc-pvtz
}

set_num_threads( 4 )
memory 2 gb

molecule MOL {
0 1

H	 2.190573	 -0.629143	 -0.208718
O	 1.355408	 -0.529451	 0.208662
C	 0.700177	 0.619554	 -0.266242
C	 -0.713111	 0.588314	 0.266177
H	 0.678680	 0.627133	 -1.351786
H	 1.199747	 1.521489	 0.077736
O	 -1.421673	 -0.521378	 -0.196983
H	 -1.244794	 1.469161	 -0.069059
H	 -0.685100	 0.604721	 1.352683
H	 -1.849925	 -0.288272	 -1.002145

	symmetry c1
}
set optking {
	frozen_dihedral = ("
		10 7 4 3
	")
}

ee = optimize('scf')
oeprop('DIPOLE', 'QUADRUPOLE', 'MULLIKEN_CHARGES')
f=open( 'psi4out.xyz', 'w' )
f.write( "10  " )
f.write( str(ee) + "\n" )
f.write( MOL.save_string_xyz() )
f.close()
--------------------------------------------------------------------------

    Molecular point group: c1
  Charge       = 0
  Multiplicity = 1
  Basis Set: CC-PVTZ
  Basis Set:
  @DF-RHF Final Energy:  -229.02086926846519
    Total Energy =                       -229.0208692684651908
    Molecular point group: c1
  Basis Set: CC-PVTZ
  Basis Set:
  Basis Set: CC-PVTZ
  Basis Set:
  @DF-RHF Final Energy:  -229.02253654260088
    Total Energy =                       -229.0225365426007329
  Basis Set: CC-PVTZ
  Basis Set:
  Basis Set: CC-PVTZ
  Basis Set:
  @DF-RHF Final Energy:  -229.02274275504539
    Total Energy =                       -229.0227427550452717
  Basis Set: CC-PVTZ
  Basis Set:
  Basis Set: CC-PVTZ
  Basis Set:
  @DF-RHF Final Energy:  -229.02275083320933
    Total Energy =                       -229.0227508332093294
  Basis Set: CC-PVTZ
  Basis Set:
  Charge       = 0
  Multiplicity = 1
  Basis Set: CC-PVTZ
  Basis Set:

    Orbital Energies (a.u.)
    -----------------------

    Doubly Occupied:

       1A    -20.548082     2A    -20.546317     3A    -11.270289
       4A    -11.268668     5A     -1.376317     6A     -1.356850
       7A     -1.002848     8A     -0.841547     9A     -0.724331
      10A     -0.683638    11A     -0.651940    12A     -0.599150
      13A     -0.574507    14A     -0.529892    15A     -0.490409
      16A     -0.447036    17A     -0.435952

  @DF-RHF Final Energy:  -229.02275137325677

   => Energetics <=

    Nuclear Repulsion Energy =            133.2700623392186685
    One-Electron Energy =                -577.8900847542756765
    Two-Electron Energy =                 215.5972710418002407
    DFT Exchange-Correlation Energy =       0.0000000000000000
    Empirical Dispersion Energy =           0.0000000000000000
    PCM Polarization Energy =               0.0000000000000000
    EFP Energy =                            0.0000000000000000
    Total Energy =                       -229.0227513732567672
    Molecular point group: c1
  Basis Set: CC-PVTZ
  Basis Set:

  -Total Gradient:
     Atom            X                  Y                   Z
    ------   -----------------  -----------------  -----------------
       1        0.000003952539     0.000017878198    -0.000005312837
       2       -0.000023512533     0.000008420335     0.000023350944
       3        0.000204746722    -0.000431426148     0.000603665656
       4       -0.000588268996     0.000712219019    -0.000780789095
       5        0.000000989112    -0.000008652350    -0.000001182470
       6        0.000021713448    -0.000023614472     0.000021918813
       7        0.001393618444    -0.000701398568    -0.000570035195
       8        0.000011791799    -0.000005709494    -0.000009843321
       9        0.000004622011    -0.000001523891     0.000020523456
      10       -0.001029652542     0.000433807367     0.000697704050

  **** Optimization is complete! (in 5 steps) ****
    Final optimized geometry and variables:
    Molecular point group: c1

    Geometry (in Angstrom), charge = 0, multiplicity = 1:

    H            2.260484521204    -0.593793052681    -0.133150579619
    O            1.416097277576    -0.519098925210     0.270821427764
    C            0.717212149646     0.566261212887    -0.264156484336
    C           -0.698247665180     0.556244159593     0.269092521075
    H            0.695096206512     0.519126655404    -1.351222855648
    H            1.186980708565     1.506606195098     0.020231437066
    O           -1.456491149290    -0.519756758383    -0.205829615552
    H           -1.171331698407     1.504775469743     0.028570470873
    H           -0.661435459193     0.468458792969     1.346955362234
    H           -1.894521089095    -0.283259649563    -1.001623601941

  Mulliken Charges: (a.u.)
   Center  Symbol    Alpha    Beta     Spin     Total
       1     H     0.39576  0.39576  0.00000  0.20847
       2     O     4.19221  4.19221  0.00000 -0.38442
       3     C     2.95684  2.95684  0.00000  0.08632
       4     C     2.97202  2.97202  0.00000  0.05596
       5     H     0.48199  0.48199  0.00000  0.03603
       6     H     0.47830  0.47830  0.00000  0.04340
       7     O     4.19760  4.19760  0.00000 -0.39520
       8     H     0.47267  0.47267  0.00000  0.05466
       9     H     0.45682  0.45682  0.00000  0.08637
      10     H     0.39579  0.39579  0.00000  0.20842

   Total alpha = 17.00000, Total beta = 17.00000, Total charge = -0.00000
