  ==> Input File <==

--------------------------------------------------------------------------
set {
	reference rhf
	basis 6-31G*
}

set_num_threads( 1 )
memory 2 gb

molecule MOL {
0 1

O	 1.427255	 0.794396	 0.937555
C	 1.705091	 0.115954	 0.001797
C	 0.977874	 0.103103	 -1.320647
O	 2.721346	 -0.737485	 -0.000216
C	 -0.201047	 1.070047	 -1.373640
H	 1.706926	 0.328303	 -2.094263
H	 0.657633	 -0.918723	 -1.505133
C	 -0.918484	 1.037102	 -2.723922
H	 0.151779	 2.075681	 -1.167720
H	 -0.899133	 0.826756	 -0.578786
C	 -2.103419	 2.001855	 -2.794913
H	 -0.212365	 1.278373	 -3.517131
H	 -1.267806	 0.025603	 -2.925726
C	 -2.820603	 1.967603	 -4.143885
H	 -1.755692	 3.013136	 -2.596072
H	 -2.810097	 1.761564	 -2.003709
H	 -2.147766	 2.237603	 -4.952961
H	 -3.655259	 2.661461	 -4.162900
H	 -3.210177	 0.975884	 -4.356102
C	 4.024888	 -0.184556	 -0.001949
H	 4.179030	 0.422472	 -0.882452
H	 4.701782	 -1.024608	 -0.003642
H	 4.181981	 0.421185	 0.878906

	symmetry c1
}
set optking {
	frozen_dihedral = ("
		15 11 8 12,
		9 5 8 12,
		1 2 3 6,
		9 5 3 6
	")
}

ee = energy('scf')
oeprop('DIPOLE', 'QUADRUPOLE', 'MULLIKEN_CHARGES')
f=open( 'psi4out.xyz', 'w' )
f.write( "23  " )
f.write( str(ee) + "\n" )
f.write( MOL.save_string_xyz() )
f.close()
--------------------------------------------------------------------------

    Molecular point group: c1

    Geometry (in Angstrom), charge = 0, multiplicity = 1:

       Center              X                  Y                   Z               Mass
    ------------   -----------------  -----------------  -----------------  -----------------
           O          0.858874213001     0.114619617139     2.193476878775    15.994914619560
           C          1.136710213001    -0.563822382861     1.257718878775    12.000000000000
           C          0.409493213001    -0.576673382861    -0.064725121225    12.000000000000
           O          2.152965213001    -1.417261382861     1.255705878775    15.994914619560
           C         -0.769427786999     0.390270617139    -0.117718121225    12.000000000000
           H          1.138545213001    -0.351473382861    -0.838341121225     1.007825032070
           H          0.089252213001    -1.598499382861    -0.249211121225     1.007825032070
           C         -1.486864786999     0.357325617139    -1.468000121225    12.000000000000
           H         -0.416601786999     1.395904617139     0.088201878775     1.007825032070
           H         -1.467513786999     0.146979617139     0.677135878775     1.007825032070
           C         -2.671799786999     1.322078617139    -1.538991121225    12.000000000000
           H         -0.780745786999     0.598596617139    -2.261209121225     1.007825032070
           H         -1.836186786999    -0.654173382861    -1.669804121225     1.007825032070
           C         -3.388983786999     1.287826617139    -2.887963121225    12.000000000000
           H         -2.324072786999     2.333359617139    -1.340150121225     1.007825032070
           H         -3.378477786999     1.081787617139    -0.747787121225     1.007825032070
           H         -2.716146786999     1.557826617139    -3.697039121225     1.007825032070
           H         -4.223639786999     1.981684617139    -2.906978121225     1.007825032070
           H         -3.778557786999     0.296107617139    -3.100180121225     1.007825032070
           C          3.456507213001    -0.864332382861     1.253972878775    12.000000000000
           H          3.610649213001    -0.257304382861     0.373469878775     1.007825032070
           H          4.133401213001    -1.704384382861     1.252279878775     1.007825032070
           H          3.613600213001    -0.258591382861     2.134827878775     1.007825032070

  Charge       = 0
  Multiplicity = 1
  Basis Set: 6-31G*
  Basis Set:

    Orbital Energies (a.u.)
    -----------------------

    Doubly Occupied:

       1A    -20.588233     2A    -20.553263     3A    -11.373376
       4A    -11.291932     5A    -11.236467     6A    -11.219530
       7A    -11.218533     8A    -11.217045     9A    -11.210224
      10A     -1.464607    11A     -1.365608    12A     -1.093364
      13A     -1.041890    14A     -0.986585    15A     -0.939581
      16A     -0.847710    17A     -0.795924    18A     -0.768170
      19A     -0.695701    20A     -0.681385    21A     -0.674632
      22A     -0.649711    23A     -0.613773    24A     -0.606999
      25A     -0.577479    26A     -0.567338    27A     -0.555252
      28A     -0.535292    29A     -0.508855    30A     -0.498892
      31A     -0.486105    32A     -0.475382    33A     -0.469351
      34A     -0.466230    35A     -0.450338    36A     -0.430148

  @DF-RHF Final Energy:  -422.95845290505866

   => Energetics <=

    Nuclear Repulsion Energy =            453.2077400367791711
    One-Electron Energy =               -1474.0226113217711372
    Two-Electron Energy =                 597.8564183799330749
    DFT Exchange-Correlation Energy =       0.0000000000000000
    Empirical Dispersion Energy =           0.0000000000000000
    PCM Polarization Energy =               0.0000000000000000
    EFP Energy =                            0.0000000000000000
    Total Energy =                       -422.9584529050589481

  Mulliken Charges: (a.u.)
   Center  Symbol    Alpha    Beta     Spin     Total
       1     O     4.26457  4.26457  0.00000 -0.52915
       2     C     2.61076  2.61076  0.00000  0.77848
       3     C     3.21071  3.21071  0.00000 -0.42141
       4     O     4.31146  4.31146  0.00000 -0.62292
       5     C     3.15356  3.15356  0.00000 -0.30713
       6     H     0.40700  0.40700  0.00000  0.18599
       7     H     0.39883  0.39883  0.00000  0.20233
       8     C     3.15303  3.15303  0.00000 -0.30605
       9     H     0.41303  0.41303  0.00000  0.17395
      10     H     0.41069  0.41069  0.00000  0.17863
      11     C     3.15151  3.15151  0.00000 -0.30303
      12     H     0.42505  0.42505  0.00000  0.14990
      13     H     0.42371  0.42371  0.00000  0.15259
      14     C     3.23957  3.23957  0.00000 -0.47914
      15     H     0.42162  0.42162  0.00000  0.15677
      16     H     0.42098  0.42098  0.00000  0.15805
      17     H     0.42212  0.42212  0.00000  0.15576
      18     H     0.41838  0.41838  0.00000  0.16325
      19     H     0.42167  0.42167  0.00000  0.15666
      20     C     3.09378  3.09378  0.00000 -0.18755
      21     H     0.42036  0.42036  0.00000  0.15927
      22     H     0.40311  0.40311  0.00000  0.19379
      23     H     0.40451  0.40451  0.00000  0.19098

   Total alpha = 36.00000, Total beta = 36.00000, Total charge = -0.00000
