  ==> Input File <==

--------------------------------------------------------------------------
set {
	reference rhf
	basis 6-31G*
}

set_num_threads( 1 )
memory 2 gb

molecule MOL {
0 1

O	 0.749854	 1.307668	 -0.000040
C	 0.576249	 0.131685	 -0.000108
C	 -0.766779	 -0.556801	 -0.000461
O	 1.568443	 -0.749345	 -0.000005
C	 -1.945214	 0.412366	 0.000161
H	 -0.796911	 -1.211249	 -0.867467
H	 -0.796854	 -1.212390	 0.865687
C	 -1.733879	 1.573009	 -0.970825
H	 -2.095272	 0.792866	 1.004802
H	 -2.851165	 -0.125532	 -0.257702
H	 -0.848003	 2.147351	 -0.714297
H	 -2.581654	 2.250082	 -0.954978
H	 -1.613411	 1.218877	 -1.990899
C	 2.886820	 -0.232538	 0.000322
H	 3.059106	 0.369571	 -0.880203
H	 3.540187	 -1.091012	 0.000050
H	 3.059019	 0.368956	 0.881266

	symmetry c1
}
set optking {
	frozen_dihedral = ("
		1 2 3 6,
		14 4 2 1
	")
}

ee = energy('scf')
oeprop('DIPOLE', 'QUADRUPOLE', 'MULLIKEN_CHARGES')
f=open( 'psi4out.xyz', 'w' )
f.write( "17  " )
f.write( str(ee) + "\n" )
f.write( MOL.save_string_xyz() )
f.close()
--------------------------------------------------------------------------

    Molecular point group: c1

    Geometry (in Angstrom), charge = 0, multiplicity = 1:

       Center              X                  Y                   Z               Mass
    ------------   -----------------  -----------------  -----------------  -----------------
           O          0.521111519291     1.029442453932     0.142886103350    15.994914619560
           C          0.347506519291    -0.146540546068     0.142818103350    12.000000000000
           C         -0.995521480709    -0.835026546068     0.142465103350    12.000000000000
           O          1.339700519291    -1.027570546068     0.142921103350    15.994914619560
           C         -2.173956480709     0.134140453932     0.143087103350    12.000000000000
           H         -1.025653480709    -1.489474546068    -0.724540896650     1.007825032070
           H         -1.025596480709    -1.490615546068     1.008613103350     1.007825032070
           C         -1.962621480709     1.294783453932    -0.827898896650    12.000000000000
           H         -2.324014480709     0.514640453932     1.147728103350     1.007825032070
           H         -3.079907480709    -0.403757546068    -0.114775896650     1.007825032070
           H         -1.076745480709     1.869125453932    -0.571370896650     1.007825032070
           H         -2.810396480709     1.971856453932    -0.812051896650     1.007825032070
           H         -1.842153480709     0.940651453932    -1.847972896650     1.007825032070
           C          2.658077519291    -0.510763546068     0.143248103350    12.000000000000
           H          2.830363519291     0.091345453932    -0.737276896650     1.007825032070
           H          3.311444519291    -1.369237546068     0.142976103350     1.007825032070
           H          2.830276519291     0.090730453932     1.024192103350     1.007825032070

  Charge       = 0
  Multiplicity = 1
  Basis Set: 6-31G*
  Basis Set:

    Orbital Energies (a.u.)
    -----------------------

    Doubly Occupied:

       1A    -20.606316     2A    -20.547196     3A    -11.376114
       4A    -11.282704     5A    -11.236346     6A    -11.220354
       7A    -11.190049     8A     -1.473030     9A     -1.368229
      10A     -1.078266    11A     -0.998393    12A     -0.933337
      13A     -0.826449    14A     -0.771263    15A     -0.699748
      16A     -0.684239    17A     -0.674284    18A     -0.626470
      19A     -0.614155    20A     -0.563481    21A     -0.556323
      22A     -0.531469    23A     -0.519459    24A     -0.503714
      25A     -0.478978    26A     -0.474028    27A     -0.458838
      28A     -0.420831

  @DF-RHF Final Energy:  -344.89424229027225

   => Energetics <=

    Nuclear Repulsion Energy =            322.2760279744053378
    One-Electron Energy =               -1108.9124109678480181
    Two-Electron Energy =                 441.7421407031711169
    DFT Exchange-Correlation Energy =       0.0000000000000000
    Empirical Dispersion Energy =           0.0000000000000000
    PCM Polarization Energy =               0.0000000000000000
    EFP Energy =                            0.0000000000000000
    Total Energy =                       -344.8942422902715634

  Mulliken Charges: (a.u.)
   Center  Symbol    Alpha    Beta     Spin     Total
       1     O     4.28803  4.28803  0.00000 -0.57605
       2     C     2.60261  2.60261  0.00000  0.79478
       3     C     3.20959  3.20959  0.00000 -0.41919
       4     O     4.30682  4.30682  0.00000 -0.61363
       5     C     3.15246  3.15246  0.00000 -0.30493
       6     H     0.39970  0.39970  0.00000  0.20060
       7     H     0.39808  0.39808  0.00000  0.20384
       8     C     3.25871  3.25871  0.00000 -0.51741
       9     H     0.41622  0.41622  0.00000  0.16757
      10     H     0.41716  0.41716  0.00000  0.16568
      11     H     0.37847  0.37847  0.00000  0.24306
      12     H     0.42453  0.42453  0.00000  0.15093
      13     H     0.42924  0.42924  0.00000  0.14152
      14     C     3.09268  3.09268  0.00000 -0.18537
      15     H     0.40894  0.40894  0.00000  0.18211
      16     H     0.40791  0.40791  0.00000  0.18418
      17     H     0.40884  0.40884  0.00000  0.18231

   Total alpha = 28.00000, Total beta = 28.00000, Total charge =  0.00000
