  ==> Input File <==

--------------------------------------------------------------------------
set {
	reference rhf
	basis cc-pvtz
}

set_num_threads( 4 )
memory 2 gb

molecule MOL {
0 1

H	 -3.436473	 1.252944	 -1.023892
O	 -3.458596	 0.315260	 -0.960865
C	 -3.176635	 -0.080824	 0.355601
C	 -1.763371	 0.265266	 0.799691
H	 -3.321825	 -1.153438	 0.379502
H	 -3.895468	 0.357385	 1.043382
C	 -0.673390	 -0.426948	 -0.013392
H	 -1.631049	 1.344913	 0.747560
H	 -1.664587	 -0.001624	 1.849167
C	 0.737842	 -0.043159	 0.423759
H	 -0.806103	 -0.190518	 -1.063345
H	 -0.797221	 -1.503753	 0.074146
C	 1.824000	 -0.743224	 -0.390623
H	 0.850588	 1.033777	 0.343840
H	 0.868587	 -0.286314	 1.476203
C	 3.255957	 -0.453067	 0.062319
H	 1.718250	 -0.470599	 -1.438164
H	 1.658105	 -1.815850	 -0.339904
C	 4.038417	 -1.678180	 0.529221
H	 3.219396	 0.265789	 0.875144
H	 3.796206	 0.032522	 -0.746232
H	 3.518797	 -2.188112	 1.334230
H	 5.016664	 -1.391762	 0.898327
H	 4.189793	 -2.392432	 -0.271114

	symmetry c1
}
set optking {
	frozen_dihedral = ("
		20 16 13 17
	")
}

ee = optimize('scf')
oeprop('DIPOLE', 'QUADRUPOLE', 'MULLIKEN_CHARGES')
f=open( 'psi4out.xyz', 'w' )
f.write( "24  " )
f.write( str(ee) + "\n" )
f.write( MOL.save_string_xyz() )
f.close()
--------------------------------------------------------------------------

    Molecular point group: c1
  Charge       = 0
  Multiplicity = 1
  Basis Set: CC-PVTZ
  Basis Set:
  @DF-RHF Final Energy:  -349.37608300920715
    Total Energy =                       -349.3760830092072638
    Molecular point group: c1
  Basis Set: CC-PVTZ
  Basis Set:
  Basis Set: CC-PVTZ
  Basis Set:
  @DF-RHF Final Energy:  -349.37650579325657
    Total Energy =                       -349.3765057932567970
  Basis Set: CC-PVTZ
  Basis Set:
  Basis Set: CC-PVTZ
  Basis Set:
  @DF-RHF Final Energy:  -349.37656516983151
    Total Energy =                       -349.3765651698320198
  Basis Set: CC-PVTZ
  Basis Set:
  Charge       = 0
  Multiplicity = 1
  Basis Set: CC-PVTZ
  Basis Set:

    Orbital Energies (a.u.)
    -----------------------

    Doubly Occupied:

       1A    -20.546338     2A    -11.265576     3A    -11.215295
       4A    -11.211376     5A    -11.211107     6A    -11.208930
       7A    -11.208830     8A    -11.205898     9A     -1.364190
      10A     -1.088802    11A     -1.048690    12A     -0.988690
      13A     -0.914457    14A     -0.844285    15A     -0.799293
      16A     -0.787418    17A     -0.681734    18A     -0.655550
      19A     -0.627327    20A     -0.616784    21A     -0.596437
      22A     -0.587030    23A     -0.556506    24A     -0.537686
      25A     -0.525877    26A     -0.508156    27A     -0.494493
      28A     -0.473583    29A     -0.466533    30A     -0.460825
      31A     -0.457009    32A     -0.452142    33A     -0.420256

  @DF-RHF Final Energy:  -349.37656427954022

   => Energetics <=

    Nuclear Repulsion Energy =            381.7374760387951369
    One-Electron Energy =               -1230.1738635568685822
    Two-Electron Energy =                 499.0598232385332267
    DFT Exchange-Correlation Energy =       0.0000000000000000
    Empirical Dispersion Energy =           0.0000000000000000
    PCM Polarization Energy =               0.0000000000000000
    EFP Energy =                            0.0000000000000000
    Total Energy =                       -349.3765642795401618
    Molecular point group: c1
  Basis Set: CC-PVTZ
  Basis Set:

  -Total Gradient:
     Atom            X                  Y                   Z
    ------   -----------------  -----------------  -----------------
       1       -0.000000255032     0.000000502453    -0.000001341972
       2       -0.000010487111     0.000004463105    -0.000005033215
       3        0.000004564736     0.000008906867    -0.000009765547
       4       -0.000006217324     0.000043821209    -0.000051601006
       5        0.000003070407    -0.000002012719     0.000003328736
       6       -0.000000635536    -0.000000831694     0.000001977238
       7       -0.000036046623     0.000063334701     0.000004047872
       8       -0.000001600471     0.000014097265     0.000016322798
       9        0.000011909373    -0.000015745416    -0.000021798249
      10       -0.000024689751    -0.000085873469     0.000151209035
      11       -0.000013041677    -0.000024144799    -0.000012624047
      12        0.000031962790     0.000014238897     0.000032965230
      13        0.000129550105    -0.000158579109    -0.000090533990
      14        0.000037146639     0.000037815462     0.000070987441
      15       -0.000047332655    -0.000026075134     0.000003871161
      16       -0.000056586241     0.000099322009    -0.000100144732
      17        0.000015773614     0.000086529787     0.000018071668
      18        0.000146370415     0.000010858847     0.000070483002
      19       -0.000009193320    -0.000114939250     0.000069936906
      20       -0.000134445104     0.000111236046    -0.000140596454
      21       -0.000033559124     0.000009335115     0.000002046197
      22        0.000011847890    -0.000051835666    -0.000013413300
      23       -0.000006353857    -0.000001421314     0.000027978196
      24       -0.000011752144    -0.000023003191    -0.000026372971

  **** Optimization is complete! (in 4 steps) ****
    Final optimized geometry and variables:
    Molecular point group: c1

    Geometry (in Angstrom), charge = 0, multiplicity = 1:

    H           -3.450602781213     1.644090652489    -1.104073443037
    O           -3.491052490572     0.706226747901    -1.054505190534
    C           -3.225361629627     0.286525549747     0.257931375295
    C           -1.808484901275     0.598741628125     0.715479938231
    H           -3.391527300419    -0.783286554012     0.265589623148
    H           -3.940038813888     0.728912326344     0.947375297009
    C           -0.726805757173    -0.101913631837    -0.101556696330
    H           -1.655128665821     1.676299590818     0.680474208690
    H           -1.721256357588     0.314282206491     1.761325199345
    C            0.688079995091     0.249129118262     0.347843925635
    H           -0.849542794850     0.151251818281    -1.148845079937
    H           -0.870426336596    -1.177527349587    -0.029655240880
    C            1.774575401367    -0.449430936709    -0.467402173841
    H            0.830067475042     1.325483215741     0.281385083176
    H            0.809617464677    -0.007219545607     1.398240807394
    C            3.207568467007    -0.090980102302    -0.022981614276
    H            1.639305077151    -0.201329930862    -1.515265850673
    H            1.630388491087    -1.523461424353    -0.395292838743
    C            4.020383879856    -1.295802968705     0.443294809766
    H            3.165580284899     0.637236802921     0.780787955448
    H            3.734956525673     0.395894360253    -0.836128093312
    H            3.538509478508    -1.791093498747     1.280159489043
    H            5.015019526827    -1.002349147842     0.759982921596
    H            4.127308806098    -2.025623093832    -0.352358626055

  Mulliken Charges: (a.u.)
   Center  Symbol    Alpha    Beta     Spin     Total
       1     H     0.39532  0.39532  0.00000  0.20937
       2     O     4.20369  4.20369  0.00000 -0.40737
       3     C     2.97769  2.97769  0.00000  0.04462
       4     C     3.10210  3.10210  0.00000 -0.20421
       5     H     0.45890  0.45890  0.00000  0.08220
       6     H     0.46025  0.46025  0.00000  0.07949
       7     C     3.08875  3.08875  0.00000 -0.17750
       8     H     0.45909  0.45909  0.00000  0.08182
       9     H     0.45334  0.45334  0.00000  0.09332
      10     C     3.08953  3.08953  0.00000 -0.17905
      11     H     0.44654  0.44654  0.00000  0.10692
      12     H     0.45500  0.45500  0.00000  0.08999
      13     C     3.09402  3.09402  0.00000 -0.18804
      14     H     0.45440  0.45440  0.00000  0.09120
      15     H     0.45548  0.45548  0.00000  0.08903
      16     C     3.08931  3.08931  0.00000 -0.17862
      17     H     0.44940  0.44940  0.00000  0.10119
      18     H     0.45448  0.45448  0.00000  0.09105
      19     C     3.14723  3.14723  0.00000 -0.29446
      20     H     0.45504  0.45504  0.00000  0.08991
      21     H     0.45014  0.45014  0.00000  0.09973
      22     H     0.45584  0.45584  0.00000  0.08831
      23     H     0.45000  0.45000  0.00000  0.09999
      24     H     0.45445  0.45445  0.00000  0.09110

   Total alpha = 33.00000, Total beta = 33.00000, Total charge = -0.00000
