                              Psi4 1.0.54 Driver

  ==> Input File <==

--------------------------------------------------------------------------
set {
	reference rhf
	basis cc-pvtz
}

set_num_threads( 4 )
memory 2 gb

molecule MOL {
0 1

H	 -2.682488	 -1.627643	 3.046010
C	 -2.565272	 -1.207435	 2.068261
C	 -1.406678	 -1.297159	 1.462491
H	 -3.404444	 -0.723592	 1.608384
O	 -1.189946	 -0.765863	 0.237511
H	 -0.561569	 -1.787205	 1.910566
C	 0.026572	 -0.995256	 -0.379403
C	 1.057223	 0.049888	 -0.004615
H	 -0.054361	 -1.010670	 -1.459674
H	 0.397526	 -1.952058	 -0.044198
F	 2.203233	 -0.234060	 -0.590375
F	 0.698147	 1.254887	 -0.392621
F	 1.266440	 0.094219	 1.288722

	symmetry c1
}
set optking {
	frozen_dihedral = ("
		3 5 7 9
	")
}

ee,wfn = optimize('scf', return_wfn=True)
oeprop( wfn, 'DIPOLE', 'QUADRUPOLE', 'MULLIKEN_CHARGES')
f=open( 'psi4out.xyz', 'w' )
f.write( "13  " )
f.write( str(ee) + "\n" )
f.write( MOL.save_string_xyz() )
f.close()
--------------------------------------------------------------------------

    Molecular point group: c1
  Charge       = 0
  Multiplicity = 1
  Basis Set: CC-PVTZ
  Basis Set:
  @DF-RHF Final Energy:  -527.74045030838215
    Total Energy =                       -527.7404503083819236
    Molecular point group: c1
  Basis Set: CC-PVTZ
  Basis Set:
  Basis Set: CC-PVTZ
  Basis Set:
  @DF-RHF Final Energy:  -527.74167559491832
    Total Energy =                       -527.7416755949184335
  Basis Set: CC-PVTZ
  Basis Set:
  Basis Set: CC-PVTZ
  Basis Set:
  @DF-RHF Final Energy:  -527.74203277577260
    Total Energy =                       -527.7420327757730547
  Basis Set: CC-PVTZ
  Basis Set:
  Basis Set: CC-PVTZ
  Basis Set:
  @DF-RHF Final Energy:  -527.74205540574542
    Total Energy =                       -527.7420554057454183
  Basis Set: CC-PVTZ
  Basis Set:
  @DF-RHF Final Energy:  -527.74206832937932
    Total Energy =                       -527.7420683293792081
  Basis Set: CC-PVTZ
  Basis Set:
  @DF-RHF Final Energy:  -527.74207486006412
    Total Energy =                       -527.7420748600642355
  Basis Set: CC-PVTZ
  Basis Set:
  Basis Set: CC-PVTZ
  Basis Set:
  @DF-RHF Final Energy:  -527.74207834173239
    Total Energy =                       -527.7420783417328494
  Basis Set: CC-PVTZ
  Basis Set:
  Basis Set: CC-PVTZ
  Basis Set:
  @DF-RHF Final Energy:  -527.74207961849049
    Total Energy =                       -527.7420796184903793
  Basis Set: CC-PVTZ
  Basis Set:
  Charge       = 0
  Multiplicity = 1
  Basis Set: CC-PVTZ
  Basis Set:

    Orbital Energies (a.u.)
    -----------------------

    Doubly Occupied:

       1A    -26.341841     2A    -26.340564     3A    -26.338013
       4A    -20.604145     5A    -11.497830     6A    -11.320188
       7A    -11.298821     8A    -11.213866     9A     -1.750460
      10A     -1.646979    11A     -1.645360    12A     -1.444774
      13A     -1.088367    14A     -1.020633    15A     -0.932277
      16A     -0.844008    17A     -0.839643    18A     -0.826834
      19A     -0.798631    20A     -0.729057    21A     -0.719283
      22A     -0.704118    23A     -0.681829    24A     -0.668082
      25A     -0.661573    26A     -0.650926    27A     -0.640469
      28A     -0.588021    29A     -0.566349    30A     -0.529331
      31A     -0.518630    32A     -0.356604

  @DF-RHF Final Energy:  -527.74207973788339

   => Energetics <=

    Nuclear Repulsion Energy =            413.3449355223873454
    One-Electron Energy =               -1550.5590202594337370
    Two-Electron Energy =                 609.4720049991628912
    DFT Exchange-Correlation Energy =       0.0000000000000000
    Empirical Dispersion Energy =           0.0000000000000000
    PCM Polarization Energy =               0.0000000000000000
    EFP Energy =                            0.0000000000000000
    Total Energy =                       -527.7420797378836141
    Molecular point group: c1
  Basis Set: CC-PVTZ
  Basis Set:

  -Total Gradient:
     Atom            X                  Y                   Z
    ------   -----------------  -----------------  -----------------
       1        0.000002060543    -0.000000515711     0.000000197915
       2       -0.000012484876    -0.000000503967     0.000007908894
       3       -0.000061682340    -0.000101757652    -0.000051715215
       4       -0.000000373140     0.000002826088    -0.000001682943
       5        0.000071771927     0.000105173734     0.000078071541
       6        0.000003771561    -0.000000940423    -0.000000776662
       7        0.000001565798     0.000136679427    -0.000021901105
       8        0.000002708572    -0.000035849451     0.000077119219
       9       -0.000019117443    -0.000135421344    -0.000001673348
      10        0.000008289337    -0.000002859752    -0.000005549523
      11        0.000012679635    -0.000011754678    -0.000007211750
      12       -0.000018221836     0.000047186362    -0.000023666348
      13        0.000009032263    -0.000002262632    -0.000049120678

  **** Optimization is complete! (in 9 steps) ****
    Final optimized geometry and variables:
    Molecular point group: c1

    Geometry (in Angstrom), charge = 0, multiplicity = 1:

    H           -2.912887489931    -1.113463114575     2.634279438250
    C           -2.729437723721    -0.652883488713     1.685317020928
    C           -1.634030161912    -0.945224473024     1.027913457643
    H           -3.449772549028     0.040666920728     1.298113956582
    O           -1.355371912260    -0.411995393363    -0.183390427298
    H           -0.901672849678    -1.632280000721     1.410980714378
    C           -0.140879856474    -0.707656631067    -0.775584350079
    C            0.921012734380     0.313914108719    -0.424282939131
    H           -0.273910268556    -0.684707145570    -1.846733176367
    H            0.230575852498    -1.684791398996    -0.491148180042
    F            2.046982103029     0.005117432664    -1.035714085491
    F            0.581468002407     1.525060027141    -0.793825979922
    F            1.163654277936     0.343996910478     0.868614314949

  Mulliken Charges: (a.u.)
   Center  Symbol    Alpha    Beta     Spin     Total
       1     H     0.42513  0.42513  0.00000  0.14973
       2     C     3.19769  3.19769  0.00000 -0.39538
       3     C     2.95864  2.95864  0.00000  0.08271
       4     H     0.42477  0.42477  0.00000  0.15046
       5     O     4.14447  4.14447  0.00000 -0.28893
       6     H     0.43455  0.43455  0.00000  0.13091
       7     C     3.01885  3.01885  0.00000 -0.03770
       8     C     2.67543  2.67543  0.00000  0.64914
       9     H     0.43530  0.43530  0.00000  0.12940
      10     H     0.45539  0.45539  0.00000  0.08921
      11     F     4.61261  4.61261  0.00000 -0.22523
      12     F     4.60677  4.60677  0.00000 -0.21355
      13     F     4.61039  4.61039  0.00000 -0.22078

   Total alpha = 32.00000, Total beta = 32.00000, Total charge = -0.00000

*** Psi4 exiting successfully. Buy a developer a beer!
