  ==> Input File <==

--------------------------------------------------------------------------
set {
	reference rhf
	basis 6-31G*
}

set_num_threads( 1 )
memory 2 gb

molecule MOL {
0 1

H	 3.729822	 -0.883334	 0.239645
O	 2.826016	 -1.159218	 0.122261
C	 2.077727	 -0.067559	 -0.035091
C	 0.624473	 -0.343591	 0.253101
O	 2.542965	 0.974826	 -0.363729
C	 -0.265902	 0.883932	 0.072916
H	 0.324016	 -1.163849	 -0.390541
H	 0.565024	 -0.726111	 1.268924
C	 -1.728698	 0.646073	 0.462102
H	 -0.209144	 1.219470	 -0.958188
H	 0.135059	 1.692851	 0.673903
C	 -2.482460	 -0.343073	 -0.431425
H	 -2.245265	 1.602650	 0.432430
H	 -1.779332	 0.308348	 1.496285
C	 -3.960546	 -0.461025	 -0.060175
H	 -2.395034	 -0.026811	 -1.468912
H	 -2.024850	 -1.327147	 -0.371646
H	 -4.472726	 -1.168004	 -0.705284
H	 -4.465146	 0.496508	 -0.151489
H	 -4.081218	 -0.800940	 0.964585

	symmetry c1
}
set optking {
	frozen_dihedral = ("
		16 12 9 6,
		7 4 6 10,
		12 9 6 10,
		5 3 4 7
	")
}

ee = energy('scf')
oeprop('DIPOLE', 'QUADRUPOLE', 'MULLIKEN_CHARGES')
f=open( 'psi4out.xyz', 'w' )
f.write( "20  " )
f.write( str(ee) + "\n" )
f.write( MOL.save_string_xyz() )
f.close()
--------------------------------------------------------------------------

    Molecular point group: c1

    Geometry (in Angstrom), charge = 0, multiplicity = 1:

       Center              X                  Y                   Z               Mass
    ------------   -----------------  -----------------  -----------------  -----------------
           H          3.729819100512    -0.883724283731     0.236951724318     1.007825032070
           O          2.826013100512    -1.159608283731     0.119567724318    15.994914619560
           C          2.077724100512    -0.067949283731    -0.037784275682    12.000000000000
           C          0.624470100512    -0.343981283731     0.250407724318    12.000000000000
           O          2.542962100512     0.974435716269    -0.366422275682    15.994914619560
           C         -0.265904899488     0.883541716269     0.070222724318    12.000000000000
           H          0.324013100512    -1.164239283731    -0.393234275682     1.007825032070
           H          0.565021100512    -0.726501283731     1.266230724318     1.007825032070
           C         -1.728700899488     0.645682716269     0.459408724318    12.000000000000
           H         -0.209146899488     1.219079716269    -0.960881275682     1.007825032070
           H          0.135056100512     1.692460716269     0.671209724318     1.007825032070
           C         -2.482462899488    -0.343463283731    -0.434118275682    12.000000000000
           H         -2.245267899488     1.602259716269     0.429736724318     1.007825032070
           H         -1.779334899488     0.307957716269     1.493591724318     1.007825032070
           C         -3.960548899488    -0.461415283731    -0.062868275682    12.000000000000
           H         -2.395036899488    -0.027201283731    -1.471605275682     1.007825032070
           H         -2.024852899488    -1.327537283731    -0.374339275682     1.007825032070
           H         -4.472728899488    -1.168394283731    -0.707977275682     1.007825032070
           H         -4.465148899488     0.496117716269    -0.154182275682     1.007825032070
           H         -4.081220899488    -0.801330283731     0.961891724318     1.007825032070

  Charge       = 0
  Multiplicity = 1
  Basis Set: 6-31G*
  Basis Set:

    Orbital Energies (a.u.)
    -----------------------

    Doubly Occupied:

       1A    -20.610917     2A    -20.552231     3A    -11.381027
       4A    -11.240099     5A    -11.222789     6A    -11.220633
       7A    -11.220039     8A    -11.212344     9A     -1.473997
      10A     -1.365747    11A     -1.096102    12A     -1.040764
      13A     -0.960942    14A     -0.868540    15A     -0.816095
      16A     -0.777286    17A     -0.700679    18A     -0.689583
      19A     -0.662448    20A     -0.638073    21A     -0.603677
      22A     -0.589873    23A     -0.577331    24A     -0.556153
      25A     -0.536013    26A     -0.514085    27A     -0.494847
      28A     -0.481551    29A     -0.470205    30A     -0.466447
      31A     -0.457287    32A     -0.443524

  @DF-RHF Final Energy:  -383.94622509894259

   => Energetics <=

    Nuclear Repulsion Energy =            375.9110476972153947
    One-Electron Energy =               -1267.8319004573841084
    Two-Electron Energy =                 507.9746276612260090
    DFT Exchange-Correlation Energy =       0.0000000000000000
    Empirical Dispersion Energy =           0.0000000000000000
    PCM Polarization Energy =               0.0000000000000000
    EFP Energy =                            0.0000000000000000
    Total Energy =                       -383.9462250989427048

  Mulliken Charges: (a.u.)
   Center  Symbol    Alpha    Beta     Spin     Total
       1     H     0.26742  0.26742  0.00000  0.46516
       2     O     4.35229  4.35229  0.00000 -0.70458
       3     C     2.62364  2.62364  0.00000  0.75273
       4     C     3.21270  3.21270  0.00000 -0.42541
       5     O     4.27667  4.27667  0.00000 -0.55333
       6     C     3.15449  3.15449  0.00000 -0.30897
       7     H     0.39652  0.39652  0.00000  0.20695
       8     H     0.40007  0.40007  0.00000  0.19985
       9     C     3.15550  3.15550  0.00000 -0.31100
      10     H     0.41192  0.41192  0.00000  0.17615
      11     H     0.40849  0.40849  0.00000  0.18302
      12     C     3.15485  3.15485  0.00000 -0.30969
      13     H     0.41790  0.41790  0.00000  0.16419
      14     H     0.42393  0.42393  0.00000  0.15213
      15     C     3.23923  3.23923  0.00000 -0.47846
      16     H     0.42131  0.42131  0.00000  0.15739
      17     H     0.42271  0.42271  0.00000  0.15457
      18     H     0.41829  0.41829  0.00000  0.16343
      19     H     0.42066  0.42066  0.00000  0.15869
      20     H     0.42141  0.42141  0.00000  0.15718

   Total alpha = 32.00000, Total beta = 32.00000, Total charge =  0.00000
