  ==> Input File <==

--------------------------------------------------------------------------
set {
	reference rhf
	basis 6-31G*
}

set_num_threads( 4 )
memory 2 gb

molecule MOL {
0 1

H	 3.729471	 -0.928294	 -0.070608
O	 2.826016	 -1.159218	 0.122261
C	 2.077727	 -0.067559	 -0.035091
C	 0.624473	 -0.343591	 0.253101
O	 2.542965	 0.974826	 -0.363729
C	 -0.265902	 0.883932	 0.072916
H	 0.324016	 -1.163849	 -0.390541
H	 0.565024	 -0.726111	 1.268924
C	 -1.728698	 0.646073	 0.462102
H	 -0.209144	 1.219470	 -0.958188
H	 0.135059	 1.692851	 0.673903
C	 -2.587056	 -0.011759	 -0.622072
H	 -2.169986	 1.606618	 0.717798
H	 -1.770283	 0.044496	 1.369038
C	 -4.056368	 -0.128607	 -0.217168
H	 -2.510594	 0.567687	 -1.539918
H	 -2.205629	 -1.003001	 -0.853013
H	 -4.643623	 -0.598774	 -0.999720
H	 -4.487752	 0.848794	 -0.021151
H	 -4.168229	 -0.725127	 0.683881

	symmetry c1
}
set optking {
	frozen_dihedral = ("
		12 9 6 10
	")
}

ee = optimize('scf')
oeprop('DIPOLE', 'QUADRUPOLE', 'MULLIKEN_CHARGES')
f=open( 'psi4out.xyz', 'w' )
f.write( "20  " )
f.write( str(ee) + "\n" )
f.write( MOL.save_string_xyz() )
f.close()
--------------------------------------------------------------------------

    Molecular point group: c1
  Charge       = 0
  Multiplicity = 1
  Basis Set: 6-31G*
  Basis Set:
  @DF-RHF Final Energy:  -383.94774617383746
    Total Energy =                       -383.9477461738373449
    Molecular point group: c1
  Basis Set: 6-31G*
  Basis Set:
  Basis Set: 6-31G*
  Basis Set:
  @DF-RHF Final Energy:  -383.94797657711604
    Total Energy =                       -383.9479765771162079
  Basis Set: 6-31G*
  Basis Set:
  Basis Set: 6-31G*
  Basis Set:
  @DF-RHF Final Energy:  -383.94797596087113
    Total Energy =                       -383.9479759608705081
  Basis Set: 6-31G*
  Basis Set:
  Basis Set: 6-31G*
  Basis Set:
  @DF-RHF Final Energy:  -383.94802610676192
    Total Energy =                       -383.9480261067618585
  Basis Set: 6-31G*
  Basis Set:
  Basis Set: 6-31G*
  Basis Set:
  @DF-RHF Final Energy:  -383.94805106908763
    Total Energy =                       -383.9480510690880237
  Basis Set: 6-31G*
  Basis Set:
  Basis Set: 6-31G*
  Basis Set:
  @DF-RHF Final Energy:  -383.94805584946170
    Total Energy =                       -383.9480558494620936
  Basis Set: 6-31G*
  Basis Set:
  Basis Set: 6-31G*
  Basis Set:
  @DF-RHF Final Energy:  -383.94805774983962
    Total Energy =                       -383.9480577498392790
  Basis Set: 6-31G*
  Basis Set:
  Charge       = 0
  Multiplicity = 1
  Basis Set: 6-31G*
  Basis Set:

    Orbital Energies (a.u.)
    -----------------------

    Doubly Occupied:

       1A    -20.612505     2A    -20.551597     3A    -11.381064
       4A    -11.240277     5A    -11.222954     6A    -11.220577
       7A    -11.219988     8A    -11.212181     9A     -1.474541
      10A     -1.365596    11A     -1.095869    12A     -1.041263
      13A     -0.960328    14A     -0.868719    15A     -0.813018
      16A     -0.781143    17A     -0.699476    18A     -0.689978
      19A     -0.663178    20A     -0.634706    21A     -0.605250
      22A     -0.593156    23A     -0.573771    24A     -0.556040
      25A     -0.540817    26A     -0.509480    27A     -0.496735
      28A     -0.479229    29A     -0.472294    30A     -0.467526
      31A     -0.456890    32A     -0.443164

  @DF-RHF Final Energy:  -383.94805788454187

   => Energetics <=

    Nuclear Repulsion Energy =            375.3830307970838476
    One-Electron Energy =               -1266.7755566510063545
    Two-Electron Energy =                 507.4444679693808098
    DFT Exchange-Correlation Energy =       0.0000000000000000
    Empirical Dispersion Energy =           0.0000000000000000
    PCM Polarization Energy =               0.0000000000000000
    EFP Energy =                            0.0000000000000000
    Total Energy =                       -383.9480578845416971
    Molecular point group: c1
  Basis Set: 6-31G*
  Basis Set:

  -Total Gradient:
     Atom            X                  Y                   Z
    ------   -----------------  -----------------  -----------------
       1       -0.000002017851     0.000001839482     0.000000955184
       2       -0.000001243155    -0.000000007990     0.000004372428
       3       -0.000005918096    -0.000017354698    -0.000024834710
       4        0.000014250946    -0.000008402017     0.000005685323
       5        0.000000695059     0.000009472635     0.000013985857
       6       -0.000400932764     0.003432209327     0.000593924070
       7        0.000009003862     0.000007563131     0.000008010187
       8        0.000002409491    -0.000000214045     0.000007787252
       9        0.000623662485    -0.002725844376     0.000745162558
      10        0.000178150156    -0.002257183403    -0.000687765859
      11       -0.000003327406    -0.000003571315    -0.000002522657
      12       -0.000412950564     0.001562052282    -0.000655229661
      13        0.000002904054     0.000004028532    -0.000001568445
      14        0.000009969114     0.000003438888    -0.000001774261
      15        0.000000263741    -0.000013521416    -0.000001993776
      16       -0.000004027124     0.000002657872    -0.000008887562
      17       -0.000013391971     0.000009071049     0.000002235759
      18       -0.000002304109     0.000001565861     0.000000478508
      19        0.000010398126    -0.000002567933    -0.000002639188
      20       -0.000005593995    -0.000005231864     0.000004618994

  **** Optimization is complete! (in 8 steps) ****
    Final optimized geometry and variables:
    Molecular point group: c1

    Geometry (in Angstrom), charge = 0, multiplicity = 1:

    H            3.698517990289    -1.092822411493    -0.085199892151
    O            2.799163625464    -1.283853891729     0.162645595787
    C            2.077523282910    -0.177492050535    -0.014869321458
    C            0.632741265916    -0.389291331264     0.356952392300
    O            2.557332398161     0.831482730827    -0.418512026499
    C           -0.228226113052     0.859163649458     0.168902535656
    H            0.269183116778    -1.223860427772    -0.234984538887
    H            0.612609219238    -0.727833843903     1.389371434477
    C           -1.701458358656     0.625686403362     0.531164448252
    H           -0.149686921484     1.179999172565    -0.864826870632
    H            0.182322968848     1.659119701471     0.774486573767
    C           -2.519131127924    -0.048561089090    -0.574311605454
    H           -2.160602161061     1.586057552616     0.753515889727
    H           -1.769425624951     0.042032420624     1.447624973266
    C           -3.979342797435    -0.267632315709    -0.180195036546
    H           -2.474726443017     0.565957364100    -1.470425891636
    H           -2.075296761713    -1.005755305242    -0.839001573967
    H           -4.538437797336    -0.733206015637    -0.985775067667
    H           -4.465597386999     0.673841945032     0.059105234288
    H           -4.058356724340    -0.910473421378     0.691974824878

  Mulliken Charges: (a.u.)
   Center  Symbol    Alpha    Beta     Spin     Total
       1     H     0.26787  0.26787  0.00000  0.46425
       2     O     4.35149  4.35149  0.00000 -0.70299
       3     C     2.62261  2.62261  0.00000  0.75479
       4     C     3.21219  3.21219  0.00000 -0.42439
       5     O     4.27937  4.27937  0.00000 -0.55874
       6     C     3.15495  3.15495  0.00000 -0.30991
       7     H     0.39781  0.39781  0.00000  0.20438
       8     H     0.39872  0.39872  0.00000  0.20255
       9     C     3.15686  3.15686  0.00000 -0.31371
      10     H     0.41046  0.41046  0.00000  0.17909
      11     H     0.40871  0.40871  0.00000  0.18258
      12     C     3.15347  3.15347  0.00000 -0.30693
      13     H     0.41774  0.41774  0.00000  0.16451
      14     H     0.42357  0.42357  0.00000  0.15286
      15     C     3.23950  3.23950  0.00000 -0.47901
      16     H     0.42028  0.42028  0.00000  0.15943
      17     H     0.42393  0.42393  0.00000  0.15215
      18     H     0.41826  0.41826  0.00000  0.16348
      19     H     0.42075  0.42075  0.00000  0.15849
      20     H     0.42145  0.42145  0.00000  0.15710

   Total alpha = 32.00000, Total beta = 32.00000, Total charge = -0.00000
