  ==> Input File <==

--------------------------------------------------------------------------
set {
	reference rhf
	basis 6-31G*
}

set_num_threads( 4 )
memory 2 gb

molecule MOL {
0 1

H	 3.463771	 0.168298	 -0.756243
C	 2.752674	 -0.045734	 0.033351
C	 1.322923	 0.120767	 -0.479465
H	 2.934561	 -1.059086	 0.377456
H	 2.958358	 0.631174	 0.856809
C	 0.306652	 -0.176050	 0.621399
H	 1.144658	 -0.551717	 -1.312180
H	 1.166477	 1.131798	 -0.836680
N	 -1.068537	 -0.011044	 0.085269
H	 0.372515	 -1.192590	 0.973735
H	 0.391664	 0.520566	 1.441230
O	 -1.929890	 -0.683816	 0.561526
O	 -1.210393	 0.763964	 -0.810981

	symmetry c1
}
set optking {
	frozen_dihedral = ("
		12 9 6 3
	")
}

ee = optimize('scf')
oeprop('DIPOLE', 'QUADRUPOLE', 'MULLIKEN_CHARGES')
f=open( 'psi4out.xyz', 'w' )
f.write( "13  " )
f.write( str(ee) + "\n" )
f.write( MOL.save_string_xyz() )
f.close()
--------------------------------------------------------------------------

    Molecular point group: c1
  Charge       = 0
  Multiplicity = 1
  Basis Set: 6-31G*
  Basis Set:
  @DF-RHF Final Energy:  -321.73369826832743
    Total Energy =                       -321.7336982683275437
    Molecular point group: c1
  Basis Set: 6-31G*
  Basis Set:
  Basis Set: 6-31G*
  Basis Set:
  @DF-RHF Final Energy:  -321.73119446204737
    Total Energy =                       -321.7311944620474833
  Basis Set: 6-31G*
  Basis Set:
  Basis Set: 6-31G*
  Basis Set:
  @DF-RHF Final Energy:  -321.73109245378998
    Total Energy =                       -321.7310924537896994
  Basis Set: 6-31G*
  Basis Set:
  Basis Set: 6-31G*
  Basis Set:
  @DF-RHF Final Energy:  -321.73475087166122
    Total Energy =                       -321.7347508716612765
  Basis Set: 6-31G*
  Basis Set:
  @DF-RHF Final Energy:  -321.73309486318283
    Total Energy =                       -321.7330948631829415
  Basis Set: 6-31G*
  Basis Set:
  @DF-RHF Final Energy:  -321.73512756505357
    Total Energy =                       -321.7351275650535740
  Basis Set: 6-31G*
  Basis Set:
  Basis Set: 6-31G*
  Basis Set:
  @DF-RHF Final Energy:  -321.73516623561420
    Total Energy =                       -321.7351662356142015
  Basis Set: 6-31G*
  Basis Set:
  Basis Set: 6-31G*
  Basis Set:
  @DF-RHF Final Energy:  -321.73516819166116
    Total Energy =                       -321.7351681916613302
  Basis Set: 6-31G*
  Basis Set:
  Charge       = 0
  Multiplicity = 1
  Basis Set: 6-31G*
  Basis Set:

    Orbital Energies (a.u.)
    -----------------------

    Doubly Occupied:

       1A    -20.601931     2A    -20.600881     3A    -15.848469
       4A    -11.300733     5A    -11.251129     6A    -11.237942
       7A     -1.631792     8A     -1.417052     9A     -1.133312
      10A     -1.027591    11A     -0.884646    12A     -0.827384
      13A     -0.760582    14A     -0.744864    15A     -0.725436
      16A     -0.660513    17A     -0.606542    18A     -0.580298
      19A     -0.551733    20A     -0.522913    21A     -0.510416
      22A     -0.484521    23A     -0.473158    24A     -0.449350

  @DF-RHF Final Energy:  -321.73516846330830

   => Energetics <=

    Nuclear Repulsion Energy =            247.0613170190520691
    One-Electron Energy =                -927.9265891451432253
    Two-Electron Energy =                 359.1301036627828012
    DFT Exchange-Correlation Energy =       0.0000000000000000
    Empirical Dispersion Energy =           0.0000000000000000
    PCM Polarization Energy =               0.0000000000000000
    EFP Energy =                            0.0000000000000000
    Total Energy =                       -321.7351684633084119
    Molecular point group: c1
  Basis Set: 6-31G*
  Basis Set:

  -Total Gradient:
     Atom            X                  Y                   Z
    ------   -----------------  -----------------  -----------------
       1       -0.000002902220    -0.000004878505    -0.000006032756
       2       -0.000009505514    -0.000011551664    -0.000006670690
       3        0.000007058683     0.000267386496     0.000098568010
       4       -0.000010211187     0.000001843980     0.000005683140
       5       -0.000001797639     0.000004587012    -0.000006589164
       6       -0.000012356692    -0.000302045404     0.000006642788
       7       -0.000011887484    -0.000006020592     0.000011358783
       8        0.000011175970     0.000025131989    -0.000001494140
       9        0.000080066678    -0.000209311590    -0.000312552745
      10        0.000034705227    -0.000004979638     0.000026358911
      11        0.000004436888    -0.000005820034    -0.000037359312
      12       -0.000077897895     0.000203508040     0.000251359855
      13       -0.000010884815     0.000042149908    -0.000029272680

  **** Optimization is complete! (in 9 steps) ****
    Final optimized geometry and variables:
    Molecular point group: c1

    Geometry (in Angstrom), charge = 0, multiplicity = 1:

    H            3.505713861491     0.154388750551    -0.737962694356
    C            2.773241666227    -0.051282655277     0.034085061677
    C            1.357760509100     0.137201637067    -0.512961786099
    H            2.935426215373    -1.067015137127     0.381632812876
    H            2.970659558301     0.621307725476     0.863529719064
    C            0.324507749379    -0.151983920098     0.564568747387
    H            1.193937612566    -0.527964978897    -1.354336518321
    H            1.225614531865     1.147042391811    -0.876784405100
    N           -1.077132955501    -0.017249577169     0.076530368405
    H            0.392553770854    -1.153146011430     0.959004994518
    H            0.393359972958     0.549545561385     1.386806100566
    O           -1.894635529358    -0.709137967181     0.600416194049
    O           -1.300063776875     0.791184452887    -0.770890439853

  Mulliken Charges: (a.u.)
   Center  Symbol    Alpha    Beta     Spin     Total
       1     H     0.40755  0.40755  0.00000  0.18491
       2     C     3.24971  3.24971  0.00000 -0.49942
       3     C     3.16790  3.16790  0.00000 -0.33580
       4     H     0.41596  0.41596  0.00000  0.16808
       5     H     0.41620  0.41620  0.00000  0.16761
       6     C     3.08861  3.08861  0.00000 -0.17722
       7     H     0.40574  0.40574  0.00000  0.18853
       8     H     0.39554  0.39554  0.00000  0.20891
       9     N     3.22312  3.22312  0.00000  0.55376
      10     H     0.38597  0.38597  0.00000  0.22805
      11     H     0.38591  0.38591  0.00000  0.22818
      12     O     4.22874  4.22874  0.00000 -0.45747
      13     O     4.22905  4.22905  0.00000 -0.45811

   Total alpha = 24.00000, Total beta = 24.00000, Total charge =  0.00000
