  ==> Input File <==

--------------------------------------------------------------------------
set {
	reference rhf
	basis cc-pvtz
}

set_num_threads( 4 )
memory 2 gb

molecule MOL {
0 1

H	 0.506750	 1.424732	 -1.878735
C	 0.633014	 1.725579	 -0.830306
C	 0.692262	 0.592428	 0.156232
O	 0.707834	 2.871356	 -0.548827
C	 -0.554654	 -0.292621	 0.086567
H	 0.826760	 1.006715	 1.146744
H	 1.571009	 -0.002560	 -0.083915
C	 -1.846385	 0.513195	 -0.016346
H	 -0.473986	 -0.956115	 -0.769708
H	 -0.597929	 -0.929215	 0.966651
C	 -3.089953	 -0.365049	 -0.098564
H	 -1.798267	 1.154820	 -0.891143
H	 -1.925398	 1.173265	 0.842889
H	 -3.055079	 -1.012299	 -0.968245
H	 -3.988403	 0.236438	 -0.170014
H	 -3.183055	 -0.995885	 0.779079

	symmetry c1
}
set optking {
	frozen_dihedral = ("
		6 3 5 9
	")
}

ee = optimize('scf')
oeprop('DIPOLE', 'QUADRUPOLE', 'MULLIKEN_CHARGES')
f=open( 'psi4out.xyz', 'w' )
f.write( "16  " )
f.write( str(ee) + "\n" )
f.write( MOL.save_string_xyz() )
f.close()
--------------------------------------------------------------------------

    Molecular point group: c1
  Charge       = 0
  Multiplicity = 1
  Basis Set: CC-PVTZ
  Basis Set:
  @DF-RHF Final Energy:  -270.11588401825793
    Total Energy =                       -270.1158840182581571
    Molecular point group: c1
  Basis Set: CC-PVTZ
  Basis Set:
  Basis Set: CC-PVTZ
  Basis Set:
  @DF-RHF Final Energy:  -270.11685123883615
    Total Energy =                       -270.1168512388364888
  Basis Set: CC-PVTZ
  Basis Set:
  Basis Set: CC-PVTZ
  Basis Set:
  @DF-RHF Final Energy:  -270.11692501935090
    Total Energy =                       -270.1169250193510720
  Basis Set: CC-PVTZ
  Basis Set:
  Basis Set: CC-PVTZ
  Basis Set:
  @DF-RHF Final Energy:  -270.11697346365713
    Total Energy =                       -270.1169734636572457
  Basis Set: CC-PVTZ
  Basis Set:
  @DF-RHF Final Energy:  -270.11701229462665
    Total Energy =                       -270.1170122946264769
  Basis Set: CC-PVTZ
  Basis Set:
  @DF-RHF Final Energy:  -270.11704927293397
    Total Energy =                       -270.1170492729337980
  Basis Set: CC-PVTZ
  Basis Set:
  Basis Set: CC-PVTZ
  Basis Set:
  @DF-RHF Final Energy:  -270.11705464895130
    Total Energy =                       -270.1170546489512390
  Basis Set: CC-PVTZ
  Basis Set:
  Basis Set: CC-PVTZ
  Basis Set:
  @DF-RHF Final Energy:  -270.11705567094111
    Total Energy =                       -270.1170556709408856
  Basis Set: CC-PVTZ
  Basis Set:
  Charge       = 0
  Multiplicity = 1
  Basis Set: CC-PVTZ
  Basis Set:

    Orbital Energies (a.u.)
    -----------------------

    Doubly Occupied:

       1A    -20.551289     2A    -11.321403     3A    -11.234449
       4A    -11.233757     5A    -11.225992     6A    -11.216050
       7A     -1.406295     8A     -1.096817     9A     -1.018230
      10A     -0.905884    11A     -0.826833    12A     -0.783744
      13A     -0.670113    14A     -0.654436    15A     -0.623639
      16A     -0.609539    17A     -0.589780    18A     -0.551446
      19A     -0.527839    20A     -0.516289    21A     -0.492193
      22A     -0.479137    23A     -0.469961    24A     -0.411912

  @DF-RHF Final Energy:  -270.11705572800622

   => Energetics <=

    Nuclear Repulsion Energy =            234.0269654265460133
    One-Electron Energy =                -829.4539922764583935
    Two-Electron Energy =                 325.3099711219061874
    DFT Exchange-Correlation Energy =       0.0000000000000000
    Empirical Dispersion Energy =           0.0000000000000000
    PCM Polarization Energy =               0.0000000000000000
    EFP Energy =                            0.0000000000000000
    Total Energy =                       -270.1170557280062212
    Molecular point group: c1
  Basis Set: CC-PVTZ
  Basis Set:

  -Total Gradient:
     Atom            X                  Y                   Z
    ------   -----------------  -----------------  -----------------
       1        0.000000562934    -0.000004174470     0.000001640569
       2       -0.000002627814     0.000004684749     0.000011764942
       3       -0.002512736610     0.003702070090    -0.000871850593
       4        0.000001775749     0.000000553453    -0.000004049176
       5       -0.001676062159     0.002799257308    -0.002808509905
       6        0.002351042061    -0.003505086605     0.001169056443
       7        0.000001806176     0.000001901664    -0.000004246256
       8        0.000011241786    -0.000005848294     0.000005838543
       9        0.001839310209    -0.002997270583     0.002497211271
      10       -0.000008211109     0.000005686775     0.000001798403
      11       -0.000005797354    -0.000000672944    -0.000002311843
      12        0.000002190305    -0.000004225582     0.000000924498
      13       -0.000001287775     0.000000667677     0.000001703873
      14        0.000001334582     0.000001534124     0.000001474650
      15       -0.000003701646    -0.000000359164    -0.000000300531
      16        0.000001160665     0.000001281801    -0.000000144888

  **** Optimization is complete! (in 9 steps) ****
    Final optimized geometry and variables:
    Molecular point group: c1

    Geometry (in Angstrom), charge = 0, multiplicity = 1:

    H            1.169684277738     0.578079242157    -1.664730008840
    C            1.294014583402     0.886286114219    -0.617949744992
    C            1.223784647731    -0.230720598830     0.384719221595
    O            1.483832101943     2.023071150665    -0.354704528639
    C           -0.025680751531    -1.111877157263     0.249476220656
    H            1.322612801540     0.169170735348     1.385262272138
    H            2.101541791033    -0.850827516973     0.211432388330
    C           -1.343605425929    -0.343887010175     0.193615410240
    H            0.076664495208    -1.766948634898    -0.611204261321
    H           -0.043798623365    -1.778220265546     1.106310465774
    C           -2.559038786890    -1.263677226543     0.157879071622
    H           -1.360973172643     0.302778123124    -0.678711356421
    H           -1.409215560359     0.312700444283     1.056238907958
    H           -2.533196532741    -1.913247886484    -0.710688302965
    H           -3.479203417334    -0.693220683507     0.116831039399
    H           -2.598720047987    -1.893654314323     1.040057815271

  Mulliken Charges: (a.u.)
   Center  Symbol    Alpha    Beta     Spin     Total
       1     H     0.46268  0.46268  0.00000  0.07465
       2     C     2.90332  2.90332  0.00000  0.19336
       3     C     3.09176  3.09176  0.00000 -0.18352
       4     O     4.16710  4.16710  0.00000 -0.33421
       5     C     3.10869  3.10869  0.00000 -0.21738
       6     H     0.44075  0.44075  0.00000  0.11850
       7     H     0.44342  0.44342  0.00000  0.11315
       8     C     3.08701  3.08701  0.00000 -0.17401
       9     H     0.44841  0.44841  0.00000  0.10318
      10     H     0.44555  0.44555  0.00000  0.10890
      11     C     3.15011  3.15011  0.00000 -0.30022
      12     H     0.45042  0.45042  0.00000  0.09917
      13     H     0.44660  0.44660  0.00000  0.10679
      14     H     0.45485  0.45485  0.00000  0.09030
      15     H     0.44568  0.44568  0.00000  0.10863
      16     H     0.45364  0.45364  0.00000  0.09272

   Total alpha = 24.00000, Total beta = 24.00000, Total charge = -0.00000
