  ==> Input File <==

--------------------------------------------------------------------------
set {
	reference rhf
	basis 6-31G*
}

set_num_threads( 1 )
memory 2 gb

molecule MOL {
0 1

H	 -3.892951	 0.981613	 -0.358725
C	 -3.196921	 0.361773	 0.172313
C	 -2.076860	 -0.007332	 -0.404944
H	 -3.439953	 0.057760	 1.173024
O	 -2.021685	 -0.344822	 -1.720207
H	 -1.138224	 -0.045953	 0.119142
C	 -0.844775	 -0.890051	 -2.209550
C	 -0.800879	 -2.389306	 -2.018234
H	 0.034070	 -0.463752	 -1.738810
H	 -0.805198	 -0.690302	 -3.270220
F	 0.322763	 -2.866704	 -2.533331
F	 -0.828803	 -2.721723	 -0.738175
F	 -1.808821	 -2.993816	 -2.612381

	symmetry c1
}
set optking {
	frozen_dihedral = ("
		11 8 7 9,
		3 5 7 9,
		6 3 5 7
	")
}

ee = energy('scf')
oeprop('DIPOLE', 'QUADRUPOLE', 'MULLIKEN_CHARGES')
f=open( 'psi4out.xyz', 'w' )
f.write( "13  " )
f.write( str(ee) + "\n" )
f.write( MOL.save_string_xyz() )
f.close()
--------------------------------------------------------------------------

    Molecular point group: c1

    Geometry (in Angstrom), charge = 0, multiplicity = 1:

       Center              X                  Y                   Z               Mass
    ------------   -----------------  -----------------  -----------------  -----------------
           H         -2.554665329560     2.598897839685     1.203860537203     1.007825032070
           C         -1.858635329560     1.979057839685     1.734898537203    12.000000000000
           C         -0.738574329560     1.609952839685     1.157641537203    12.000000000000
           H         -2.101667329560     1.675044839685     2.735609537203     1.007825032070
           O         -0.683399329560     1.272462839685    -0.157621462797    15.994914619560
           H          0.200061670440     1.571331839685     1.681727537203     1.007825032070
           C          0.493510670440     0.727233839685    -0.646964462797    12.000000000000
           C          0.537406670440    -0.772021160315    -0.455648462797    12.000000000000
           H          1.372355670440     1.153532839685    -0.176224462797     1.007825032070
           H          0.533087670440     0.926982839685    -1.707634462797     1.007825032070
           F          1.661048670440    -1.249419160315    -0.970745462797    18.998403224000
           F          0.509482670440    -1.104438160315     0.824410537203    18.998403224000
           F         -0.470535329560    -1.376531160315    -1.049795462797    18.998403224000

  Charge       = 0
  Multiplicity = 1
  Basis Set: 6-31G*
  Basis Set:

    Orbital Energies (a.u.)
    -----------------------

    Doubly Occupied:

       1A    -26.345577     2A    -26.343547     3A    -26.340883
       4A    -20.610861     5A    -11.504229     6A    -11.320411
       7A    -11.305679     8A    -11.210093     9A     -1.742137
      10A     -1.640369    11A     -1.638457    12A     -1.440614
      13A     -1.085193    14A     -1.016513    15A     -0.925838
      16A     -0.837115    17A     -0.831345    18A     -0.822211
      19A     -0.792184    20A     -0.721905    21A     -0.711477
      22A     -0.696190    23A     -0.675987    24A     -0.660194
      25A     -0.654917    26A     -0.643408    27A     -0.635288
      28A     -0.587883    29A     -0.571662    30A     -0.526328
      31A     -0.509782    32A     -0.327620

  @DF-RHF Final Energy:  -527.49982374491401

   => Energetics <=

    Nuclear Repulsion Energy =            413.4957764725774609
    One-Electron Energy =               -1550.6393400657693746
    Two-Electron Energy =                 609.6437398482777326
    DFT Exchange-Correlation Energy =       0.0000000000000000
    Empirical Dispersion Energy =           0.0000000000000000
    PCM Polarization Energy =               0.0000000000000000
    EFP Energy =                            0.0000000000000000
    Total Energy =                       -527.4998237449141243

  Mulliken Charges: (a.u.)
   Center  Symbol    Alpha    Beta     Spin     Total
       1     H     0.40470  0.40470  0.00000  0.19059
       2     C     3.24819  3.24819  0.00000 -0.49638
       3     C     2.89284  2.89284  0.00000  0.21432
       4     H     0.40274  0.40274  0.00000  0.19452
       5     O     4.29498  4.29498  0.00000 -0.58996
       6     H     0.40623  0.40623  0.00000  0.18753
       7     C     3.06520  3.06520  0.00000 -0.13041
       8     C     2.45447  2.45447  0.00000  1.09107
       9     H     0.40510  0.40510  0.00000  0.18980
      10     H     0.38947  0.38947  0.00000  0.22106
      11     F     4.68263  4.68263  0.00000 -0.36525
      12     F     4.67926  4.67926  0.00000 -0.35851
      13     F     4.67420  4.67420  0.00000 -0.34839

   Total alpha = 32.00000, Total beta = 32.00000, Total charge =  0.00000
