  ==> Input File <==

--------------------------------------------------------------------------
set {
	reference rhf
	basis 6-31G*
}

set_num_threads( 4 )
memory 2 gb

molecule MOL {
0 1

H	 -2.646374	 -0.642757	 1.268656
C	 -2.083525	 -0.384536	 0.393091
O	 -0.807605	 -0.127164	 0.768327
F	 -2.118945	 -1.383102	 -0.486752
F	 -2.621877	 0.670592	 -0.209486
C	 0.089743	 -1.179519	 0.767363
C	 0.849293	 -1.117473	 2.086224
Cl	 1.206316	 -1.055764	 -0.602003
H	 -0.400134	 -2.135420	 0.703745
F	 1.718220	 -2.102980	 2.162904
F	 -0.009530	 -1.251096	 3.077187
F	 1.484943	 0.018686	 2.238092

	symmetry c1
}
set optking {
	frozen_dihedral = ("
		6 3 2 4
	")
}

ee = optimize('scf')
oeprop('DIPOLE', 'QUADRUPOLE', 'MULLIKEN_CHARGES')
f=open( 'psi4out.xyz', 'w' )
f.write( "12  " )
f.write( str(ee) + "\n" )
f.write( MOL.save_string_xyz() )
f.close()
--------------------------------------------------------------------------

    Molecular point group: c1
  Charge       = 0
  Multiplicity = 1
  Basis Set: 6-31G*
  Basis Set:
  @DF-RHF Final Energy: -1146.30659193643464
    Total Energy =                      -1146.3065919364344154
    Molecular point group: c1
  Basis Set: 6-31G*
  Basis Set:
  Basis Set: 6-31G*
  Basis Set:
  @DF-RHF Final Energy: -1146.30826046770062
    Total Energy =                      -1146.3082604676997107
  Basis Set: 6-31G*
  Basis Set:
  Basis Set: 6-31G*
  Basis Set:
  @DF-RHF Final Energy: -1146.30866010505360
    Total Energy =                      -1146.3086601050522404
  Basis Set: 6-31G*
  Basis Set:
  Basis Set: 6-31G*
  Basis Set:
  @DF-RHF Final Energy: -1146.30868422014782
    Total Energy =                      -1146.3086842201487343
  Basis Set: 6-31G*
  Basis Set:
  @DF-RHF Final Energy: -1146.30868768642767
    Total Energy =                      -1146.3086876864279020
  Basis Set: 6-31G*
  Basis Set:
  @DF-RHF Final Energy: -1146.30869044610995
    Total Energy =                      -1146.3086904461104041
  Basis Set: 6-31G*
  Basis Set:
  Basis Set: 6-31G*
  Basis Set:
  @DF-RHF Final Energy: -1146.30869234189004
    Total Energy =                      -1146.3086923418907190
  Basis Set: 6-31G*
  Basis Set:
  Basis Set: 6-31G*
  Basis Set:
  @DF-RHF Final Energy: -1146.30869354885431
    Total Energy =                      -1146.3086935488536255
  Basis Set: 6-31G*
  Basis Set:
  Charge       = 0
  Multiplicity = 1
  Basis Set: 6-31G*
  Basis Set:

    Orbital Energies (a.u.)
    -----------------------

    Doubly Occupied:

       1A   -104.842994     2A    -26.362454     3A    -26.362281
       4A    -26.359632     5A    -26.352864     6A    -26.344957
       7A    -20.646313     8A    -11.529751     9A    -11.492444
      10A    -11.403746    11A    -10.577771    12A     -8.047119
      13A     -8.043583    14A     -8.043485    15A     -1.763568
      16A     -1.720287    17A     -1.660023    18A     -1.658969
      19A     -1.644223    20A     -1.483215    21A     -1.178483
      22A     -1.052261    23A     -0.987147    24A     -0.925437
      25A     -0.859869    26A     -0.851029    27A     -0.842170
      28A     -0.836434    29A     -0.818955    30A     -0.791172
      31A     -0.730870    32A     -0.727848    33A     -0.701514
      34A     -0.699176    35A     -0.681421    36A     -0.677014
      37A     -0.663348    38A     -0.660696    39A     -0.644261
      40A     -0.633790    41A     -0.614606    42A     -0.574187
      43A     -0.513196    44A     -0.475552    45A     -0.468841

  @DF-RHF Final Energy: -1146.30869432401505

   => Energetics <=

    Nuclear Repulsion Energy =            730.6066420226597984
    One-Electron Energy =               -3043.9327564363034071
    Two-Electron Energy =                1167.0174200896299226
    DFT Exchange-Correlation Energy =       0.0000000000000000
    Empirical Dispersion Energy =           0.0000000000000000
    PCM Polarization Energy =               0.0000000000000000
    EFP Energy =                            0.0000000000000000
    Total Energy =                      -1146.3086943240136861
    Molecular point group: c1
  Basis Set: 6-31G*
  Basis Set:

  -Total Gradient:
     Atom            X                  Y                   Z
    ------   -----------------  -----------------  -----------------
       1       -0.000024189880     0.000024427312    -0.000015857008
       2        0.000292589881     0.000887066263    -0.001332577920
       3       -0.000419416563    -0.000563312940     0.001617902031
       4       -0.000137604601    -0.000623526132     0.000675128964
       5        0.000014353741     0.000023253883    -0.000016438806
       6        0.000252248332     0.000254299519    -0.000878647204
       7        0.000024755898    -0.000025811542     0.000035347016
       8        0.000025147560    -0.000001426232    -0.000016787187
       9        0.000013373937     0.000004546044    -0.000007797167
      10       -0.000001657873     0.000018702283    -0.000035551935
      11       -0.000049113760    -0.000009410076     0.000015011230
      12        0.000009513329     0.000011191619    -0.000039732023

  **** Optimization is complete! (in 9 steps) ****
    Final optimized geometry and variables:
    Molecular point group: c1

    Geometry (in Angstrom), charge = 0, multiplicity = 1:

    H           -2.671472916939     0.127492660324     0.307223232532
    C           -2.021721278057     0.421559652474    -0.499656331009
    O           -0.744006930250     0.638520234716    -0.068607691425
    F           -2.049679677732    -0.523166993905    -1.436174019681
    F           -2.453759448631     1.547387023415    -1.026023389214
    C            0.169552043017    -0.389084022518    -0.084108088013
    C            0.962001436742    -0.289933199932     1.212901059316
    CL           1.248412258558    -0.274800294942    -1.486976398513
    H           -0.294471019393    -1.359687386393    -0.119142355199
    F            1.851132221073    -1.256939744943     1.285282049236
    F            0.124950497480    -0.430732840114     2.225210680036
    F            1.575484258626     0.859663883349     1.339065341109

  Mulliken Charges: (a.u.)
   Center  Symbol    Alpha    Beta     Spin     Total
       1     H     0.41468  0.41468  0.00000  0.17065
       2     C     2.56494  2.56494  0.00000  0.87012
       3     O     4.30428  4.30428  0.00000 -0.60857
       4     F     4.68266  4.68266  0.00000 -0.36533
       5     F     4.66931  4.66931  0.00000 -0.33861
       6     C     3.03809  3.03809  0.00000 -0.07617
       7     C     2.43315  2.43315  0.00000  1.13370
       8    CL     8.50087  8.50087  0.00000 -0.00174
       9     H     0.37166  0.37166  0.00000  0.25667
      10     F     4.67375  4.67375  0.00000 -0.34750
      11     F     4.67997  4.67997  0.00000 -0.35994
      12     F     4.66664  4.66664  0.00000 -0.33327

   Total alpha = 45.00000, Total beta = 45.00000, Total charge = -0.00000
