                              Psi4 1.0.54 Driver

  ==> Input File <==

--------------------------------------------------------------------------
set {
	reference rhf
	basis cc-pvtz
}

set_num_threads( 4 )
memory 2 gb

molecule MOL {
0 1

H	 1.128311	 0.207724	 1.465118
C	 1.134565	 0.093781	 0.372499
C	 0.062554	 0.862911	 -0.350953
O	 1.948932	 -0.587720	 -0.146651
C	 -1.060428	 1.327904	 0.581414
H	 -0.318597	 0.248417	 -1.156319
H	 0.545006	 1.732598	 -0.791360
C	 -1.891231	 0.181123	 1.150019
H	 -1.705145	 2.003111	 0.030951
H	 -0.635466	 1.910704	 1.393939
H	 -2.356410	 -0.392078	 0.355913
H	 -2.676792	 0.557378	 1.794198
H	 -1.285048	 -0.502585	 1.734073

	symmetry c1
}
set optking {
	frozen_dihedral = ("
		6 3 2 4
	")
}

ee,wfn = optimize('scf', return_wfn=True)
oeprop( wfn, 'DIPOLE', 'QUADRUPOLE', 'MULLIKEN_CHARGES')
f=open( 'psi4out.xyz', 'w' )
f.write( "13  " )
f.write( str(ee) + "\n" )
f.write( MOL.save_string_xyz() )
f.close()
--------------------------------------------------------------------------

    Molecular point group: c1
  Charge       = 0
  Multiplicity = 1
  Basis Set: CC-PVTZ
  Basis Set:
  @DF-RHF Final Energy:  -231.06919513512310
    Total Energy =                       -231.0691951351231808
    Molecular point group: c1
  Basis Set: CC-PVTZ
  Basis Set:
  Basis Set: CC-PVTZ
  Basis Set:
  @DF-RHF Final Energy:  -231.06748594443036
    Total Energy =                       -231.0674859444304161
  Basis Set: CC-PVTZ
  Basis Set:
  Basis Set: CC-PVTZ
  Basis Set:
  @DF-RHF Final Energy:  -231.06934235668302
    Total Energy =                       -231.0693423566831655
  Basis Set: CC-PVTZ
  Basis Set:
  Basis Set: CC-PVTZ
  Basis Set:
  @DF-RHF Final Energy:  -231.06946237491471
    Total Energy =                       -231.0694623749147638
  Basis Set: CC-PVTZ
  Basis Set:
  Basis Set: CC-PVTZ
  Basis Set:
  @DF-RHF Final Energy:  -231.06948854116379
    Total Energy =                       -231.0694885411635653
  Basis Set: CC-PVTZ
  Basis Set:
  Basis Set: CC-PVTZ
  Basis Set:
  @DF-RHF Final Energy:  -231.06950883461590
    Total Energy =                       -231.0695088346157320
  Basis Set: CC-PVTZ
  Basis Set:
  Basis Set: CC-PVTZ
  Basis Set:
  @DF-RHF Final Energy:  -231.06951153049710
    Total Energy =                       -231.0695115304971523
  Basis Set: CC-PVTZ
  Basis Set:
  Charge       = 0
  Multiplicity = 1
  Basis Set: CC-PVTZ
  Basis Set:

    Orbital Energies (a.u.)
    -----------------------

    Doubly Occupied:

       1A    -20.551689     2A    -11.322870     3A    -11.235363
       4A    -11.234746     5A    -11.222528     6A     -1.407544
       7A     -1.088682     8A     -0.973430     9A     -0.849075
      10A     -0.792946    11A     -0.663344    12A     -0.651209
      13A     -0.634883    14A     -0.594894    15A     -0.570988
      16A     -0.531315    17A     -0.508943    18A     -0.493767
      19A     -0.484793    20A     -0.412583

  @DF-RHF Final Energy:  -231.06951159956716

   => Energetics <=

    Nuclear Repulsion Energy =            172.9472642170512984
    One-Electron Energy =                -655.5823691828284154
    Two-Electron Energy =                 251.5655933662098391
    DFT Exchange-Correlation Energy =       0.0000000000000000
    Empirical Dispersion Energy =           0.0000000000000000
    PCM Polarization Energy =               0.0000000000000000
    EFP Energy =                            0.0000000000000000
    Total Energy =                       -231.0695115995673063
    Molecular point group: c1
  Basis Set: CC-PVTZ
  Basis Set:

  -Total Gradient:
     Atom            X                  Y                   Z
    ------   -----------------  -----------------  -----------------
       1        0.000006227938     0.000004741433    -0.000001199801
       2       -0.001522911566    -0.001949964925     0.000411388589
       3        0.001580489492     0.001279792044    -0.001205485817
       4        0.000904181181     0.001260437587    -0.000126923358
       5        0.000007116381    -0.000003770060     0.000005383274
       6       -0.000979838304    -0.000589055257     0.000924386896
       7        0.000003038140    -0.000000791396    -0.000003160576
       8       -0.000003848303     0.000001741509    -0.000005992350
       9       -0.000002055918    -0.000000855236    -0.000000285055
      10        0.000006640430     0.000007098959     0.000000071389
      11       -0.000000663076    -0.000005898272    -0.000002160920
      12       -0.000002590549    -0.000000355179    -0.000001660484
      13        0.000004214160    -0.000003121206     0.000005638214

  **** Optimization is complete! (in 8 steps) ****
    Final optimized geometry and variables:
    Molecular point group: c1

    Geometry (in Angstrom), charge = 0, multiplicity = 1:

    H            1.184358411678    -0.128201855864     1.126388199183
    C            1.122074489919    -0.251999979166     0.037366133405
    C            0.006689697283     0.499972639006    -0.650770746014
    O            1.925022054234    -0.908383222852    -0.529052642534
    C           -1.111626063321     0.946799246237     0.287936503477
    H           -0.378882607526    -0.128391924631    -1.445080579482
    H            0.470254335090     1.361231990529    -1.123524233881
    C           -1.941351194084    -0.212348933679     0.833766884782
    H           -1.760922999203     1.632343255072    -0.244277663156
    H           -0.686286131767     1.512778703567     1.112297331578
    H           -2.417145038417    -0.760725406617     0.028102831878
    H           -2.719213303874     0.145225370424     1.497443315745
    H           -1.332384242939    -0.915101215626     1.392873717381

  Mulliken Charges: (a.u.)
   Center  Symbol    Alpha    Beta     Spin     Total
       1     H     0.46162  0.46162  0.00000  0.07675
       2     C     2.91120  2.91120  0.00000  0.17760
       3     C     3.08859  3.08859  0.00000 -0.17718
       4     O     4.16473  4.16473  0.00000 -0.32946
       5     C     3.10397  3.10397  0.00000 -0.20794
       6     H     0.44060  0.44060  0.00000  0.11881
       7     H     0.43686  0.43686  0.00000  0.12629
       8     C     3.14658  3.14658  0.00000 -0.29316
       9     H     0.44400  0.44400  0.00000  0.11200
      10     H     0.45163  0.45163  0.00000  0.09674
      11     H     0.45116  0.45116  0.00000  0.09769
      12     H     0.44525  0.44525  0.00000  0.10950
      13     H     0.45382  0.45382  0.00000  0.09236

   Total alpha = 20.00000, Total beta = 20.00000, Total charge =  0.00000

*** Psi4 exiting successfully. Buy a developer a beer!
