                              Psi4 1.0.54 Driver

  ==> Input File <==

--------------------------------------------------------------------------
set {
	reference rhf
	basis cc-pvtz
}

set_num_threads( 4 )
memory 2 gb

molecule MOL {
0 1

H	 -2.292055	 -0.603589	 0.174634
O	 -1.432053	 -0.565244	 -0.200812
C	 -0.727158	 0.534527	 0.310686
C	 0.680222	 0.664433	 -0.252229
H	 -1.306802	 1.408001	 0.044211
H	 -0.690821	 0.490158	 1.397609
C	 1.605391	 -0.489360	 0.123098
H	 0.615089	 0.745647	 -1.332226
H	 1.101414	 1.597893	 0.110950
H	 1.247627	 -1.432485	 -0.275204
H	 2.601435	 -0.332816	 -0.273062
H	 1.691776	 -0.589902	 1.200774

	symmetry c1
}
set optking {
	frozen_dihedral = ("
		1 2 3 4
	")
}

ee,wfn = optimize('scf', return_wfn=True)
oeprop( wfn, 'DIPOLE', 'QUADRUPOLE', 'MULLIKEN_CHARGES')
f=open( 'psi4out.xyz', 'w' )
f.write( "12  " )
f.write( str(ee) + "\n" )
f.write( MOL.save_string_xyz() )
f.close()
--------------------------------------------------------------------------

    Molecular point group: c1
  Charge       = 0
  Multiplicity = 1
  Basis Set: CC-PVTZ
  Basis Set:
  @DF-RHF Final Energy:  -193.18952358235285
    Total Energy =                       -193.1895235823528196
    Molecular point group: c1
  Basis Set: CC-PVTZ
  Basis Set:
  Basis Set: CC-PVTZ
  Basis Set:
  @DF-RHF Final Energy:  -192.98748378644075
    Total Energy =                       -192.9874837864406913
  Basis Set: CC-PVTZ
  Basis Set:
  Basis Set: CC-PVTZ
  Basis Set:
  @DF-RHF Final Energy:  -193.10842688197022
    Total Energy =                       -193.1084268819702459
  Basis Set: CC-PVTZ
  Basis Set:
  Basis Set: CC-PVTZ
  Basis Set:
  @DF-RHF Final Energy:  -193.18292068956225
    Total Energy =                       -193.1829206895622519
  Basis Set: CC-PVTZ
  Basis Set:
  @DF-RHF Final Energy:  -193.18990703676022
    Total Energy =                       -193.1899070367601894
  Basis Set: CC-PVTZ
  Basis Set:
  @DF-RHF Final Energy:  -193.19118436796666
    Total Energy =                       -193.1911843679666276
  Basis Set: CC-PVTZ
  Basis Set:
  Basis Set: CC-PVTZ
  Basis Set:
  @DF-RHF Final Energy:  -193.19132220000577
    Total Energy =                       -193.1913222000056862
  Basis Set: CC-PVTZ
  Basis Set:
  Basis Set: CC-PVTZ
  Basis Set:
  @DF-RHF Final Energy:  -193.19132925214652
    Total Energy =                       -193.1913292521463745
  Basis Set: CC-PVTZ
  Basis Set:
  Charge       = 0
  Multiplicity = 1
  Basis Set: CC-PVTZ
  Basis Set:

    Orbital Energies (a.u.)
    -----------------------

    Doubly Occupied:

       1A    -20.546468     2A    -11.266157     3A    -11.213002
       4A    -11.201428     5A     -1.364528     6A     -1.048033
       7A     -0.919244     8A     -0.798603     9A     -0.708524
      10A     -0.643797    11A     -0.586018    12A     -0.582797
      13A     -0.537887    14A     -0.499096    15A     -0.482764
      16A     -0.465250    17A     -0.436628

  @DF-RHF Final Energy:  -193.19132951454401

   => Energetics <=

    Nuclear Repulsion Energy =            133.4209045096623640
    One-Electron Energy =                -526.6240184092828258
    Two-Electron Energy =                 200.0117843850764814
    DFT Exchange-Correlation Energy =       0.0000000000000000
    Empirical Dispersion Energy =           0.0000000000000000
    PCM Polarization Energy =               0.0000000000000000
    EFP Energy =                            0.0000000000000000
    Total Energy =                       -193.1913295145439804
    Molecular point group: c1
  Basis Set: CC-PVTZ
  Basis Set:

  -Total Gradient:
     Atom            X                  Y                   Z
    ------   -----------------  -----------------  -----------------
       1       -0.000078585010     0.000048900997    -0.000126443086
       2        0.000072804273    -0.000010262125     0.000103746929
       3        0.000060246505    -0.000084748882     0.000121365959
       4       -0.000056480124     0.000038687936    -0.000085928722
       5       -0.000023353893    -0.000011450578    -0.000005273953
       6        0.000013976270     0.000022700181     0.000008216843
       7        0.000004612704     0.000006168252    -0.000002088718
       8        0.000004144357    -0.000009000505    -0.000006772652
       9        0.000007865458     0.000005384042    -0.000000925570
      10       -0.000003246600    -0.000003895765     0.000001476277
      11        0.000001895605    -0.000005160013    -0.000001834190
      12       -0.000003879546     0.000002676459    -0.000005539117

  **** Optimization is complete! (in 9 steps) ****
    Final optimized geometry and variables:
    Molecular point group: c1

    Geometry (in Angstrom), charge = 0, multiplicity = 1:

    H           -1.909972842539     0.369723338857     1.265582414438
    O           -1.353748637802    -0.017423661696     0.615521502715
    C           -0.309391524055     0.861187771130     0.286970605188
    C            0.571313663481     0.211406166600    -0.762731764881
    H           -0.709294693911     1.794567923788    -0.101213171521
    H            0.281003365087     1.096987919309     1.170463356525
    C            1.267594629010    -1.054679921126    -0.275133367866
    H           -0.039747732798    -0.014372401602    -1.630453982565
    H            1.311324168897     0.941113701526    -1.078497494537
    H            0.545756859495    -1.798627951258     0.034140678819
    H            1.880873604338    -1.483553651976    -1.059206392370
    H            1.913336413920    -0.842611850226     0.571184169339

  Mulliken Charges: (a.u.)
   Center  Symbol    Alpha    Beta     Spin     Total
       1     H     0.39525  0.39525  0.00000  0.20950
       2     O     4.19924  4.19924  0.00000 -0.39847
       3     C     2.96891  2.96891  0.00000  0.06217
       4     C     3.08324  3.08324  0.00000 -0.16649
       5     H     0.46684  0.46684  0.00000  0.06632
       6     H     0.47484  0.47484  0.00000  0.05033
       7     C     3.14811  3.14811  0.00000 -0.29623
       8     H     0.45273  0.45273  0.00000  0.09454
       9     H     0.45551  0.45551  0.00000  0.08897
      10     H     0.44496  0.44496  0.00000  0.11007
      11     H     0.45101  0.45101  0.00000  0.09797
      12     H     0.45934  0.45934  0.00000  0.08132

   Total alpha = 17.00000, Total beta = 17.00000, Total charge = -0.00000

*** Psi4 exiting successfully. Buy a developer a beer!
