  ==> Input File <==

--------------------------------------------------------------------------
set {
	reference rhf
	basis cc-pvtz
}

set_num_threads( 4 )
memory 2 gb

molecule MOL {
0 1

O	 -2.817697	 1.304178	 0.001046
C	 -2.664672	 0.129869	 0.003507
C	 -3.797908	 -0.860100	 -0.001145
O	 -1.481217	 -0.452708	 0.001092
H	 -4.408836	 -0.679689	 -0.875387
H	 -3.443486	 -1.878443	 -0.002770
H	 -4.412123	 -0.683688	 0.871605
C	 -0.332055	 0.384012	 -0.000250
C	 0.892252	 -0.506059	 -0.000295
H	 -0.360822	 1.020205	 -0.874146
H	 -0.359817	 1.021310	 0.872861
C	 1.189831	 -1.073868	 1.384408
H	 1.742847	 0.065627	 -0.357134
H	 0.739350	 -1.314798	 -0.707562
C	 2.420837	 -1.975620	 1.408763
H	 1.331316	 -0.257487	 2.088313
H	 0.328907	 -1.635368	 1.738669
C	 2.717865	 -2.544183	 2.792063
H	 3.282170	 -1.415122	 1.056622
H	 2.280547	 -2.791899	 0.705844
H	 2.896899	 -1.751633	 3.510852
H	 3.596113	 -3.178915	 2.774695
H	 1.887367	 -3.138815	 3.157493

	symmetry c1
}
set optking {
	frozen_dihedral = ("
		13 9 8 10
	")
}

ee = optimize('scf')
oeprop('DIPOLE', 'QUADRUPOLE', 'MULLIKEN_CHARGES')
f=open( 'psi4out.xyz', 'w' )
f.write( "23  " )
f.write( str(ee) + "\n" )
f.write( MOL.save_string_xyz() )
f.close()
--------------------------------------------------------------------------

    Molecular point group: c1
  Charge       = 0
  Multiplicity = 1
  Basis Set: CC-PVTZ
  Basis Set:
  @DF-RHF Final Energy:  -423.13358916529887
    Total Energy =                       -423.1335891652986447
    Molecular point group: c1
  Basis Set: CC-PVTZ
  Basis Set:
  Basis Set: CC-PVTZ
  Basis Set:
  @DF-RHF Final Energy:  -423.13371585768294
    Total Energy =                       -423.1337158576830006
  Basis Set: CC-PVTZ
  Basis Set:
  Basis Set: CC-PVTZ
  Basis Set:
  @DF-RHF Final Energy:  -423.13376143430168
    Total Energy =                       -423.1337614343019595
  Basis Set: CC-PVTZ
  Basis Set:
  Basis Set: CC-PVTZ
  Basis Set:
  @DF-RHF Final Energy:  -423.13388006824925
    Total Energy =                       -423.1338800682485726
  Basis Set: CC-PVTZ
  Basis Set:
  Basis Set: CC-PVTZ
  Basis Set:
  @DF-RHF Final Energy:  -423.13391719641334
    Total Energy =                       -423.1339171964127672
  Basis Set: CC-PVTZ
  Basis Set:
  Basis Set: CC-PVTZ
  Basis Set:
  @DF-RHF Final Energy:  -423.13392023907272
    Total Energy =                       -423.1339202390729497
  Basis Set: CC-PVTZ
  Basis Set:
  Charge       = 0
  Multiplicity = 1
  Basis Set: CC-PVTZ
  Basis Set:

    Orbital Energies (a.u.)
    -----------------------

    Doubly Occupied:

       1A    -20.596684     2A    -20.530050     3A    -11.366944
       4A    -11.279791     5A    -11.231256     6A    -11.222965
       7A    -11.217857     8A    -11.217089     9A    -11.209775
      10A     -1.471732    11A     -1.364627    12A     -1.093208
      13A     -1.042656    14A     -1.003817    15A     -0.931940
      16A     -0.843659    17A     -0.801021    18A     -0.781019
      19A     -0.691422    20A     -0.685050    21A     -0.670187
      22A     -0.644527    23A     -0.609200    24A     -0.585724
      25A     -0.578929    26A     -0.574350    27A     -0.560137
      28A     -0.534637    29A     -0.530812    30A     -0.507434
      31A     -0.496474    32A     -0.475119    33A     -0.469962
      34A     -0.463558    35A     -0.448615    36A     -0.440980

  @DF-RHF Final Energy:  -423.13392081318381

   => Energetics <=

    Nuclear Repulsion Energy =            457.6650712865150012
    One-Electron Energy =               -1483.2515645387288714
    Two-Electron Energy =                 602.4525724390300638
    DFT Exchange-Correlation Energy =       0.0000000000000000
    Empirical Dispersion Energy =           0.0000000000000000
    PCM Polarization Energy =               0.0000000000000000
    EFP Energy =                            0.0000000000000000
    Total Energy =                       -423.1339208131837495
    Molecular point group: c1
  Basis Set: CC-PVTZ
  Basis Set:

  -Total Gradient:
     Atom            X                  Y                   Z
    ------   -----------------  -----------------  -----------------
       1       -0.000010096894     0.000005121725     0.000012888464
       2        0.000008965218    -0.000003209253    -0.000015569159
       3        0.000001164239     0.000002600271     0.000023163877
       4       -0.000008262169    -0.000010120656    -0.000013877640
       5        0.000005871172    -0.000005063831    -0.000006764244
       6        0.000001345927     0.000000730615    -0.000002084256
       7       -0.000004625057     0.000005892455    -0.000006334289
       8       -0.001953161495    -0.002900037722    -0.002437524498
       9        0.001008965924     0.001642288575     0.003688141822
      10        0.001455534795     0.002138305853     0.001462577084
      11        0.000009853173     0.000004387954     0.000001758420
      12        0.000001729071    -0.000002798907     0.000000470098
      13       -0.000514510487    -0.000879508558    -0.002710542200
      14       -0.000002383585     0.000000816448     0.000001597517
      15        0.000001261612     0.000003555089     0.000002676483
      16       -0.000001767369     0.000002642943    -0.000006293621
      17       -0.000000371809    -0.000001931466     0.000007508299
      18       -0.000001315680    -0.000003679267    -0.000001615017
      19        0.000001945249     0.000000270014     0.000003111517
      20        0.000002302732     0.000001155048    -0.000002029488
      21        0.000000513093     0.000000178774    -0.000002010670
      22       -0.000001815750    -0.000001290233    -0.000000760921
      23       -0.000001141908    -0.000000305871     0.000001512425

  **** Optimization is complete! (in 7 steps) ****
    Final optimized geometry and variables:
    Molecular point group: c1

    Geometry (in Angstrom), charge = 0, multiplicity = 1:

    O           -2.376341440846     1.920007969752    -0.647203272062
    C           -2.219018028177     0.746473485156    -0.630509409850
    C           -3.348961384115    -0.247315628488    -0.611095257447
    O           -1.033201164829     0.168399179341    -0.627839573569
    H           -3.968240578209    -0.080913008459    -1.482261891818
    H           -2.991464209984    -1.264604718330    -0.601859496424
    H           -3.955887458600    -0.060714545473     0.264722787866
    C            0.112824334785     1.009093944656    -0.644880954220
    C            1.350083429593     0.134232425285    -0.597213098957
    H            0.097023912766     1.625122420998    -1.532613081514
    H            0.068830852364     1.677177834654     0.205001162896
    C            1.646789309774    -0.452451455104     0.778899910725
    H            2.190812756415     0.724443941633    -0.949689169821
    H            1.226768685768    -0.666367886458    -1.320343105396
    C            2.870677378797    -1.363419000270     0.790943678998
    H            1.795571590876     0.358055441171     1.488392887454
    H            0.780685602860    -1.008596631378     1.124695213447
    C            3.171246191436    -1.942431549238     2.169226887346
    H            3.735481318662    -0.808531644930     0.437017060034
    H            2.719989713117    -2.174976850523     0.084474174437
    H            3.361753891496    -1.155536852458     2.891388824509
    H            4.043558938595    -2.585172027144     2.143218674735
    H            2.337228165678    -2.531242640525     2.536214755407

  Mulliken Charges: (a.u.)
   Center  Symbol    Alpha    Beta     Spin     Total
       1     O     4.20236  4.20236  0.00000 -0.40471
       2     C     2.81301  2.81301  0.00000  0.37398
       3     C     3.13974  3.13974  0.00000 -0.27949
       4     O     4.14851  4.14851  0.00000 -0.29701
       5     H     0.44162  0.44162  0.00000  0.11676
       6     H     0.44228  0.44228  0.00000  0.11544
       7     H     0.44198  0.44198  0.00000  0.11603
       8     C     2.98873  2.98873  0.00000  0.02255
       9     C     3.08785  3.08785  0.00000 -0.17570
      10     H     0.44498  0.44498  0.00000  0.11004
      11     H     0.45352  0.45352  0.00000  0.09297
      12     C     3.08914  3.08914  0.00000 -0.17828
      13     H     0.44988  0.44988  0.00000  0.10024
      14     H     0.45167  0.45167  0.00000  0.09665
      15     C     3.08544  3.08544  0.00000 -0.17089
      16     H     0.45443  0.45443  0.00000  0.09115
      17     H     0.44946  0.44946  0.00000  0.10108
      18     C     3.14966  3.14966  0.00000 -0.29931
      19     H     0.45472  0.45472  0.00000  0.09055
      20     H     0.45350  0.45350  0.00000  0.09300
      21     H     0.45475  0.45475  0.00000  0.09049
      22     H     0.44798  0.44798  0.00000  0.10404
      23     H     0.45479  0.45479  0.00000  0.09043

   Total alpha = 36.00000, Total beta = 36.00000, Total charge = -0.00000
