  ==> Input File <==

--------------------------------------------------------------------------
set {
	reference rhf
	basis cc-pvtz
}

set_num_threads( 4 )
memory 2 gb

molecule MOL {
0 1

O	 0.395927	 1.296676	 -0.000076
C	 0.503051	 0.114301	 -0.000074
C	 -0.701422	 -0.805636	 -0.000109
C	 1.858118	 -0.556123	 0.000212
C	 -0.356883	 -2.278101	 0.158705
H	 -1.366207	 -0.475119	 0.793777
H	 -1.246114	 -0.632342	 -0.924620
H	 0.164322	 -2.456291	 1.089737
H	 -1.258788	 -2.878399	 0.150605
H	 0.285476	 -2.614925	 -0.643888
H	 1.961106	 -1.191101	 -0.872843
H	 2.636688	 0.191085	 -0.000109
H	 1.961070	 -1.190284	 0.873873

	symmetry c1
}
set optking {
	frozen_dihedral = ("
		6 3 2 1
	")
}

ee = optimize('scf')
oeprop('DIPOLE', 'QUADRUPOLE', 'MULLIKEN_CHARGES')
f=open( 'psi4out.xyz', 'w' )
f.write( "13  " )
f.write( str(ee) + "\n" )
f.write( MOL.save_string_xyz() )
f.close()
--------------------------------------------------------------------------

    Molecular point group: c1
  Charge       = 0
  Multiplicity = 1
  Basis Set: CC-PVTZ
  Basis Set:
  @DF-RHF Final Energy:  -231.07648647518522
    Total Energy =                       -231.0764864751852770
    Molecular point group: c1
  Basis Set: CC-PVTZ
  Basis Set:
  Basis Set: CC-PVTZ
  Basis Set:
  @DF-RHF Final Energy:  -231.07795746577941
    Total Energy =                       -231.0779574657794058
  Basis Set: CC-PVTZ
  Basis Set:
  Basis Set: CC-PVTZ
  Basis Set:
  @DF-RHF Final Energy:  -231.07893906054070
    Total Energy =                       -231.0789390605409324
  Basis Set: CC-PVTZ
  Basis Set:
  Basis Set: CC-PVTZ
  Basis Set:
  @DF-RHF Final Energy:  -231.07899749406170
    Total Energy =                       -231.0789974940616958
  Basis Set: CC-PVTZ
  Basis Set:
  Basis Set: CC-PVTZ
  Basis Set:
  @DF-RHF Final Energy:  -231.07896016508482
    Total Energy =                       -231.0789601650849363
  Basis Set: CC-PVTZ
  Basis Set:
  Basis Set: CC-PVTZ
  Basis Set:
  @DF-RHF Final Energy:  -231.07904209324963
    Total Energy =                       -231.0790420932497682
  Basis Set: CC-PVTZ
  Basis Set:
  Charge       = 0
  Multiplicity = 1
  Basis Set: CC-PVTZ
  Basis Set:

    Orbital Energies (a.u.)
    -----------------------

    Doubly Occupied:

       1A    -20.535555     2A    -11.321888     3A    -11.233016
       4A    -11.227556     5A    -11.226303     6A     -1.397344
       7A     -1.067311     8A     -0.995174     9A     -0.891595
      10A     -0.732452    11A     -0.654750    12A     -0.644486
      13A     -0.629231    14A     -0.584100    15A     -0.557204
      16A     -0.546437    17A     -0.532650    18A     -0.515027
      19A     -0.475735    20A     -0.401669

  @DF-RHF Final Energy:  -231.07904235105107

   => Energetics <=

    Nuclear Repulsion Energy =            177.0116103697164078
    One-Electron Energy =                -663.8423364450270583
    Two-Electron Energy =                 255.7516837242597205
    DFT Exchange-Correlation Energy =       0.0000000000000000
    Empirical Dispersion Energy =           0.0000000000000000
    PCM Polarization Energy =               0.0000000000000000
    EFP Energy =                            0.0000000000000000
    Total Energy =                       -231.0790423510509015
    Molecular point group: c1
  Basis Set: CC-PVTZ
  Basis Set:

  -Total Gradient:
     Atom            X                  Y                   Z
    ------   -----------------  -----------------  -----------------
       1        0.000029611786    -0.000000068393    -0.000686702815
       2        0.000024990586    -0.000083681508     0.001031801243
       3       -0.000368500453     0.000496199667    -0.000778122051
       4        0.000004441987     0.000006580873     0.000004527468
       5       -0.000004195223    -0.000016137271    -0.000016063089
       6        0.000317760039    -0.000405151027     0.000445004573
       7        0.000003723821    -0.000004954904     0.000001133643
       8       -0.000001153534     0.000007562117    -0.000002269783
       9       -0.000001509646    -0.000003471885     0.000001273624
      10       -0.000000549412    -0.000012028403     0.000001732430
      11       -0.000003408646     0.000004212556    -0.000000988930
      12        0.000002576240     0.000004530154     0.000001922819
      13       -0.000003787544     0.000006408027    -0.000003249130

  **** Optimization is complete! (in 7 steps) ****
    Final optimized geometry and variables:
    Molecular point group: c1

    Geometry (in Angstrom), charge = 0, multiplicity = 1:

    O            0.015954821269     1.736727911229    -0.040350536188
    C            0.183850662374     0.560773955695    -0.027893765663
    C           -1.026478009374    -0.364828164235    -0.026519762766
    C            1.576255585877    -0.023894139008    -0.038604294965
    C           -0.782392509015    -1.862016441076     0.130522597357
    H           -1.674703781031    -0.005962346646     0.764093553406
    H           -1.549789300816    -0.165960016271    -0.955885798116
    H           -0.297073471130    -2.095533072694     1.070745287998
    H           -1.727188131427    -2.390845882954     0.113103405010
    H           -0.171427279137    -2.262242909984    -0.669369618774
    H            1.715143590055    -0.649599190020    -0.913125754571
    H            2.297404624199     0.778372692942    -0.047826444360
    H            1.735046968045    -0.649240318353     0.832094741975

  Mulliken Charges: (a.u.)
   Center  Symbol    Alpha    Beta     Spin     Total
       1     O     4.17661  4.17661  0.00000 -0.35322
       2     C     2.85973  2.85973  0.00000  0.28054
       3     C     3.09608  3.09608  0.00000 -0.19216
       4     C     3.15896  3.15896  0.00000 -0.31793
       5     C     3.15726  3.15726  0.00000 -0.31453
       6     H     0.43793  0.43793  0.00000  0.12414
       7     H     0.43964  0.43964  0.00000  0.12071
       8     H     0.45100  0.45100  0.00000  0.09799
       9     H     0.44114  0.44114  0.00000  0.11773
      10     H     0.45221  0.45221  0.00000  0.09557
      11     H     0.44847  0.44847  0.00000  0.10307
      12     H     0.43190  0.43190  0.00000  0.13620
      13     H     0.44906  0.44906  0.00000  0.10189

   Total alpha = 20.00000, Total beta = 20.00000, Total charge = -0.00000
