  ==> Input File <==

--------------------------------------------------------------------------
set {
	reference rhf
	basis cc-pvtz
}

set_num_threads( 4 )
memory 2 gb

molecule MOL {
0 1

H	 0.784030	 3.360763	 -1.560757
O	 1.506559	 2.892726	 -1.181793
C	 1.104265	 1.742509	 -0.612810
C	 2.073931	 0.951141	 -0.013974
C	 -0.213999	 1.339364	 -0.609243
H	 3.093039	 1.283366	 -0.028102
C	 1.721034	 -0.236781	 0.584072
H	 -0.982341	 1.929792	 -1.063493
C	 -0.532034	 0.141680	 0.000000
H	 2.477194	 -0.841831	 1.044380
C	 0.403459	 -0.663005	 0.600514
N	 -1.937041	 -0.281114	 0.000000
H	 0.114819	 -1.582514	 1.060855
O	 -2.159542	 -1.446261	 0.000000
O	 -2.764978	 0.565773	 0.000000

	symmetry c1
}
set optking {
	frozen_dihedral = ("
		11 9 12 14
	")
}

ee = optimize('scf')
oeprop('DIPOLE', 'QUADRUPOLE', 'MULLIKEN_CHARGES')
f=open( 'psi4out.xyz', 'w' )
f.write( "15  " )
f.write( str(ee) + "\n" )
f.write( MOL.save_string_xyz() )
f.close()
--------------------------------------------------------------------------

    Molecular point group: c1
  Charge       = 0
  Multiplicity = 1
  Basis Set: CC-PVTZ
  Basis Set:
  @DF-RHF Final Energy:  -509.21741995057533
    Total Energy =                       -509.2174199505749357
    Molecular point group: c1
  Basis Set: CC-PVTZ
  Basis Set:
  Basis Set: CC-PVTZ
  Basis Set:
  @DF-RHF Final Energy:  -509.20998161699180
    Total Energy =                       -509.2099816169918540
  Basis Set: CC-PVTZ
  Basis Set:
  Basis Set: CC-PVTZ
  Basis Set:
  @DF-RHF Final Energy:  -509.21739057890710
    Total Energy =                       -509.2173905789074979
  Basis Set: CC-PVTZ
  Basis Set:
  Basis Set: CC-PVTZ
  Basis Set:
  @DF-RHF Final Energy:  -509.21761730533552
    Total Energy =                       -509.2176173053360344
  Basis Set: CC-PVTZ
  Basis Set:
  Basis Set: CC-PVTZ
  Basis Set:
  @DF-RHF Final Energy:  -509.21761838270237
    Total Energy =                       -509.2176183827026534
  Basis Set: CC-PVTZ
  Basis Set:
  Charge       = 0
  Multiplicity = 1
  Basis Set: CC-PVTZ
  Basis Set:

    Orbital Energies (a.u.)
    -----------------------

    Doubly Occupied:

       1A    -20.609044     2A    -20.596254     3A    -20.595704
       4A    -15.850292     5A    -11.328569     6A    -11.310004
       7A    -11.263801     8A    -11.263400     9A    -11.258822
      10A    -11.255420    11A     -1.644668    12A     -1.441737
      13A     -1.427439    14A     -1.203341    15A     -1.096164
      16A     -1.048722    17A     -0.966994    18A     -0.883015
      19A     -0.832295    20A     -0.794687    21A     -0.760536
      22A     -0.741537    23A     -0.726905    24A     -0.711039
      25A     -0.676179    26A     -0.636251    27A     -0.622278
      28A     -0.598133    29A     -0.562296    30A     -0.547807
      31A     -0.525185    32A     -0.494851    33A     -0.492701
      34A     -0.459445    35A     -0.379223    36A     -0.346426

  @DF-RHF Final Energy:  -509.21762040205311

   => Energetics <=

    Nuclear Repulsion Energy =            504.6829941988195856
    One-Electron Energy =               -1695.8989090967352240
    Two-Electron Energy =                 681.9982944958624103
    DFT Exchange-Correlation Energy =       0.0000000000000000
    Empirical Dispersion Energy =           0.0000000000000000
    PCM Polarization Energy =               0.0000000000000000
    EFP Energy =                            0.0000000000000000
    Total Energy =                       -509.2176204020531713
    Molecular point group: c1
  Basis Set: CC-PVTZ
  Basis Set:

  -Total Gradient:
     Atom            X                  Y                   Z
    ------   -----------------  -----------------  -----------------
       1        0.000001315089    -0.000006209388    -0.000010942763
       2       -0.000001016700     0.000018076809     0.000014714508
       3       -0.000001539359    -0.000017755025    -0.000005937294
       4        0.000000939666     0.000005117238    -0.000003028038
       5        0.000005024518    -0.000004717304    -0.000004310194
       6       -0.000000869269    -0.000000383803     0.000002820475
       7        0.000000986705    -0.000008248328    -0.000012695899
       8        0.000001326767     0.000003579391     0.000002708685
       9        0.000513045408    -0.002023875550    -0.004638618247
      10       -0.000000414669    -0.000000159895     0.000001729094
      11       -0.000362693332     0.001387207585     0.002403190026
      12       -0.000165645640     0.000914014344     0.005435012540
      13        0.000002802993     0.000000992350    -0.000004581184
      14       -0.000059434976    -0.000185174437    -0.003180581786
      15        0.000066172796    -0.000082463985     0.000000520075

  **** Optimization is complete! (in 6 steps) ****
    Final optimized geometry and variables:
    Molecular point group: c1

    Geometry (in Angstrom), charge = 0, multiplicity = 1:

    H            0.935855489262     2.845675221717    -1.413640201873
    O            1.659150847919     2.373159853511    -1.041837704783
    C            1.256879346014     1.224423740883    -0.470996220205
    C            2.226014439087     0.435241314324     0.132050477457
    C           -0.062561945415     0.823132292797    -0.462762683731
    H            3.244131497521     0.770399615379     0.122220837618
    C            1.873681949310    -0.751796113305     0.732231529084
    H           -0.835385110322     1.422821136122    -0.898655292628
    C           -0.373827240609    -0.383392982372     0.129254952989
    H            2.628623519281    -1.350075124843     1.203335102832
    C            0.558182381007    -1.185443396148     0.736144555702
    N           -1.778858351780    -0.795480458248     0.151813343908
    H            0.269430974848    -2.110199732660     1.187827849829
    O           -2.005559221054    -1.958077677060     0.176368174924
    O           -2.599680961283     0.060207611354     0.122759304396

  Mulliken Charges: (a.u.)
   Center  Symbol    Alpha    Beta     Spin     Total
       1     H     0.38428  0.38428  0.00000  0.23145
       2     O     4.16809  4.16809  0.00000 -0.33619
       3     C     2.84445  2.84445  0.00000  0.31110
       4     C     3.09886  3.09886  0.00000 -0.19772
       5     C     3.13766  3.13766  0.00000 -0.27531
       6     H     0.41336  0.41336  0.00000  0.17329
       7     C     3.05590  3.05590  0.00000 -0.11180
       8     H     0.41180  0.41180  0.00000  0.17641
       9     C     2.95692  2.95692  0.00000  0.08615
      10     H     0.41605  0.41605  0.00000  0.16790
      11     C     3.10134  3.10134  0.00000 -0.20269
      12     N     3.26234  3.26234  0.00000  0.47532
      13     H     0.40360  0.40360  0.00000  0.19279
      14     O     4.17088  4.17088  0.00000 -0.34176
      15     O     4.17447  4.17447  0.00000 -0.34895

   Total alpha = 36.00000, Total beta = 36.00000, Total charge = -0.00000
