                              Psi4 1.0.54 Driver

  ==> Input File <==

--------------------------------------------------------------------------
set {
	reference rhf
	basis cc-pvtz
}

set_num_threads( 4 )
memory 2 gb

molecule MOL {
0 1

H	 1.051629	 -2.499834	 2.535920
O	 1.217538	 -2.097060	 1.696907
C	 0.422149	 -1.037901	 1.574552
C	 0.626018	 -0.337582	 0.258241
O	 -0.338042	 -0.721940	 2.423151
C	 -0.267326	 0.883135	 0.076490
H	 1.678119	 -0.085901	 0.198252
H	 0.451281	 -1.071522	 -0.522292
C	 -1.726822	 0.642622	 0.463839
H	 -0.210803	 1.217591	 -0.953497
H	 0.129920	 1.693110	 0.675679
C	 -2.480891	 -0.340606	 -0.429852
H	 -2.243098	 1.597649	 0.438609
H	 -1.776542	 0.301208	 1.495542
C	 -3.955933	 -0.460128	 -0.060472
H	 -2.393755	 -0.020485	 -1.464726
H	 -2.024244	 -1.323637	 -0.374360
H	 -4.467673	 -1.160944	 -0.709827
H	 -4.458917	 0.497287	 -0.144505
H	 -4.076458	 -0.806900	 0.960497

	symmetry c1
}
set optking {
	frozen_dihedral = ("
		7 4 6 10
	")
}

ee,wfn = optimize('scf', return_wfn=True)
oeprop( wfn, 'DIPOLE', 'QUADRUPOLE', 'MULLIKEN_CHARGES')
f=open( 'psi4out.xyz', 'w' )
f.write( "20  " )
f.write( str(ee) + "\n" )
f.write( MOL.save_string_xyz() )
f.close()
--------------------------------------------------------------------------

    Molecular point group: c1
  Charge       = 0
  Multiplicity = 1
  Basis Set: CC-PVTZ
  Basis Set:
  @DF-RHF Final Energy:  -384.08501736513222
    Total Energy =                       -384.0850173651316481
    Molecular point group: c1
  Basis Set: CC-PVTZ
  Basis Set:
  Basis Set: CC-PVTZ
  Basis Set:
  @DF-RHF Final Energy:  -384.09022963473711
    Total Energy =                       -384.0902296347373976
  Basis Set: CC-PVTZ
  Basis Set:
  Basis Set: CC-PVTZ
  Basis Set:
  @DF-RHF Final Energy:  -384.09157286516614
    Total Energy =                       -384.0915728651664267
  Basis Set: CC-PVTZ
  Basis Set:
  Basis Set: CC-PVTZ
  Basis Set:
  @DF-RHF Final Energy:  -384.08853308839366
    Total Energy =                       -384.0885330883940014
  Basis Set: CC-PVTZ
  Basis Set:
  @DF-RHF Final Energy:  -384.09213745115977
    Total Energy =                       -384.0921374511598287
  @DF-RHF Final Energy:  -384.09246359367154
    Total Energy =                       -384.0924635936720506
  @DF-RHF Final Energy:  -384.09267038057186
    Total Energy =                       -384.0926703805721445
  Basis Set: CC-PVTZ
  Basis Set:
  @DF-RHF Final Energy:  -384.09273715069224
    Total Energy =                       -384.0927371506920736
  Basis Set: CC-PVTZ
  Basis Set:
  Basis Set: CC-PVTZ
  Basis Set:
  @DF-RHF Final Energy:  -384.09274446410700
    Total Energy =                       -384.0927444641073407
  Basis Set: CC-PVTZ
  Basis Set:
  Basis Set: CC-PVTZ
  Basis Set:
  @DF-RHF Final Energy:  -384.09274595677323
    Total Energy =                       -384.0927459567731148
  Basis Set: CC-PVTZ
  Basis Set:
  Charge       = 0
  Multiplicity = 1
  Basis Set: CC-PVTZ
  Basis Set:

    Orbital Energies (a.u.)
    -----------------------

    Doubly Occupied:

       1A    -20.605830     2A    -20.539440     3A    -11.374111
       4A    -11.239131     5A    -11.224386     6A    -11.215942
       7A    -11.211713     8A    -11.207605     9A     -1.478535
      10A     -1.369146    11A     -1.095342    12A     -1.039389
      13A     -0.959771    14A     -0.872853    15A     -0.817792
      16A     -0.774876    17A     -0.706277    18A     -0.687293
      19A     -0.665141    20A     -0.635098    21A     -0.608145
      22A     -0.593460    23A     -0.576533    24A     -0.557098
      25A     -0.535027    26A     -0.515632    27A     -0.500327
      28A     -0.485601    29A     -0.469494    30A     -0.464628
      31A     -0.455213    32A     -0.440238

  @DF-RHF Final Energy:  -384.09274620427271

   => Energetics <=

    Nuclear Repulsion Energy =            389.8505323866107233
    One-Electron Energy =               -1296.0444194645961034
    Two-Electron Energy =                 522.1011408737128932
    DFT Exchange-Correlation Energy =       0.0000000000000000
    Empirical Dispersion Energy =           0.0000000000000000
    PCM Polarization Energy =               0.0000000000000000
    EFP Energy =                            0.0000000000000000
    Total Energy =                       -384.0927462042725438
    Molecular point group: c1
  Basis Set: CC-PVTZ
  Basis Set:

  -Total Gradient:
     Atom            X                  Y                   Z
    ------   -----------------  -----------------  -----------------
       1        0.000001529696     0.000000625106     0.000001809712
       2        0.000013596560     0.000017150862     0.000004380717
       3        0.000032421807    -0.000015346673    -0.000008899962
       4       -0.000706873883    -0.001568507578    -0.005198902103
       5       -0.000040184925     0.000010429500    -0.000003276507
       6        0.004032334842     0.002853559419     0.002081367194
       7        0.000015684900     0.000885381071     0.004052323896
       8       -0.000018224185     0.000002400529     0.000006437713
       9        0.000029603682    -0.000011302289     0.000012485541
      10       -0.003342318380    -0.002187638975    -0.000936688397
      11       -0.000003027682     0.000001244680    -0.000004558404
      12       -0.000019864085     0.000003872440    -0.000017035716
      13       -0.000001206674     0.000002452896     0.000006965589
      14       -0.000004323490    -0.000003566282     0.000000751822
      15        0.000007526244    -0.000000968674     0.000003251397
      16       -0.000000154150     0.000005238704     0.000002569748
      17        0.000001996550     0.000004031844    -0.000004058212
      18        0.000002845641     0.000001504918     0.000000910907
      19        0.000000303240    -0.000001585272     0.000001522900
      20       -0.000001665707     0.000001023774    -0.000001357830

  **** Optimization is complete! (in 11 steps) ****
    Final optimized geometry and variables:
    Molecular point group: c1

    Geometry (in Angstrom), charge = 0, multiplicity = 1:

    H            1.289280351752    -2.197019018700     1.885270861582
    O            1.371256273863    -1.919736322487     0.984870985483
    C            1.206948737349    -0.601636839429     0.935955878574
    C            1.402039056561    -0.052978315565    -0.454373898797
    O            0.979890265282     0.038447150113     1.904833568464
    C            0.636796110549     1.241882578651    -0.737812648762
    H            2.469809867233     0.144099135775    -0.502549935989
    H            1.184865222156    -0.828376442900    -1.173596298131
    C           -0.872387257622     1.194321463839    -0.478694529534
    H            0.781422802832     1.472870489542    -1.788911378955
    H            1.070327287762     2.046843104734    -0.159332848776
    C           -1.629396057900     0.160605526835    -1.311153296426
    H           -1.273961424246     2.179202157706    -0.699731239916
    H           -1.058862566615     1.021452461694     0.574399437035
    C           -3.138371499934     0.225916258270    -1.098093163007
    H           -1.408075483779     0.311733325238    -2.364901789032
    H           -1.284283947303    -0.840097685170    -1.068384084301
    H           -3.652134562779    -0.519733851670    -1.693896252643
    H           -3.530267449725     1.198856800193    -1.374861929817
    H           -3.393157616060     0.052271561090    -0.058099535742

  Mulliken Charges: (a.u.)
   Center  Symbol    Alpha    Beta     Spin     Total
       1     H     0.38116  0.38116  0.00000  0.23768
       2     O     4.16080  4.16080  0.00000 -0.32160
       3     C     2.79827  2.79827  0.00000  0.40346
       4     C     3.12558  3.12558  0.00000 -0.25116
       5     O     4.19665  4.19665  0.00000 -0.39330
       6     C     3.09350  3.09350  0.00000 -0.18700
       7     H     0.43061  0.43061  0.00000  0.13877
       8     H     0.43104  0.43104  0.00000  0.13792
       9     C     3.10977  3.10977  0.00000 -0.21953
      10     H     0.44686  0.44686  0.00000  0.10627
      11     H     0.44008  0.44008  0.00000  0.11983
      12     C     3.08668  3.08668  0.00000 -0.17336
      13     H     0.44620  0.44620  0.00000  0.10760
      14     H     0.43822  0.43822  0.00000  0.12356
      15     C     3.14957  3.14957  0.00000 -0.29914
      16     H     0.45403  0.45403  0.00000  0.09194
      17     H     0.45487  0.45487  0.00000  0.09025
      18     H     0.44857  0.44857  0.00000  0.10287
      19     H     0.45435  0.45435  0.00000  0.09130
      20     H     0.45318  0.45318  0.00000  0.09364

   Total alpha = 32.00000, Total beta = 32.00000, Total charge = -0.00000

*** Psi4 exiting successfully. Buy a developer a beer!
