  ==> Input File <==

--------------------------------------------------------------------------
set {
	reference rhf
	basis 6-31G*
}

set_num_threads( 1 )
memory 2 gb

molecule MOL {
0 1

H	 -1.836216	 1.387520	 -0.000064
C	 -1.301823	 0.443321	 -0.000031
O	 -0.003969	 0.658512	 0.000451
O	 -1.829879	 -0.616434	 -0.000857
C	 0.714421	 0.338874	 -1.190739
C	 2.170404	 0.671191	 -0.945794
H	 0.303651	 0.912666	 -2.010098
H	 0.573290	 -0.710001	 -1.412637
H	 2.291704	 1.723846	 -0.717239
H	 2.754130	 0.442313	 -1.831294
H	 2.562803	 0.093398	 -0.116899

	symmetry c1
}
set optking {
	frozen_dihedral = ("
		7 5 3 2
	")
}

ee = energy('scf')
oeprop('DIPOLE', 'QUADRUPOLE', 'MULLIKEN_CHARGES')
f=open( 'psi4out.xyz', 'w' )
f.write( "11  " )
f.write( str(ee) + "\n" )
f.write( MOL.save_string_xyz() )
f.close()
--------------------------------------------------------------------------

    Molecular point group: c1

    Geometry (in Angstrom), charge = 0, multiplicity = 1:

       Center              X                  Y                   Z               Mass
    ------------   -----------------  -----------------  -----------------  -----------------
           H         -1.787121148194     1.090457748767     0.429197426310     1.007825032070
           C         -1.252728148194     0.146258748767     0.429230426310    12.000000000000
           O          0.045125851806     0.361449748767     0.429712426310    15.994914619560
           O         -1.780784148194    -0.913496251233     0.428404426310    15.994914619560
           C          0.763515851806     0.041811748767    -0.761477573690    12.000000000000
           C          2.219498851806     0.374128748767    -0.516532573690    12.000000000000
           H          0.352745851806     0.615603748767    -1.580836573690     1.007825032070
           H          0.622384851806    -1.007063251233    -0.983375573690     1.007825032070
           H          2.340798851806     1.426783748767    -0.287977573690     1.007825032070
           H          2.803224851806     0.145250748767    -1.402032573690     1.007825032070
           H          2.611897851806    -0.203664251233     0.312362426310     1.007825032070

  Charge       = 0
  Multiplicity = 1
  Basis Set: 6-31G*
  Basis Set:

    Orbital Energies (a.u.)
    -----------------------

    Doubly Occupied:

       1A    -20.594853     2A    -20.566683     3A    -11.379023
       4A    -11.301622     5A    -11.229676     6A     -1.470969
       7A     -1.376713     8A     -1.053221     9A     -0.895636
      10A     -0.822213    11A     -0.741953    12A     -0.688246
      13A     -0.655643    14A     -0.631875    15A     -0.563388
      16A     -0.543335    17A     -0.534036    18A     -0.503304
      19A     -0.465726    20A     -0.450447

  @DF-RHF Final Energy:  -266.81072140493535

   => Energetics <=

    Nuclear Repulsion Energy =            177.9086971827870229
    One-Electron Energy =                -716.5018007185838087
    Two-Electron Energy =                 271.7823821308620040
    DFT Exchange-Correlation Energy =       0.0000000000000000
    Empirical Dispersion Energy =           0.0000000000000000
    PCM Polarization Energy =               0.0000000000000000
    EFP Energy =                            0.0000000000000000
    Total Energy =                       -266.8107214049347817

  Mulliken Charges: (a.u.)
   Center  Symbol    Alpha    Beta     Spin     Total
       1     H     0.42414  0.42414  0.00000  0.15173
       2     C     2.72887  2.72887  0.00000  0.54225
       3     O     4.29826  4.29826  0.00000 -0.59651
       4     O     4.23986  4.23986  0.00000 -0.47972
       5     C     3.00559  3.00559  0.00000 -0.01119
       6     C     3.24825  3.24825  0.00000 -0.49649
       7     H     0.41835  0.41835  0.00000  0.16331
       8     H     0.40528  0.40528  0.00000  0.18944
       9     H     0.40972  0.40972  0.00000  0.18057
      10     H     0.41569  0.41569  0.00000  0.16862
      11     H     0.40600  0.40600  0.00000  0.18800

   Total alpha = 20.00000, Total beta = 20.00000, Total charge =  0.00000
