  ==> Input File <==

--------------------------------------------------------------------------
set {
	reference rhf
	basis 6-31G*
}

set_num_threads( 4 )
memory 2 gb

molecule MOL {
0 1

O	 -2.821601	 1.309235	 -0.001213
C	 -2.668563	 0.129746	 -0.000350
C	 -3.801572	 -0.864014	 -0.000442
O	 -1.481751	 -0.454642	 0.000584
H	 -4.417280	 -0.689587	 -0.874708
H	 -3.443784	 -1.883046	 -0.000565
H	 -4.417179	 -0.689832	 0.873954
C	 -0.334255	 0.388708	 0.000906
C	 0.891947	 -0.504646	 0.000751
H	 -0.365390	 1.025305	 -0.873475
H	 -0.365484	 1.024911	 0.875569
C	 2.191998	 0.301789	 0.000897
H	 0.855148	 -1.151283	 -0.871571
H	 0.855132	 -1.151660	 0.872805
C	 3.441114	 -0.581407	 0.000108
H	 2.215074	 0.954890	 -0.869742
H	 2.215465	 0.953923	 0.872248
C	 4.382542	 -0.279807	 -1.165060
H	 3.142101	 -1.626499	 -0.037971
H	 3.974398	 -0.450245	 0.938977
H	 3.887558	 -0.434774	 -2.119519
H	 5.257730	 -0.921352	 -1.138564
H	 4.726372	 0.750188	 -1.135045

	symmetry c1
}
set optking {
	frozen_dihedral = ("
		19 15 12 16
	")
}

ee = optimize('scf')
oeprop('DIPOLE', 'QUADRUPOLE', 'MULLIKEN_CHARGES')
f=open( 'psi4out.xyz', 'w' )
f.write( "23  " )
f.write( str(ee) + "\n" )
f.write( MOL.save_string_xyz() )
f.close()
--------------------------------------------------------------------------

    Molecular point group: c1
  Charge       = 0
  Multiplicity = 1
  Basis Set: 6-31G*
  Basis Set:
  @DF-RHF Final Energy:  -422.97366780830708
    Total Energy =                       -422.9736678083074821
    Molecular point group: c1
  Basis Set: 6-31G*
  Basis Set:
  Basis Set: 6-31G*
  Basis Set:
  @DF-RHF Final Energy:  -422.97389606260475
    Total Energy =                       -422.9738960626048083
  Basis Set: 6-31G*
  Basis Set:
  Basis Set: 6-31G*
  Basis Set:
  @DF-RHF Final Energy:  -422.97397019767681
    Total Energy =                       -422.9739701976765218
  Basis Set: 6-31G*
  Basis Set:
  Basis Set: 6-31G*
  Basis Set:
  @DF-RHF Final Energy:  -422.97380734437849
    Total Energy =                       -422.9738073443791109
  Basis Set: 6-31G*
  Basis Set:
  Charge       = 0
  Multiplicity = 1
  Basis Set: 6-31G*
  Basis Set:

    Orbital Energies (a.u.)
    -----------------------

    Doubly Occupied:

       1A    -20.603047     2A    -20.540558     3A    -11.374100
       4A    -11.281284     5A    -11.232401     6A    -11.224733
       7A    -11.223628     8A    -11.221400     9A    -11.213427
      10A     -1.468000    11A     -1.360772    12A     -1.092301
      13A     -1.041057    14A     -1.003219    15A     -0.930489
      16A     -0.843734    17A     -0.802142    18A     -0.774309
      19A     -0.691364    20A     -0.685266    21A     -0.668911
      22A     -0.637379    23A     -0.610472    24A     -0.593185
      25A     -0.581345    26A     -0.570975    27A     -0.551137
      28A     -0.533628    29A     -0.526429    30A     -0.503951
      31A     -0.498867    32A     -0.476002    33A     -0.464112
      34A     -0.463802    35A     -0.451378    36A     -0.435253

  @DF-RHF Final Energy:  -422.97397481944284

   => Energetics <=

    Nuclear Repulsion Energy =            450.3644554358538130
    One-Electron Energy =               -1468.3287503127749005
    Two-Electron Energy =                 594.9903200574781295
    DFT Exchange-Correlation Energy =       0.0000000000000000
    Empirical Dispersion Energy =           0.0000000000000000
    PCM Polarization Energy =               0.0000000000000000
    EFP Energy =                            0.0000000000000000
    Total Energy =                       -422.9739748194429012
    Molecular point group: c1
  Basis Set: 6-31G*
  Basis Set:

  -Total Gradient:
     Atom            X                  Y                   Z
    ------   -----------------  -----------------  -----------------
       1        0.000001017059     0.000001985302     0.000026810123
       2        0.000023917567     0.000017314470    -0.000064494872
       3        0.000004419409    -0.000005645607     0.000023205947
       4        0.000060666773    -0.000024190991     0.000015844500
       5        0.000003562191     0.000001273630    -0.000001658387
       6       -0.000001338796    -0.000001345491     0.000000654913
       7        0.000000478473     0.000000862406    -0.000001901059
       8       -0.000007390045     0.000027816479     0.000002317994
       9       -0.000118241328    -0.000070307188     0.000009087845
      10       -0.000005682919    -0.000002200321    -0.000007377396
      11       -0.000006061891    -0.000001065843     0.000007545792
      12       -0.000601024437    -0.000879766759    -0.000469242266
      13       -0.000022887315    -0.000022531044    -0.000013911585
      14       -0.000031325412    -0.000014898304     0.000000401949
      15        0.000127129500     0.000172118534    -0.001118817079
      16        0.000532632496     0.000802810174     0.000623104204
      17       -0.000020919132     0.000024125619    -0.000031203799
      18        0.000063212200     0.000041346143    -0.000086073996
      19       -0.000005596088    -0.000039051720     0.001158225806
      20       -0.000012463266    -0.000044882991    -0.000012536730
      21        0.000006400628    -0.000004776520    -0.000045530177
      22       -0.000022392755     0.000007131298     0.000006061297
      23        0.000031887092     0.000013878724    -0.000020513022

  **** Optimization is complete! (in 5 steps) ****
    Final optimized geometry and variables:
    Molecular point group: c1

    Geometry (in Angstrom), charge = 0, multiplicity = 1:

    O           -2.786208292110     1.368310425243     0.140851031168
    C           -2.633247622728     0.188813432228     0.138509893750
    C           -3.766370063700    -0.804820834917     0.140471393291
    O           -1.446548312925    -0.395777418095     0.134474769741
    H           -4.385302276051    -0.628463486363    -0.731122087518
    H           -3.408725792794    -1.823901365621     0.136889325644
    H           -4.378689355716    -0.632395244105     1.017516179092
    C           -0.299042029950     0.447493003806     0.132758022256
    C            0.926594076683    -0.445944134479     0.129147478422
    H           -0.331967733626     1.084879700035    -0.741085617215
    H           -0.328067253898     1.083121439642     1.007993157678
    C            2.228023582374     0.359427589817     0.125884399069
    H            0.889024481850    -1.092733443577    -0.743332993187
    H            0.892878302675    -1.093521289095     1.000988281407
    C            3.494834003036    -0.526478409358     0.127139889978
    H            2.242110510901     1.016330042940    -0.740947717671
    H            2.240261042047     1.018255253104     0.990567484572
    C            4.451965326141    -0.222590261956    -1.025539935792
    H            3.208969422449    -1.574307625248     0.087552309334
    H            4.024390536375    -0.404999055526     1.067567173310
    H            3.968632843890    -0.377499759919    -1.986240148802
    H            5.328216368143    -0.862322424820    -0.987773930766
    H            4.792311289580     0.808394780793    -0.990226532705

  Mulliken Charges: (a.u.)
   Center  Symbol    Alpha    Beta     Spin     Total
       1     O     4.28390  4.28390  0.00000 -0.56780
       2     C     2.61534  2.61534  0.00000  0.76932
       3     C     3.28774  3.28774  0.00000 -0.57548
       4     O     4.31255  4.31255  0.00000 -0.62510
       5     H     0.39750  0.39750  0.00000  0.20499
       6     H     0.39987  0.39987  0.00000  0.20025
       7     H     0.39749  0.39749  0.00000  0.20501
       8     C     2.99640  2.99640  0.00000  0.00720
       9     C     3.16669  3.16669  0.00000 -0.33338
      10     H     0.41063  0.41063  0.00000  0.17874
      11     H     0.41066  0.41066  0.00000  0.17869
      12     C     3.16424  3.16424  0.00000 -0.32849
      13     H     0.41417  0.41417  0.00000  0.17166
      14     H     0.41373  0.41373  0.00000  0.17253
      15     C     3.15493  3.15493  0.00000 -0.30985
      16     H     0.41797  0.41797  0.00000  0.16407
      17     H     0.41809  0.41809  0.00000  0.16382
      18     C     3.24033  3.24033  0.00000 -0.48065
      19     H     0.41850  0.41850  0.00000  0.16300
      20     H     0.41843  0.41843  0.00000  0.16314
      21     H     0.42132  0.42132  0.00000  0.15735
      22     H     0.41917  0.41917  0.00000  0.16166
      23     H     0.42035  0.42035  0.00000  0.15930

   Total alpha = 36.00000, Total beta = 36.00000, Total charge = -0.00000
