  ==> Input File <==

--------------------------------------------------------------------------
set {
	reference rhf
	basis 6-31G*
}

set_num_threads( 4 )
memory 2 gb

molecule MOL {
0 1

H	 -3.311784	 0.308560	 0.056749
C	 -2.685298	 0.008686	 -0.780945
O	 -1.392607	 -0.295399	 -0.366433
H	 -3.102458	 -0.882853	 -1.228469
H	 -2.691346	 0.808776	 -1.520030
C	 -0.719715	 0.768384	 0.229244
C	 0.719720	 0.768376	 -0.229267
H	 -1.185038	 1.714362	 -0.050570
H	 -0.750528	 0.687237	 1.313896
O	 1.392611	 -0.295398	 0.366430
H	 0.750534	 0.687200	 -1.313918
H	 1.185043	 1.714359	 0.050526
C	 2.706965	 -0.449871	 -0.062409
H	 2.756559	 -0.644779	 -1.131878
H	 3.305899	 0.433456	 0.155466
H	 3.125548	 -1.294566	 0.467107

	symmetry c1
}
set optking {
	frozen_dihedral = ("
		2 3 6 7
	")
}

ee = optimize('scf')
oeprop('DIPOLE', 'QUADRUPOLE', 'MULLIKEN_CHARGES')
f=open( 'psi4out.xyz', 'w' )
f.write( "16  " )
f.write( str(ee) + "\n" )
f.write( MOL.save_string_xyz() )
f.close()
--------------------------------------------------------------------------

    Molecular point group: c1
  Charge       = 0
  Multiplicity = 1
  Basis Set: 6-31G*
  Basis Set:
  @DF-RHF Final Energy:  -306.97408556812718
    Total Energy =                       -306.9740855681271796
    Molecular point group: c1
  Basis Set: 6-31G*
  Basis Set:
  Basis Set: 6-31G*
  Basis Set:
  @DF-RHF Final Energy:  -306.97429155449385
    Total Energy =                       -306.9742915544936182
  Basis Set: 6-31G*
  Basis Set:
  Basis Set: 6-31G*
  Basis Set:
  @DF-RHF Final Energy:  -306.97435217814450
    Total Energy =                       -306.9743521781444429
  Basis Set: 6-31G*
  Basis Set:
  Charge       = 0
  Multiplicity = 1
  Basis Set: 6-31G*
  Basis Set:

    Orbital Energies (a.u.)
    -----------------------

    Doubly Occupied:

       1A    -20.553170     2A    -20.551464     3A    -11.269059
       4A    -11.268333     5A    -11.265372     6A    -11.263223
       7A     -1.386483     8A     -1.368983     9A     -1.030308
      10A     -0.936913    11A     -0.894654    12A     -0.822155
      13A     -0.685453    14A     -0.677018    15A     -0.656704
      16A     -0.637955    17A     -0.624757    18A     -0.599875
      19A     -0.558539    20A     -0.529429    21A     -0.508309
      22A     -0.474376    23A     -0.469781    24A     -0.416700
      25A     -0.407888

  @DF-RHF Final Energy:  -306.97435311023776

   => Energetics <=

    Nuclear Repulsion Energy =            258.4159373345663653
    One-Electron Energy =                -931.0667796439734047
    Two-Electron Energy =                 365.6764891991691684
    DFT Exchange-Correlation Energy =       0.0000000000000000
    Empirical Dispersion Energy =           0.0000000000000000
    PCM Polarization Energy =               0.0000000000000000
    EFP Energy =                            0.0000000000000000
    Total Energy =                       -306.9743531102378711
    Molecular point group: c1
  Basis Set: 6-31G*
  Basis Set:

  -Total Gradient:
     Atom            X                  Y                   Z
    ------   -----------------  -----------------  -----------------
       1        0.000039193184     0.000005600934     0.000001468903
       2        0.000722539656     0.000490820240    -0.002028983855
       3       -0.001319346208    -0.000360568870     0.002246006991
       4       -0.000037609136    -0.000000489209    -0.000011910860
       5        0.000035162300     0.000002747936     0.000033309075
       6        0.000990573801    -0.001300776551     0.001277153345
       7       -0.000486434831     0.001259222058    -0.001511921489
       8        0.000004754681    -0.000011606244    -0.000014041102
       9        0.000045057410     0.000011621297    -0.000018859981
      10        0.000009106008    -0.000079191434     0.000020296140
      11       -0.000000161654    -0.000034433772     0.000033138250
      12        0.000013790178    -0.000005497713    -0.000005981684
      13       -0.000014482836     0.000026018327    -0.000028655313
      14        0.000007125787    -0.000003974003    -0.000000103378
      15        0.000004710945    -0.000001206018     0.000002504541
      16       -0.000013979285     0.000001713023     0.000006580420

  **** Optimization is complete! (in 4 steps) ****
    Final optimized geometry and variables:
    Molecular point group: c1

    Geometry (in Angstrom), charge = 0, multiplicity = 1:

    H           -3.339722604218     0.220956003369     0.192242190597
    C           -2.698047130004    -0.087763879359    -0.630957406916
    O           -1.403852286424    -0.367875683041    -0.202163268827
    H           -3.099847381790    -0.994608575970    -1.061692715730
    H           -2.707786648412     0.694777945117    -1.387544860415
    C           -0.716969348189     0.703322877109     0.375431918616
    C            0.727506305141     0.699438361399    -0.072068313791
    H           -1.161384682543     1.649968517179     0.072621742725
    H           -0.767390902249     0.640209037337     1.458571968621
    O            1.387654730593    -0.384485621482     0.500193488040
    H            0.764740394616     0.644077463623    -1.158445630305
    H            1.200722043916     1.633927826697     0.234050076463
    C            2.703438805141    -0.539951206377     0.076462886907
    H            2.758887925942    -0.708512353420    -0.997259543180
    H            3.308107339515     0.332589400421     0.320249302943
    H            3.111081987106    -1.401207149451     0.587424398469

  Mulliken Charges: (a.u.)
   Center  Symbol    Alpha    Beta     Spin     Total
       1     H     0.42974  0.42974  0.00000  0.14052
       2     C     3.07964  3.07964  0.00000 -0.15928
       3     O     4.30161  4.30161  0.00000 -0.60322
       4     H     0.41156  0.41156  0.00000  0.17689
       5     H     0.43155  0.43155  0.00000  0.13689
       6     C     2.99451  2.99451  0.00000  0.01097
       7     C     2.99013  2.99013  0.00000  0.01973
       8     H     0.43224  0.43224  0.00000  0.13552
       9     H     0.41727  0.41727  0.00000  0.16545
      10     O     4.30009  4.30009  0.00000 -0.60018
      11     H     0.42671  0.42671  0.00000  0.14659
      12     H     0.43398  0.43398  0.00000  0.13204
      13     C     3.07932  3.07932  0.00000 -0.15864
      14     H     0.42865  0.42865  0.00000  0.14270
      15     H     0.43205  0.43205  0.00000  0.13590
      16     H     0.41094  0.41094  0.00000  0.17812

   Total alpha = 25.00000, Total beta = 25.00000, Total charge =  0.00000
