  ==> Input File <==

--------------------------------------------------------------------------
set {
	reference rhf
	basis 6-31G*
}

set_num_threads( 1 )
memory 2 gb

molecule MOL {
0 1

O	 1.633274	 3.283468	 1.786934
C	 0.948141	 3.134990	 2.751976
C	 -0.327857	 2.312944	 2.720257
C	 1.311544	 3.763130	 4.081839
C	 -0.643232	 1.706786	 1.355946
H	 -0.241347	 1.534154	 3.476822
H	 -1.144038	 2.951406	 3.055843
C	 -1.934231	 0.886402	 1.363157
H	 0.188471	 1.083674	 1.042686
H	 -0.715477	 2.502482	 0.621237
C	 -2.259874	 0.272531	 0.000494
H	 -1.856267	 0.092453	 2.104516
H	 -2.763878	 1.516895	 1.679750
C	 -3.549786	 -0.549746	 -0.000374
H	 -1.431492	 -0.358513	 -0.316659
H	 -2.338905	 1.065366	 -0.741236
C	 -4.809590	 0.315458	 -0.000369
H	 -3.560515	 -1.202009	 -0.871156
H	 -3.561123	 -1.202955	 0.869711
H	 -4.844746	 0.956611	 -0.876632
H	 -5.706986	 -0.295590	 -0.001609
H	 -4.845960	 0.954827	 0.877144
H	 1.429292	 2.997450	 4.843079
H	 2.233713	 4.318713	 3.983019
H	 0.520914	 4.429326	 4.414589

	symmetry c1
}
set optking {
	frozen_dihedral = ("
		9 5 8 12,
		15 11 8 12,
		1 2 3 6,
		9 5 3 6
	")
}

ee = energy('scf')
oeprop('DIPOLE', 'QUADRUPOLE', 'MULLIKEN_CHARGES')
f=open( 'psi4out.xyz', 'w' )
f.write( "25  " )
f.write( str(ee) + "\n" )
f.write( MOL.save_string_xyz() )
f.close()
--------------------------------------------------------------------------

    Molecular point group: c1

    Geometry (in Angstrom), charge = 0, multiplicity = 1:

       Center              X                  Y                   Z               Mass
    ------------   -----------------  -----------------  -----------------  -----------------
           O          2.709740264779     1.596457027164     0.224282155931    15.994914619560
           C          2.024607264779     1.447979027164     1.189324155931    12.000000000000
           C          0.748609264779     0.625933027164     1.157605155931    12.000000000000
           C          2.388010264779     2.076119027164     2.519187155931    12.000000000000
           C          0.433234264779     0.019775027164    -0.206705844069    12.000000000000
           H          0.835119264779    -0.152856972836     1.914170155931     1.007825032070
           H         -0.067571735221     1.264395027164     1.493191155931     1.007825032070
           C         -0.857764735221    -0.800608972836    -0.199494844069    12.000000000000
           H          1.264937264779    -0.603336972836    -0.519965844069     1.007825032070
           H          0.360989264779     0.815471027164    -0.941414844069     1.007825032070
           C         -1.183407735221    -1.414479972836    -1.562157844069    12.000000000000
           H         -0.779800735221    -1.594557972836     0.541864155931     1.007825032070
           H         -1.687411735221    -0.170115972836     0.117098155931     1.007825032070
           C         -2.473319735221    -2.236756972836    -1.563025844069    12.000000000000
           H         -0.355025735221    -2.045523972836    -1.879310844069     1.007825032070
           H         -1.262438735221    -0.621644972836    -2.303887844069     1.007825032070
           C         -3.733123735221    -1.371552972836    -1.563020844069    12.000000000000
           H         -2.484048735221    -2.889019972836    -2.433807844069     1.007825032070
           H         -2.484656735221    -2.889965972836    -0.692940844069     1.007825032070
           H         -3.768279735221    -0.730399972836    -2.439283844069     1.007825032070
           H         -4.630519735221    -1.982600972836    -1.564260844069     1.007825032070
           H         -3.769493735221    -0.732183972836    -0.685507844069     1.007825032070
           H          2.505758264779     1.310439027164     3.280427155931     1.007825032070
           H          3.310179264779     2.631702027164     2.420367155931     1.007825032070
           H          1.597380264779     2.742315027164     2.851937155931     1.007825032070

  Charge       = 0
  Multiplicity = 1
  Basis Set: 6-31G*
  Basis Set:

    Orbital Energies (a.u.)
    -----------------------

    Doubly Occupied:

       1A    -20.550460     2A    -11.326283     3A    -11.231900
       4A    -11.228342     5A    -11.216947     6A    -11.216321
       7A    -11.215142     8A    -11.213180     9A    -11.208733
      10A     -1.395757    11A     -1.094384    12A     -1.056617
      13A     -1.013599    14A     -0.967070    15A     -0.894401
      16A     -0.821794    17A     -0.781992    18A     -0.729656
      19A     -0.658106    20A     -0.653282    21A     -0.625217
      22A     -0.619375    23A     -0.611469    24A     -0.589646
      25A     -0.567881    26A     -0.556506    27A     -0.539650
      28A     -0.521963    29A     -0.515098    30A     -0.492672
      31A     -0.487643    32A     -0.477240    33A     -0.463736
      34A     -0.455122    35A     -0.450483    36A     -0.399451

  @DF-RHF Final Energy:  -387.13438064234475

   => Energetics <=

    Nuclear Repulsion Energy =            442.7304592446087668
    One-Electron Energy =               -1402.0357581144180585
    Two-Electron Energy =                 572.1709182274654495
    DFT Exchange-Correlation Energy =       0.0000000000000000
    Empirical Dispersion Energy =           0.0000000000000000
    PCM Polarization Energy =               0.0000000000000000
    EFP Energy =                            0.0000000000000000
    Total Energy =                       -387.1343806423438991

  Mulliken Charges: (a.u.)
   Center  Symbol    Alpha    Beta     Spin     Total
       1     O     4.26115  4.26115  0.00000 -0.52230
       2     C     2.73573  2.73573  0.00000  0.52854
       3     C     3.21080  3.21080  0.00000 -0.42161
       4     C     3.28663  3.28663  0.00000 -0.57326
       5     C     3.14750  3.14750  0.00000 -0.29501
       6     H     0.41002  0.41002  0.00000  0.17996
       7     H     0.41009  0.41009  0.00000  0.17982
       8     C     3.15559  3.15559  0.00000 -0.31118
       9     H     0.41217  0.41217  0.00000  0.17566
      10     H     0.41217  0.41217  0.00000  0.17567
      11     C     3.15327  3.15327  0.00000 -0.30653
      12     H     0.42481  0.42481  0.00000  0.15039
      13     H     0.42362  0.42362  0.00000  0.15276
      14     C     3.15363  3.15363  0.00000 -0.30727
      15     H     0.42031  0.42031  0.00000  0.15938
      16     H     0.42226  0.42226  0.00000  0.15549
      17     C     3.24080  3.24080  0.00000 -0.48161
      18     H     0.41996  0.41996  0.00000  0.16008
      19     H     0.42347  0.42347  0.00000  0.15306
      20     H     0.42121  0.42121  0.00000  0.15758
      21     H     0.41921  0.41921  0.00000  0.16158
      22     H     0.42169  0.42169  0.00000  0.15662
      23     H     0.40875  0.40875  0.00000  0.18251
      24     H     0.39646  0.39646  0.00000  0.20709
      25     H     0.40870  0.40870  0.00000  0.18259

   Total alpha = 36.00000, Total beta = 36.00000, Total charge = -0.00000
