  ==> Input File <==

--------------------------------------------------------------------------
set {
	reference rhf
	basis cc-pvtz
}

set_num_threads( 4 )
memory 2 gb

molecule MOL {
0 1

H	 -2.820316	 -0.074149	 0.862623
O	 -2.346257	 -0.289210	 0.080372
C	 -1.183935	 0.486039	 -0.009831
C	 0.062853	 -0.375310	 0.027457
H	 -1.178881	 1.094526	 -0.908634
H	 -1.184406	 1.155156	 0.838676
O	 1.172093	 0.457955	 -0.054438
H	 0.052476	 -1.081302	 -0.804627
H	 0.076323	 -0.955658	 0.947560
C	 2.395478	 -0.199028	 -0.000366
H	 2.505946	 -0.901710	 -0.823354
H	 3.174616	 0.545641	 -0.071768
H	 2.513730	 -0.742241	 0.934223

	symmetry c1
}
set optking {
	frozen_dihedral = ("
		1 2 3 5
	")
}

ee = optimize('scf')
oeprop('DIPOLE', 'QUADRUPOLE', 'MULLIKEN_CHARGES')
f=open( 'psi4out.xyz', 'w' )
f.write( "13  " )
f.write( str(ee) + "\n" )
f.write( MOL.save_string_xyz() )
f.close()
--------------------------------------------------------------------------

    Molecular point group: c1
  Charge       = 0
  Multiplicity = 1
  Basis Set: CC-PVTZ
  Basis Set:
  @DF-RHF Final Energy:  -268.06019810607563
    Total Energy =                       -268.0601981060757453
    Molecular point group: c1
  Basis Set: CC-PVTZ
  Basis Set:
  Basis Set: CC-PVTZ
  Basis Set:
  @DF-RHF Final Energy:  -268.06120791614410
    Total Energy =                       -268.0612079161442125
  Basis Set: CC-PVTZ
  Basis Set:
  Basis Set: CC-PVTZ
  Basis Set:
  @DF-RHF Final Energy:  -268.06146355282692
    Total Energy =                       -268.0614635528268082
  Basis Set: CC-PVTZ
  Basis Set:
  Basis Set: CC-PVTZ
  Basis Set:
  @DF-RHF Final Energy:  -268.06146803565775
    Total Energy =                       -268.0614680356578674
  Basis Set: CC-PVTZ
  Basis Set:
  Charge       = 0
  Multiplicity = 1
  Basis Set: CC-PVTZ
  Basis Set:

    Orbital Energies (a.u.)
    -----------------------

    Doubly Occupied:

       1A    -20.553098     2A    -20.551366     3A    -11.267877
       4A    -11.265413     5A    -11.265088     6A     -1.389069
       7A     -1.367539     8A     -1.019253     9A     -0.912428
      10A     -0.835134    11A     -0.715764    12A     -0.679379
      13A     -0.649730    14A     -0.643012    15A     -0.605794
      16A     -0.554316    17A     -0.548119    18A     -0.492341
      19A     -0.479815    20A     -0.441017    21A     -0.421611

  @DF-RHF Final Energy:  -268.06146858262196

   => Energetics <=

    Nuclear Repulsion Energy =            190.4643206251688810
    One-Electron Energy =                -743.7372571912594594
    Two-Electron Energy =                 285.2114679834686513
    DFT Exchange-Correlation Energy =       0.0000000000000000
    Empirical Dispersion Energy =           0.0000000000000000
    PCM Polarization Energy =               0.0000000000000000
    EFP Energy =                            0.0000000000000000
    Total Energy =                       -268.0614685826219556
    Molecular point group: c1
  Basis Set: CC-PVTZ
  Basis Set:

  -Total Gradient:
     Atom            X                  Y                   Z
    ------   -----------------  -----------------  -----------------
       1        0.000009983570    -0.000017778454     0.000006304716
       2        0.000008015793     0.000053991161    -0.000011459238
       3       -0.000059859109    -0.000047778785     0.000026382772
       4       -0.000016080152     0.000021717510    -0.000001964908
       5        0.000025445606    -0.000024459416    -0.000007928060
       6        0.000007774476    -0.000003152752     0.000003571733
       7        0.000032648166     0.000005912398    -0.000014788650
       8        0.000006495726     0.000003647126    -0.000000614534
       9       -0.000018940950     0.000001487834    -0.000000250838
      10        0.000006116366     0.000006958399     0.000003040852
      11       -0.000001740346     0.000001344918    -0.000000039149
      12        0.000001738245    -0.000000925050    -0.000002126194
      13       -0.000001597392    -0.000000964890    -0.000000128501

  **** Optimization is complete! (in 5 steps) ****
    Final optimized geometry and variables:
    Molecular point group: c1

    Geometry (in Angstrom), charge = 0, multiplicity = 1:

    H           -2.854029088888    -0.122293069434     0.761674716907
    O           -2.321608742254    -0.323543462857     0.016988090953
    C           -1.180686674705     0.493636881719    -0.011823047896
    C            0.059793786490    -0.372237384002     0.039135479466
    H           -1.177011535738     1.073005386459    -0.927038328019
    H           -1.167886712814     1.191046965747     0.818227140745
    O            1.173428894678     0.456192169416    -0.050243518218
    H            0.036666728592    -1.084387428958    -0.783146826602
    H            0.073380080947    -0.942049632017     0.966909467663
    C            2.391720353837    -0.211658314211    -0.042777551831
    H            2.474878073642    -0.895767052661    -0.884079738607
    H            3.175692064677     0.527875837974    -0.116302639761
    H            2.529232864512    -0.777965975798     0.875684508744

  Mulliken Charges: (a.u.)
   Center  Symbol    Alpha    Beta     Spin     Total
       1     H     0.38891  0.38891  0.00000  0.22218
       2     O     4.20676  4.20676  0.00000 -0.41352
       3     C     2.97157  2.97157  0.00000  0.05686
       4     C     2.95849  2.95849  0.00000  0.08302
       5     H     0.46166  0.46166  0.00000  0.07669
       6     H     0.46934  0.46934  0.00000  0.06132
       7     O     4.17656  4.17656  0.00000 -0.35313
       8     H     0.47074  0.47074  0.00000  0.05852
       9     H     0.47695  0.47695  0.00000  0.04610
      10     C     3.03097  3.03097  0.00000 -0.06194
      11     H     0.47008  0.47008  0.00000  0.05984
      12     H     0.44685  0.44685  0.00000  0.10629
      13     H     0.47113  0.47113  0.00000  0.05775

   Total alpha = 21.00000, Total beta = 21.00000, Total charge = -0.00000
