  ==> Input File <==

--------------------------------------------------------------------------
set {
	reference rhf
	basis 6-31G*
}

set_num_threads( 4 )
memory 2 gb

molecule MOL {
0 1

H	 -1.964065	 -0.667334	 -2.731131
N	 -1.040175	 -0.798951	 -2.367702
C	 -1.088586	 -1.364182	 -1.030812
H	 -0.601372	 0.100746	 -2.334429
C	 0.315012	 -1.519863	 -0.484178
H	 -1.668980	 -0.769889	 -0.323734
H	 -1.548748	 -2.346027	 -1.085706
O	 0.874168	 -0.245412	 -0.342030
H	 0.289551	 -2.027150	 0.480006
H	 0.910240	 -2.118673	 -1.170010
C	 2.202317	 -0.244239	 0.074611
H	 2.711377	 -1.041390	 -0.449894
H	 2.692099	 0.699270	 -0.159667
H	 2.283185	 -0.418429	 1.145558

	symmetry c1
}
set optking {
	frozen_dihedral = ("
		5 8 11 13
	")
}

ee = optimize('scf')
oeprop('DIPOLE', 'QUADRUPOLE', 'MULLIKEN_CHARGES')
f=open( 'psi4out.xyz', 'w' )
f.write( "14  " )
f.write( str(ee) + "\n" )
f.write( MOL.save_string_xyz() )
f.close()
--------------------------------------------------------------------------

    Molecular point group: c1
  Charge       = 0
  Multiplicity = 1
  Basis Set: 6-31G*
  Basis Set:
  @DF-RHF Final Energy:  -248.12323764218979
    Total Energy =                       -248.1232376421896788
    Molecular point group: c1
  Basis Set: 6-31G*
  Basis Set:
  Basis Set: 6-31G*
  Basis Set:
  @DF-RHF Final Energy:  -248.12407634669299
    Total Energy =                       -248.1240763466930730
  Basis Set: 6-31G*
  Basis Set:
  Basis Set: 6-31G*
  Basis Set:
  @DF-RHF Final Energy:  -248.12431521685352
    Total Energy =                       -248.1243152168536881
  Basis Set: 6-31G*
  Basis Set:
  Basis Set: 6-31G*
  Basis Set:
  @DF-RHF Final Energy:  -248.12431629148821
    Total Energy =                       -248.1243162914882987
  Basis Set: 6-31G*
  Basis Set:
  Charge       = 0
  Multiplicity = 1
  Basis Set: 6-31G*
  Basis Set:

    Orbital Energies (a.u.)
    -----------------------

    Doubly Occupied:

       1A    -20.556669     2A    -15.528285     3A    -11.266116
       4A    -11.265816     5A    -11.240656     6A     -1.380280
       7A     -1.173452     8A     -0.999095     9A     -0.907304
      10A     -0.815114    11A     -0.683217    12A     -0.673638
      13A     -0.644671    14A     -0.610658    15A     -0.605030
      16A     -0.540148    17A     -0.531375    18A     -0.496529
      19A     -0.472170    20A     -0.416661    21A     -0.379958

  @DF-RHF Final Energy:  -248.12431664403778

   => Energetics <=

    Nuclear Repulsion Energy =            194.6118312551242298
    One-Electron Energy =                -723.0986140159733395
    Two-Electron Energy =                 280.3624661168115608
    DFT Exchange-Correlation Energy =       0.0000000000000000
    Empirical Dispersion Energy =           0.0000000000000000
    PCM Polarization Energy =               0.0000000000000000
    EFP Energy =                            0.0000000000000000
    Total Energy =                       -248.1243166440375489
    Molecular point group: c1
  Basis Set: 6-31G*
  Basis Set:

  -Total Gradient:
     Atom            X                  Y                   Z
    ------   -----------------  -----------------  -----------------
       1        0.000000315962    -0.000002935613     0.000003540672
       2        0.000002571970    -0.000002037491     0.000003078828
       3       -0.000006946686     0.000001989294    -0.000000944034
       4       -0.000000224363    -0.000004297615     0.000003997890
       5        0.000618469307    -0.000065744091    -0.001983814073
       6        0.000001839796    -0.000000097921    -0.000002676020
       7       -0.000005180885    -0.000000948943    -0.000003910760
       8       -0.000712216059    -0.000126088894     0.002279990483
       9        0.000002217513     0.000007734640    -0.000002262283
      10        0.000001970718     0.000002312470     0.000002035387
      11       -0.000608344844     0.001130606748     0.001965222872
      12        0.000003137026    -0.000002408609    -0.000000873589
      13        0.000707072532    -0.000942344079    -0.002257131613
      14       -0.000004681989     0.000004260104    -0.000006253767

  **** Optimization is complete! (in 5 steps) ****
    Final optimized geometry and variables:
    Molecular point group: c1

    Geometry (in Angstrom), charge = 0, multiplicity = 1:

    H           -2.225027564152     0.169051627895    -1.895062094744
    N           -1.302327681731     0.028401918928    -1.532086389009
    C           -1.355374644307    -0.540854670363    -0.197032088700
    H           -0.855961884437     0.924204985961    -1.495797012555
    C            0.046763675233    -0.708890858665     0.349894919314
    H           -1.932159634166     0.055006676000     0.511602995644
    H           -1.822289771714    -1.519297839594    -0.255324412855
    O            0.616124523680     0.561411080908     0.490110204386
    H            0.014967583626    -1.218308762338     1.312958959963
    H            0.637543934699    -1.310848219326    -0.336275694579
    C            1.945261205326     0.566407413414     0.908148565391
    H            2.521281838699    -0.208440759538     0.407194611878
    H            2.372785891720     1.524451313747     0.643964267963
    H            2.025027984016     0.415943382981     1.982397778025

  Mulliken Charges: (a.u.)
   Center  Symbol    Alpha    Beta     Spin     Total
       1     H     0.33286  0.33286  0.00000  0.33428
       2     N     3.92531  3.92531  0.00000 -0.85062
       3     C     3.06900  3.06900  0.00000 -0.13800
       4     H     0.32368  0.32368  0.00000  0.35264
       5     C     2.98998  2.98998  0.00000  0.02004
       6     H     0.42661  0.42661  0.00000  0.14677
       7     H     0.42050  0.42050  0.00000  0.15900
       8     O     4.31099  4.31099  0.00000 -0.62198
       9     H     0.43140  0.43140  0.00000  0.13721
      10     H     0.42197  0.42197  0.00000  0.15607
      11     C     3.07767  3.07767  0.00000 -0.15534
      12     H     0.42901  0.42901  0.00000  0.14198
      13     H     0.41354  0.41354  0.00000  0.17292
      14     H     0.42749  0.42749  0.00000  0.14502

   Total alpha = 21.00000, Total beta = 21.00000, Total charge = -0.00000
