  ==> Input File <==

--------------------------------------------------------------------------
set {
	reference rhf
	basis cc-pvtz
}

set_num_threads( 4 )
memory 2 gb

molecule MOL {
0 1

H	 -3.479000	 1.220000	 -1.062000
O	 -3.513000	 0.277000	 -0.982000
C	 -3.244000	 -0.086000	 0.348000
C	 -1.828000	 0.270000	 0.790000
H	 -3.392000	 -1.157000	 0.396000
H	 -3.968000	 0.372000	 1.019000
C	 -0.740000	 -0.425000	 -0.029000
H	 -1.699000	 1.351000	 0.730000
H	 -1.723000	 0.010000	 1.842000
C	 0.676000	 -0.043000	 0.407000
H	 -0.877000	 -0.186000	 -1.079000
H	 -0.866000	 -1.503000	 0.057000
C	 1.760000	 -0.745000	 -0.415000
H	 0.791000	 1.035000	 0.329000
H	 0.809000	 -0.289000	 1.460000
C	 3.196000	 -0.462000	 0.041000
H	 1.655000	 -0.466000	 -1.462000
H	 1.589000	 -1.819000	 -0.371000
C	 3.646000	 0.989000	 -0.140000
H	 3.868000	 -1.107000	 -0.519000
H	 3.304000	 -0.746000	 1.086000
H	 3.537000	 1.305000	 -1.174000
H	 4.691000	 1.105000	 0.131000
H	 3.072000	 1.672000	 0.477000

	symmetry c1
}
ee = optimize('scf')
oeprop('DIPOLE', 'QUADRUPOLE', 'MULLIKEN_CHARGES')
f=open( 'psi4out.xyz', 'w' )
f.write( "24  " )
f.write( str(ee) + "\n" )
f.write( MOL.save_string_xyz() )
f.close()
--------------------------------------------------------------------------

    Molecular point group: c1
  Charge       = 0
  Multiplicity = 1
  Basis Set: CC-PVTZ
  Basis Set:
  @DF-RHF Final Energy:  -349.38029000159338
    Total Energy =                       -349.3802900015934370
    Molecular point group: c1
  Basis Set: CC-PVTZ
  Basis Set:
  Basis Set: CC-PVTZ
  Basis Set:
  @DF-RHF Final Energy:  -349.38040958438523
    Total Energy =                       -349.3804095843856885
  Basis Set: CC-PVTZ
  Basis Set:
  Basis Set: CC-PVTZ
  Basis Set:
  @DF-RHF Final Energy:  -349.38040010975004
    Total Energy =                       -349.3804001097498713
  Basis Set: CC-PVTZ
  Basis Set:
  Basis Set: CC-PVTZ
  Basis Set:
  @DF-RHF Final Energy:  -349.38042108157578
    Total Energy =                       -349.3804210815758893
  Basis Set: CC-PVTZ
  Basis Set:
  Basis Set: CC-PVTZ
  Basis Set:
  @DF-RHF Final Energy:  -349.38043164535480
    Total Energy =                       -349.3804316453550314
  Basis Set: CC-PVTZ
  Basis Set:
  Charge       = 0
  Multiplicity = 1
  Basis Set: CC-PVTZ
  Basis Set:

    Orbital Energies (a.u.)
    -----------------------

    Doubly Occupied:

       1A    -20.546269     2A    -11.265514     3A    -11.215170
       4A    -11.212083     5A    -11.210195     6A    -11.209412
       7A    -11.208950     8A    -11.205295     9A     -1.364081
      10A     -1.089872    11A     -1.049438    12A     -0.986751
      13A     -0.916019    14A     -0.851184    15A     -0.801505
      16A     -0.776635    17A     -0.681871    18A     -0.654632
      19A     -0.626337    20A     -0.621406    21A     -0.598000
      22A     -0.585835    23A     -0.558781    24A     -0.541722
      25A     -0.515958    26A     -0.509946    27A     -0.499835
      28A     -0.473207    29A     -0.468034    30A     -0.461141
      31A     -0.456307    32A     -0.451256    33A     -0.421266

  @DF-RHF Final Energy:  -349.38043215653522

   => Energetics <=

    Nuclear Repulsion Energy =            384.8841448372844525
    One-Electron Energy =               -1236.4613454499517502
    Two-Electron Energy =                 502.1967684561321335
    DFT Exchange-Correlation Energy =       0.0000000000000000
    Empirical Dispersion Energy =           0.0000000000000000
    PCM Polarization Energy =               0.0000000000000000
    EFP Energy =                            0.0000000000000000
    Total Energy =                       -349.3804321565351643
    Molecular point group: c1
  Basis Set: CC-PVTZ
  Basis Set:

  -Total Gradient:
     Atom            X                  Y                   Z
    ------   -----------------  -----------------  -----------------
       1       -0.000004344042     0.000025098748    -0.000026513524
       2       -0.000029404062     0.000061962261    -0.000038783862
       3        0.000025430980    -0.000079260300    -0.000008537128
       4       -0.000007214555     0.000023137194     0.000017729818
       5        0.000022881882    -0.000004819358     0.000044351301
       6        0.000015122395     0.000006456289     0.000003350366
       7       -0.000000112019    -0.000049879780     0.000000680777
       8        0.000003927688     0.000004297071     0.000004118005
       9       -0.000005299999    -0.000004533874     0.000000365005
      10       -0.000003101280     0.000030442084     0.000000803249
      11        0.000010606434    -0.000018602781     0.000017100299
      12        0.000003591880    -0.000003924551    -0.000004769100
      13       -0.000013910619     0.000006007849    -0.000000804830
      14        0.000007325757     0.000011748966    -0.000000214559
      15       -0.000001492240    -0.000007439405    -0.000010876547
      16       -0.000001243497    -0.000003067596    -0.000001886435
      17        0.000006776462     0.000012049146     0.000007315756
      18        0.000002780896    -0.000003336826     0.000000410887
      19       -0.000012951146     0.000001542119     0.000001691331
      20       -0.000011495900    -0.000006344925    -0.000006247946
      21       -0.000002506089     0.000009407220    -0.000001170728
      22        0.000004220912    -0.000004185051    -0.000003349451
      23       -0.000001099560    -0.000007027332     0.000006296437
      24       -0.000008490269     0.000000272834    -0.000001059120

  **** Optimization is complete! (in 6 steps) ****
    Final optimized geometry and variables:
    Molecular point group: c1

    Geometry (in Angstrom), charge = 0, multiplicity = 1:

    H           -3.436473118149     1.252943432715    -1.023892015497
    O           -3.458596305155     0.315260199814    -0.960864731501
    C           -3.176634903803    -0.080824331924     0.355601590558
    C           -1.763371440742     0.265265651396     0.799691055961
    H           -3.321825684557    -1.153438517315     0.379502364381
    H           -3.895468708023     0.357385189945     1.043381701969
    C           -0.673390394750    -0.426948152004    -0.013392115374
    H           -1.631049432136     1.344913360748     0.747559957442
    H           -1.664587489425    -0.001623988768     1.849167541932
    C            0.737841849172    -0.043158768534     0.423758838193
    H           -0.806102973032    -0.190517939193    -1.063344743864
    H           -0.797220830667    -1.503753126964     0.074145722711
    C            1.824000074817    -0.743223754559    -0.390623365188
    H            0.850587486782     1.033776893451     0.343840109223
    H            0.868586682129    -0.286314082740     1.476203286159
    C            3.255956822163    -0.453067389572     0.062318687677
    H            1.718249708406    -0.470598769369    -1.438163945982
    H            1.658104318137    -1.815849616607    -0.339904062824
    C            3.707029085231     0.992336523011    -0.133857042429
    H            3.928200644193    -1.104096283625    -0.488157764402
    H            3.362666686085    -0.724561218926     1.109373886369
    H            3.605810935706     1.294044111261    -1.171548416342
    H            4.748332857195     1.111028490678     0.143343094125
    H            3.129882200099     1.683078020617     0.468956391655

  Mulliken Charges: (a.u.)
   Center  Symbol    Alpha    Beta     Spin     Total
       1     H     0.39530  0.39530  0.00000  0.20941
       2     O     4.20374  4.20374  0.00000 -0.40747
       3     C     2.97766  2.97766  0.00000  0.04468
       4     C     3.10172  3.10172  0.00000 -0.20344
       5     H     0.45892  0.45892  0.00000  0.08216
       6     H     0.46033  0.46033  0.00000  0.07935
       7     C     3.08684  3.08684  0.00000 -0.17368
       8     H     0.45933  0.45933  0.00000  0.08134
       9     H     0.45339  0.45339  0.00000  0.09321
      10     C     3.09168  3.09168  0.00000 -0.18337
      11     H     0.44641  0.44641  0.00000  0.10717
      12     H     0.45505  0.45505  0.00000  0.08989
      13     C     3.09454  3.09454  0.00000 -0.18907
      14     H     0.45340  0.45340  0.00000  0.09319
      15     H     0.45619  0.45619  0.00000  0.08762
      16     C     3.09015  3.09015  0.00000 -0.18031
      17     H     0.45358  0.45358  0.00000  0.09283
      18     H     0.44970  0.44970  0.00000  0.10059
      19     C     3.15250  3.15250  0.00000 -0.30500
      20     H     0.44859  0.44859  0.00000  0.10282
      21     H     0.45522  0.45522  0.00000  0.08955
      22     H     0.45486  0.45486  0.00000  0.09029
      23     H     0.44662  0.44662  0.00000  0.10676
      24     H     0.45426  0.45426  0.00000  0.09149

   Total alpha = 33.00000, Total beta = 33.00000, Total charge = -0.00000
