                              Psi4 1.0.54 Driver

  ==> Input File <==

--------------------------------------------------------------------------
set {
	reference rhf
	basis cc-pvtz
}

set_num_threads( 4 )
memory 2 gb

molecule MOL {
0 1

H	 -3.162190	 0.493205	 -0.000107
C	 -2.363908	 -0.234727	 0.000005
O	 -1.158738	 0.454634	 -0.000087
H	 -2.464314	 -0.863616	 -0.882153
H	 -2.464327	 -0.863359	 0.882345
C	 -0.028611	 -0.359694	 0.000037
C	 1.212847	 0.509314	 -0.000053
H	 -0.034155	 -1.007047	 -0.877198
H	 -0.034195	 -1.006836	 0.877430
C	 2.054891	 0.321939	 1.257008
H	 1.799400	 0.273622	 -0.881149
H	 0.908835	 1.545912	 -0.094886
H	 2.390438	 -0.704778	 1.358725
H	 2.934273	 0.953612	 1.230576
H	 1.494029	 0.576294	 2.150208

	symmetry c1
}
set optking {
	frozen_dihedral = ("
		11 7 6 8
	")
}

ee,wfn = optimize('scf', return_wfn=True)
oeprop( wfn, 'DIPOLE', 'QUADRUPOLE', 'MULLIKEN_CHARGES')
f=open( 'psi4out.xyz', 'w' )
f.write( "15  " )
f.write( str(ee) + "\n" )
f.write( MOL.save_string_xyz() )
f.close()
--------------------------------------------------------------------------

    Molecular point group: c1
  Charge       = 0
  Multiplicity = 1
  Basis Set: CC-PVTZ
  Basis Set:
  @DF-RHF Final Energy:  -232.22203134737941
    Total Energy =                       -232.2220313473793567
    Molecular point group: c1
  Basis Set: CC-PVTZ
  Basis Set:
  Basis Set: CC-PVTZ
  Basis Set:
  @DF-RHF Final Energy:  -232.22239693967563
    Total Energy =                       -232.2223969396757184
  Basis Set: CC-PVTZ
  Basis Set:
  Basis Set: CC-PVTZ
  Basis Set:
  @DF-RHF Final Energy:  -232.22252097560181
    Total Energy =                       -232.2225209756018671
  Basis Set: CC-PVTZ
  Basis Set:
  Charge       = 0
  Multiplicity = 1
  Basis Set: CC-PVTZ
  Basis Set:

    Orbital Energies (a.u.)
    -----------------------

    Doubly Occupied:

       1A    -20.547888     2A    -11.264705     3A    -11.261527
       4A    -11.212540     5A    -11.208335     6A     -1.381331
       7A     -1.054180     8A     -0.954644     9A     -0.879667
      10A     -0.808714    11A     -0.671337    12A     -0.660196
      13A     -0.633307    14A     -0.592418    15A     -0.574856
      16A     -0.545899    17A     -0.492402    18A     -0.490580
      19A     -0.481103    20A     -0.462349    21A     -0.413917

  @DF-RHF Final Energy:  -232.22252154029439

   => Energetics <=

    Nuclear Repulsion Energy =            190.4502706967249992
    One-Electron Energy =                -692.1618048150668301
    Two-Electron Energy =                 269.4890125780474932
    DFT Exchange-Correlation Energy =       0.0000000000000000
    Empirical Dispersion Energy =           0.0000000000000000
    PCM Polarization Energy =               0.0000000000000000
    EFP Energy =                            0.0000000000000000
    Total Energy =                       -232.2225215402943377
    Molecular point group: c1
  Basis Set: CC-PVTZ
  Basis Set:

  -Total Gradient:
     Atom            X                  Y                   Z
    ------   -----------------  -----------------  -----------------
       1       -0.000029484043    -0.000026055668    -0.000001414523
       2       -0.000051289653     0.000040131795     0.000012291039
       3        0.000049985017    -0.000074946325    -0.000012472109
       4        0.000002080694     0.000003434835     0.000012985334
       5       -0.000008884949    -0.000001939361    -0.000012374093
       6       -0.000698684917     0.001194936860    -0.000714429588
       7        0.000784265993    -0.001124892610     0.000661320546
       8        0.000498493987    -0.000766779402     0.000501758662
       9       -0.000029411742     0.000019388463    -0.000014534523
      10        0.000021623598    -0.000022188815     0.000049035540
      11       -0.000525830292     0.000773698669    -0.000472071857
      12        0.000003847570    -0.000016220879     0.000002194878
      13       -0.000000369463     0.000007838880    -0.000002364841
      14       -0.000019514402    -0.000004246804    -0.000012012236
      15        0.000003172601    -0.000002159640     0.000002087770

  **** Optimization is complete! (in 4 steps) ****
    Final optimized geometry and variables:
    Molecular point group: c1

    Geometry (in Angstrom), charge = 0, multiplicity = 1:

    H           -3.084892541079     0.364623024622    -0.179357326012
    C           -2.284148628302    -0.358060007190    -0.242245042860
    O           -1.081427575291     0.334629191798    -0.219799244424
    H           -2.399503812893    -0.928245665696    -1.161829591578
    H           -2.366043261322    -1.044399978252     0.598150539788
    C            0.050800262442    -0.478138774039    -0.295496480641
    C            1.311037638023     0.391677867550    -0.248465983220
    H            0.020285311005    -1.068460519241    -1.209420886588
    H            0.046162544466    -1.184559541910     0.533707351158
    C            2.171925663419     0.158726113272     0.988725710163
    H            1.903308608031     0.229415921003    -1.142044359358
    H            0.989214432257     1.424733805564    -0.279972156195
    H            2.529722347123    -0.864683241648     1.034156182388
    H            3.037868625644     0.810445754055     0.989088733020
    H            1.607967180734     0.353232060391     1.894545473061

  Mulliken Charges: (a.u.)
   Center  Symbol    Alpha    Beta     Spin     Total
       1     H     0.44707  0.44707  0.00000  0.10585
       2     C     3.02951  3.02951  0.00000 -0.05901
       3     O     4.17205  4.17205  0.00000 -0.34410
       4     H     0.47215  0.47215  0.00000  0.05570
       5     H     0.47297  0.47297  0.00000  0.05405
       6     C     2.96398  2.96398  0.00000  0.07205
       7     C     3.08683  3.08683  0.00000 -0.17367
       8     H     0.47254  0.47254  0.00000  0.05491
       9     H     0.47544  0.47544  0.00000  0.04911
      10     C     3.15109  3.15109  0.00000 -0.30218
      11     H     0.45258  0.45258  0.00000  0.09484
      12     H     0.44537  0.44537  0.00000  0.10927
      13     H     0.45706  0.45706  0.00000  0.08587
      14     H     0.44943  0.44943  0.00000  0.10115
      15     H     0.45192  0.45192  0.00000  0.09615

   Total alpha = 21.00000, Total beta = 21.00000, Total charge =  0.00000

*** Psi4 exiting successfully. Buy a developer a beer!
