  ==> Input File <==

--------------------------------------------------------------------------
set {
	reference rhf
	basis 6-31G*
}

set_num_threads( 1 )
memory 2 gb

molecule MOL {
0 1

H	 2.176868	 -0.646004	 -0.217325
O	 1.337496	 -0.537251	 0.205931
C	 0.702312	 0.627605	 -0.264544
C	 -0.714990	 0.596302	 0.266387
H	 0.682322	 0.642550	 -1.350929
H	 1.215941	 1.520383	 0.085680
O	 -1.405996	 -0.526611	 -0.195820
H	 -1.257453	 1.468809	 -0.075599
H	 -0.688972	 0.618407	 1.353696
H	 -1.053371	 -0.752469	 -1.047088

	symmetry c1
}
set optking {
	frozen_dihedral = ("
		5 3 4 7
	")
}

ee = energy('scf')
oeprop('DIPOLE', 'QUADRUPOLE', 'MULLIKEN_CHARGES')
f=open( 'psi4out.xyz', 'w' )
f.write( "10  " )
f.write( str(ee) + "\n" )
f.write( MOL.save_string_xyz() )
f.close()
--------------------------------------------------------------------------

    Molecular point group: c1

    Geometry (in Angstrom), charge = 0, multiplicity = 1:

       Center              X                  Y                   Z               Mass
    ------------   -----------------  -----------------  -----------------  -----------------
           H          2.179512207550    -0.654780932074    -0.199955981743     1.007825032070
           O          1.340140207550    -0.546027932074     0.223300018257    15.994914619560
           C          0.704956207550     0.618828067926    -0.247174981743    12.000000000000
           C         -0.712345792450     0.587525067926     0.283756018257    12.000000000000
           H          0.684966207550     0.633773067926    -1.333559981743     1.007825032070
           H          1.218585207550     1.511606067926     0.103049018257     1.007825032070
           O         -1.403351792450    -0.535387932074    -0.178450981743    15.994914619560
           H         -1.254808792450     1.460032067926    -0.058229981743     1.007825032070
           H         -0.686327792450     0.609630067926     1.371065018257     1.007825032070
           H         -1.050726792450    -0.761245932074    -1.029718981743     1.007825032070

  Charge       = 0
  Multiplicity = 1
  Basis Set: 6-31G*
  Basis Set:

    Orbital Energies (a.u.)
    -----------------------

    Doubly Occupied:

       1A    -20.563630     2A    -20.549186     3A    -11.282057
       4A    -11.268975     5A     -1.379041     6A     -1.351121
       7A     -1.003217     8A     -0.848824     9A     -0.720640
      10A     -0.672855    11A     -0.660262    12A     -0.600443
      13A     -0.572393    14A     -0.545498    15A     -0.473757
      16A     -0.452594    17A     -0.435991

  @DF-RHF Final Energy:  -228.91643415506920

   => Energetics <=

    Nuclear Repulsion Energy =            134.5116251783658470
    One-Electron Energy =                -580.0952393190154908
    Two-Electron Energy =                 216.6671799855804750
    DFT Exchange-Correlation Energy =       0.0000000000000000
    Empirical Dispersion Energy =           0.0000000000000000
    PCM Polarization Energy =               0.0000000000000000
    EFP Energy =                            0.0000000000000000
    Total Energy =                       -228.9164341550691404

  Mulliken Charges: (a.u.)
   Center  Symbol    Alpha    Beta     Spin     Total
       1     H     0.27938  0.27938  0.00000  0.44124
       2     O     4.36413  4.36413  0.00000 -0.72825
       3     C     3.02734  3.02734  0.00000 -0.05468
       4     C     2.98587  2.98587  0.00000  0.02825
       5     H     0.43332  0.43332  0.00000  0.13336
       6     H     0.42369  0.42369  0.00000  0.15261
       7     O     4.36549  4.36549  0.00000 -0.73098
       8     H     0.42902  0.42902  0.00000  0.14196
       9     H     0.41105  0.41105  0.00000  0.17789
      10     H     0.28071  0.28071  0.00000  0.43858

   Total alpha = 17.00000, Total beta = 17.00000, Total charge =  0.00000
