  ==> Input File <==

--------------------------------------------------------------------------
set {
	reference rhf
	basis 6-31G*
}

set_num_threads( 4 )
memory 2 gb

molecule MOL {
0 1

H	 -1.748661	 -2.220942	 -0.005015
C	 -1.343207	 -1.225221	 -0.013879
N	 -0.055091	 -1.100174	 -0.261126
C	 -2.150779	 -0.125890	 0.222726
C	 0.449969	 0.122615	 -0.277109
H	 -3.200618	 -0.238980	 0.422496
N	 -1.660212	 1.097703	 0.209594
C	 -0.371804	 1.219904	 -0.038265
C	 1.928147	 0.267347	 -0.541394
H	 0.029131	 2.217482	 -0.051283
C	 2.759223	 -0.795583	 0.184901
H	 2.092487	 0.185378	 -1.610570
H	 2.254245	 1.258325	 -0.241733
H	 3.812957	 -0.679878	 -0.048029
H	 2.451472	 -1.790241	 -0.115805
H	 2.642167	 -0.715633	 1.261105

	symmetry c1
}
set optking {
	frozen_dihedral = ("
		12 9 5 3
	")
}

ee = optimize('scf')
oeprop('DIPOLE', 'QUADRUPOLE', 'MULLIKEN_CHARGES')
f=open( 'psi4out.xyz', 'w' )
f.write( "16  " )
f.write( str(ee) + "\n" )
f.write( MOL.save_string_xyz() )
f.close()
--------------------------------------------------------------------------

    Molecular point group: c1
  Charge       = 0
  Multiplicity = 1
  Basis Set: 6-31G*
  Basis Set:
  @DF-RHF Final Energy:  -340.75751582458082
    Total Energy =                       -340.7575158245810485
    Molecular point group: c1
  Basis Set: 6-31G*
  Basis Set:
  Basis Set: 6-31G*
  Basis Set:
  @DF-RHF Final Energy:  -340.75770094832995
    Total Energy =                       -340.7577009483298980
  Basis Set: 6-31G*
  Basis Set:
  Basis Set: 6-31G*
  Basis Set:
  @DF-RHF Final Energy:  -340.75778938572347
    Total Energy =                       -340.7577893857234130
  Basis Set: 6-31G*
  Basis Set:
  Basis Set: 6-31G*
  Basis Set:
  @DF-RHF Final Energy:  -340.75778648179966
    Total Energy =                       -340.7577864817995987
  Basis Set: 6-31G*
  Basis Set:
  Basis Set: 6-31G*
  Basis Set:
  @DF-RHF Final Energy:  -340.75779859276440
    Total Energy =                       -340.7577985927643454
  Basis Set: 6-31G*
  Basis Set:
  Charge       = 0
  Multiplicity = 1
  Basis Set: 6-31G*
  Basis Set:

    Orbital Energies (a.u.)
    -----------------------

    Doubly Occupied:

       1A    -15.586843     2A    -15.582127     3A    -11.282068
       4A    -11.276349     5A    -11.272103     6A    -11.271891
       7A    -11.233848     8A    -11.213909     9A     -1.313517
      10A     -1.222093    11A     -1.083610    12A     -1.013400
      13A     -0.908128    14A     -0.890292    15A     -0.825742
      16A     -0.717365    17A     -0.707606    18A     -0.658540
      19A     -0.620617    20A     -0.602351    21A     -0.571967
      22A     -0.559918    23A     -0.521785    24A     -0.503895
      25A     -0.500126    26A     -0.485443    27A     -0.429324
      28A     -0.394620    29A     -0.345023

  @DF-RHF Final Energy:  -340.75779941676285

   => Energetics <=

    Nuclear Repulsion Energy =            349.6915064156644348
    One-Electron Energy =               -1153.7096099253551529
    Two-Electron Energy =                 463.2603040929278677
    DFT Exchange-Correlation Energy =       0.0000000000000000
    Empirical Dispersion Energy =           0.0000000000000000
    PCM Polarization Energy =               0.0000000000000000
    EFP Energy =                            0.0000000000000000
    Total Energy =                       -340.7577994167628503
    Molecular point group: c1
  Basis Set: 6-31G*
  Basis Set:

  -Total Gradient:
     Atom            X                  Y                   Z
    ------   -----------------  -----------------  -----------------
       1       -0.000023012024     0.000005428667    -0.000006000419
       2        0.000187267015    -0.000081574814    -0.000021826218
       3        0.000027210737    -0.000166410565     0.000825760429
       4       -0.000019717734     0.000222341041     0.000044788633
       5       -0.000226211168     0.000530054263    -0.001121091046
       6       -0.000006671139    -0.000015888831    -0.000020895696
       7       -0.000206365328    -0.000146740212     0.000048917333
       8        0.000201161390    -0.000066226725    -0.000100338998
       9        0.000160540247    -0.001211580092     0.000407749930
      10       -0.000012664997    -0.000012944179     0.000003840667
      11        0.000002763301     0.000057756309     0.000004602017
      12       -0.000100066671     0.000945018670    -0.000083930121
      13        0.000010063952    -0.000014589022     0.000010634354
      14        0.000008014912    -0.000023759274     0.000007906032
      15       -0.000013409675    -0.000014525648    -0.000014616251
      16        0.000011097184    -0.000006359583     0.000014499355

  **** Optimization is complete! (in 6 steps) ****
    Final optimized geometry and variables:
    Molecular point group: c1

    Geometry (in Angstrom), charge = 0, multiplicity = 1:

    H           -1.779923876635    -2.130947589435     0.053335537871
    C           -1.363420578198    -1.139752135925     0.044371676385
    N           -0.068805463188    -1.031488306564    -0.182607525694
    C           -2.160493891655    -0.031285194766     0.264060672078
    C            0.452523796870     0.182602293002    -0.195524459981
    H           -3.214694220855    -0.129974340503     0.447824496885
    N           -1.652692380474     1.186538429975     0.258601150575
    C           -0.360156102649     1.291112026715     0.032769225511
    C            1.930606942205     0.329775497922    -0.475586400715
    H            0.055151861052     2.283002202243     0.032776717078
    C            2.800132166829    -0.706009930745     0.237629429261
    H            2.084335314418     0.258684730447    -1.549964635888
    H            2.242174447473     1.330692104532    -0.192818888924
    H            3.845867238211    -0.549366057241    -0.006343462631
    H            2.525994355965    -1.710414139426    -0.056725635565
    H            2.690928365407    -0.630161752737     1.314794282648

  Mulliken Charges: (a.u.)
   Center  Symbol    Alpha    Beta     Spin     Total
       1     H     0.39391  0.39391  0.00000  0.21218
       2     C     2.98930  2.98930  0.00000  0.02141
       3     N     3.75637  3.75637  0.00000 -0.51274
       4     C     2.99847  2.99847  0.00000  0.00305
       5     C     2.87052  2.87052  0.00000  0.25897
       6     H     0.39421  0.39421  0.00000  0.21157
       7     N     3.72876  3.72876  0.00000 -0.45751
       8     C     3.00059  3.00059  0.00000 -0.00118
       9     C     3.17079  3.17079  0.00000 -0.34159
      10     H     0.39505  0.39505  0.00000  0.20990
      11     C     3.24038  3.24038  0.00000 -0.48076
      12     H     0.40621  0.40621  0.00000  0.18758
      13     H     0.41431  0.41431  0.00000  0.17138
      14     H     0.41881  0.41881  0.00000  0.16238
      15     H     0.40398  0.40398  0.00000  0.19205
      16     H     0.41833  0.41833  0.00000  0.16333

   Total alpha = 29.00000, Total beta = 29.00000, Total charge = -0.00000
