  ==> Input File <==

--------------------------------------------------------------------------
set {
	reference rhf
	basis 6-31G*
}

set_num_threads( 4 )
memory 2 gb

molecule MOL {
0 1

H	 2.591676	 2.013956	 0.335017
O	 3.341076	 1.666752	 -0.126416
C	 3.569581	 0.339145	 0.272707
C	 2.539767	 -0.640285	 -0.279495
H	 4.553106	 0.084646	 -0.100901
H	 3.608576	 0.269204	 1.359154
C	 1.115811	 -0.397273	 0.226630
H	 2.556196	 -0.582511	 -1.364741
H	 2.852081	 -1.648031	 -0.010655
C	 0.649943	 -1.467303	 1.218004
H	 0.436108	 -0.366878	 -0.620391
H	 1.063793	 0.580469	 0.705854
C	 -0.738414	 -1.225208	 1.821489
H	 0.665075	 -2.439520	 0.728706
H	 1.372535	 -1.525511	 2.029283
C	 -1.897931	 -1.309877	 0.825080
H	 -0.902273	 -1.959751	 2.607246
H	 -0.753137	 -0.252235	 2.310308
C	 -3.268017	 -1.166542	 1.491231
H	 -1.852264	 -2.263653	 0.301310
H	 -1.795001	 -0.539481	 0.064687
C	 -4.426940	 -1.244272	 0.497993
H	 -3.385383	 -1.943400	 2.243696
H	 -3.312014	 -0.218400	 2.023186
H	 -4.429878	 -2.195150	 -0.027406
H	 -5.383770	 -1.141427	 1.000520
H	 -4.358751	 -0.456550	 -0.247130

	symmetry c1
}
set optking {
	frozen_dihedral = ("
		10 7 4 8
	")
}

ee = optimize('scf')
oeprop('DIPOLE', 'QUADRUPOLE', 'MULLIKEN_CHARGES')
f=open( 'psi4out.xyz', 'w' )
f.write( "27  " )
f.write( str(ee) + "\n" )
f.write( MOL.save_string_xyz() )
f.close()
--------------------------------------------------------------------------

    Molecular point group: c1
  Charge       = 0
  Multiplicity = 1
  Basis Set: 6-31G*
  Basis Set:
  @DF-RHF Final Energy:  -388.27628162650785
    Total Energy =                       -388.2762816265080801
    Molecular point group: c1
  Basis Set: 6-31G*
  Basis Set:
  Basis Set: 6-31G*
  Basis Set:
  @DF-RHF Final Energy:  -388.27655113192054
    Total Energy =                       -388.2765511319208827
  Basis Set: 6-31G*
  Basis Set:
  Basis Set: 6-31G*
  Basis Set:
  @DF-RHF Final Energy:  -388.27675502811195
    Total Energy =                       -388.2767550281121203
  Basis Set: 6-31G*
  Basis Set:
  Basis Set: 6-31G*
  Basis Set:
  @DF-RHF Final Energy:  -388.27676749276179
    Total Energy =                       -388.2767674927612234
  Basis Set: 6-31G*
  Basis Set:
  Basis Set: 6-31G*
  Basis Set:
  @DF-RHF Final Energy:  -388.27677491688360
    Total Energy =                       -388.2767749168842784
  Basis Set: 6-31G*
  Basis Set:
  Basis Set: 6-31G*
  Basis Set:
  @DF-RHF Final Energy:  -388.27677659234746
    Total Energy =                       -388.2767765923478009
  Basis Set: 6-31G*
  Basis Set:
  Charge       = 0
  Multiplicity = 1
  Basis Set: 6-31G*
  Basis Set:

    Orbital Energies (a.u.)
    -----------------------

    Doubly Occupied:

       1A    -20.551313     2A    -11.267022     3A    -11.221700
       4A    -11.219338     5A    -11.216903     6A    -11.216736
       7A    -11.215681     8A    -11.215101     9A    -11.209856
      10A     -1.358479    11A     -1.095830    12A     -1.061049
      13A     -1.011242    14A     -0.948359    15A     -0.889843
      16A     -0.823587    17A     -0.801749    18A     -0.778541
      19A     -0.696128    20A     -0.647733    21A     -0.631753
      22A     -0.616547    23A     -0.606667    24A     -0.585468
      25A     -0.574833    26A     -0.558142    27A     -0.542287
      28A     -0.525148    29A     -0.512404    30A     -0.497181
      31A     -0.485504    32A     -0.475285    33A     -0.468724
      34A     -0.462023    35A     -0.447683    36A     -0.439525
      37A     -0.425910

  @DF-RHF Final Energy:  -388.27677639147169

   => Energetics <=

    Nuclear Repulsion Energy =            458.9280433933113272
    One-Electron Energy =               -1435.8070952578168544
    Two-Electron Energy =                 588.6022754730333872
    DFT Exchange-Correlation Energy =       0.0000000000000000
    Empirical Dispersion Energy =           0.0000000000000000
    PCM Polarization Energy =               0.0000000000000000
    EFP Energy =                            0.0000000000000000
    Total Energy =                       -388.2767763914721399
    Molecular point group: c1
  Basis Set: 6-31G*
  Basis Set:

  -Total Gradient:
     Atom            X                  Y                   Z
    ------   -----------------  -----------------  -----------------
       1       -0.000012991413     0.000021364956    -0.000010604990
       2       -0.000058191889    -0.000022214996     0.000055245490
       3        0.000096838602    -0.000049320152    -0.000101259064
       4        0.000198220412     0.001952418672    -0.000253270379
       5        0.000021928898    -0.000063657300     0.000036660789
       6       -0.000051173360     0.000046544239    -0.000021639633
       7        0.000546145107     0.000580729692     0.001401247389
       8       -0.000311020024    -0.001755262705    -0.000088122188
       9        0.000038489357     0.000006818742    -0.000016834006
      10       -0.000468065819    -0.000716712624    -0.000989501597
      11       -0.000000264799     0.000005635585     0.000000476319
      12       -0.000011503395     0.000024815837    -0.000010720340
      13       -0.000008532030    -0.000049713096    -0.000019868789
      14       -0.000000081609    -0.000012978657    -0.000000955703
      15       -0.000014745453    -0.000010175270     0.000013568649
      16        0.000015308727     0.000029103590     0.000007748371
      17       -0.000002532775     0.000004633495     0.000018878367
      18        0.000006624960     0.000011421418    -0.000030596796
      19        0.000000341945    -0.000013918643     0.000011298486
      20        0.000010443305     0.000010525694    -0.000002986466
      21        0.000010286797     0.000013245762    -0.000002068275
      22       -0.000002396910    -0.000014226005     0.000002357162
      23       -0.000002892648     0.000003245697     0.000010576127
      24        0.000000733983     0.000000669476    -0.000009513916
      25       -0.000002242139    -0.000000196242    -0.000003125064
      26       -0.000001107520    -0.000002823269    -0.000000406212
      27        0.000002379685     0.000000026103     0.000003416266

  **** Optimization is complete! (in 7 steps) ****
    Final optimized geometry and variables:
    Molecular point group: c1

    Geometry (in Angstrom), charge = 0, multiplicity = 1:

    H            2.456634649351     2.588448764630    -0.481833962678
    O            3.265532669152     2.229041329724    -0.816679645228
    C            3.434254947476     0.916888580679    -0.345751697319
    C            2.414369356009    -0.060123661641    -0.919365926630
    H            4.431941474892     0.625119971931    -0.647217870128
    H            3.404903997153     0.895273340415     0.743351818460
    C            0.969189603856     0.161204094392    -0.419797996839
    H            2.456025042435     0.000689590334    -2.002072881432
    H            2.733279098583    -1.068176576160    -0.662289483010
    C            0.503258576806    -0.918111053233     0.563172924997
    H            0.294029922921     0.193927734672    -1.267918028624
    H            0.879361505771     1.133905052308     0.063402525775
    C           -0.881719044770    -0.680361142161     1.174690555711
    H            0.514907109723    -1.883230595521     0.059889715542
    H            1.229059165976    -0.990813012427     1.371291169993
    C           -2.043971942050    -0.741699903350     0.179710877363
    H           -1.046945730061    -1.427390755941     1.948303101086
    H           -0.890675324074     0.284221616659     1.680251714753
    C           -3.411938047883    -0.609909280814     0.852611318978
    H           -2.001590376321    -1.684656613234    -0.363701609056
    H           -1.941245239636     0.044125378503    -0.564603264126
    C           -4.573785899761    -0.668477912649    -0.138495613465
    H           -3.527629270769    -1.400425418585     1.591001659215
    H           -3.453714638869     0.328333646699     1.401996115709
    H           -4.579064444209    -1.609601007770    -0.681180567233
    H           -5.529011627483    -0.574209541209     0.368704540931
    H           -4.507046041764     0.132737872424    -0.869157168053

  Mulliken Charges: (a.u.)
   Center  Symbol    Alpha    Beta     Spin     Total
       1     H     0.28001  0.28001  0.00000  0.43997
       2     O     4.37145  4.37145  0.00000 -0.74291
       3     C     2.99751  2.99751  0.00000  0.00498
       4     C     3.16689  3.16689  0.00000 -0.33379
       5     H     0.41486  0.41486  0.00000  0.17029
       6     H     0.43215  0.43215  0.00000  0.13570
       7     C     3.16058  3.16058  0.00000 -0.32116
       8     H     0.41164  0.41164  0.00000  0.17671
       9     H     0.42080  0.42080  0.00000  0.15840
      10     C     3.15503  3.15503  0.00000 -0.31006
      11     H     0.41385  0.41385  0.00000  0.17231
      12     H     0.43350  0.43350  0.00000  0.13301
      13     C     3.15404  3.15404  0.00000 -0.30808
      14     H     0.42152  0.42152  0.00000  0.15696
      15     H     0.42216  0.42216  0.00000  0.15568
      16     C     3.15278  3.15278  0.00000 -0.30557
      17     H     0.42105  0.42105  0.00000  0.15789
      18     H     0.42454  0.42454  0.00000  0.15093
      19     C     3.15120  3.15120  0.00000 -0.30240
      20     H     0.42407  0.42407  0.00000  0.15186
      21     H     0.42235  0.42235  0.00000  0.15531
      22     C     3.23925  3.23925  0.00000 -0.47849
      23     H     0.42292  0.42292  0.00000  0.15416
      24     H     0.42321  0.42321  0.00000  0.15358
      25     H     0.42164  0.42164  0.00000  0.15672
      26     H     0.41913  0.41913  0.00000  0.16174
      27     H     0.42186  0.42186  0.00000  0.15628

   Total alpha = 37.00000, Total beta = 37.00000, Total charge = -0.00000
