                              Psi4 1.0.54 Driver

  ==> Input File <==

--------------------------------------------------------------------------
set {
	reference rhf
	basis cc-pvtz
}

set_num_threads( 4 )
memory 2 gb

molecule MOL {
0 1

H	 -3.294565	 0.569785	 0.000000
C	 -2.246225	 0.343737	 0.000000
C	 -1.809462	 -0.973484	 0.000000
C	 -1.312577	 1.353775	 0.000000
H	 -2.523539	 -1.775124	 0.000000
C	 -0.467257	 -1.267606	 0.000000
H	 -1.631287	 2.379013	 0.000000
C	 0.046966	 1.074396	 0.000000
H	 -0.119372	 -2.281828	 0.000000
C	 0.471772	 -0.241514	 0.000000
H	 0.748162	 1.882966	 0.000000
O	 1.760432	 -0.625184	 0.000000
C	 2.773565	 0.334879	 0.000000
H	 2.728295	 0.960928	 -0.884150
H	 3.706387	 -0.206610	 -0.000000
H	 2.728295	 0.960928	 0.884150

	symmetry c1
}
set optking {
	frozen_dihedral = ("
		13 12 10 8
	")
}

ee,wfn = optimize('scf', return_wfn=True)
oeprop( wfn, 'DIPOLE', 'QUADRUPOLE', 'MULLIKEN_CHARGES')
f=open( 'psi4out.xyz', 'w' )
f.write( "16  " )
f.write( str(ee) + "\n" )
f.write( MOL.save_string_xyz() )
f.close()
--------------------------------------------------------------------------

    Molecular point group: c1
  Charge       = 0
  Multiplicity = 1
  Basis Set: CC-PVTZ
  Basis Set:

    Orbital Energies (a.u.)
    -----------------------

    Doubly Occupied:

       1A    -20.580710     2A    -11.293787     3A    -11.278586
       4A    -11.231233     5A    -11.229997     6A    -11.221796
       7A    -11.217967     8A    -11.216842     9A     -1.420258
      10A     -1.150928    11A     -1.025821    12A     -1.016625
      13A     -0.944445    14A     -0.834527    15A     -0.808286
      16A     -0.726444    17A     -0.667828    18A     -0.666373
      19A     -0.661291    20A     -0.619483    21A     -0.590117
      22A     -0.579342    23A     -0.528315    24A     -0.523825
      25A     -0.512487    26A     -0.478708    27A     -0.467955
      28A     -0.339777    29A     -0.309937

  @DF-RHF Final Energy:  -344.70375779529007

   => Energetics <=

    Nuclear Repulsion Energy =            348.9247867968757078
    One-Electron Energy =               -1158.9697128882285142
    Two-Electron Energy =                 465.3411682960623921
    DFT Exchange-Correlation Energy =       0.0000000000000000
    Empirical Dispersion Energy =           0.0000000000000000
    PCM Polarization Energy =               0.0000000000000000
    EFP Energy =                            0.0000000000000000
    Total Energy =                       -344.7037577952904712
    Molecular point group: c1
  Basis Set: CC-PVTZ
  Basis Set:

  -Total Gradient:
     Atom            X                  Y                   Z
    ------   -----------------  -----------------  -----------------
       1        0.000010528900     0.000007369574     0.000000015322
       2       -0.000049716197    -0.000053011447     0.000000006335
       3       -0.000047985256    -0.000000255561     0.000000000209
       4        0.000047616206     0.000042152642    -0.000000004080
       5        0.000004989726     0.000000823035     0.000000007496
       6        0.000049195998     0.000001759740    -0.000000007294
       7       -0.000000144358    -0.000002790113     0.000000003209
       8        0.000020572502     0.000029868669    -0.000000003190
       9       -0.000009382358     0.000003152560    -0.000000007223
      10        0.000041254868    -0.000090464372     0.000000000817
      11        0.000029986775     0.000001805387    -0.000000007469
      12       -0.000012257664     0.000071250103    -0.000000002208
      13       -0.000059326389    -0.000014607751    -0.000000000418
      14       -0.000006959674     0.000000917332     0.000001038660
      15       -0.000011414891     0.000001111008    -0.000000000368
      16       -0.000006958183     0.000000919190    -0.000001039797

  **** Optimization is complete! (in 1 steps) ****
    Final optimized geometry and variables:
    Molecular point group: c1

    Geometry (in Angstrom), charge = 0, multiplicity = 1:

    H           -3.294565450694     0.569785239852     0.000000000000
    C           -2.246225450694     0.343737239852     0.000000000000
    C           -1.809462450694    -0.973483760148     0.000000000000
    C           -1.312577450694     1.353775239852     0.000000000000
    H           -2.523539450694    -1.775123760148     0.000000000000
    C           -0.467257450694    -1.267605760148     0.000000000000
    H           -1.631287450694     2.379013239852     0.000000000000
    C            0.046965549306     1.074396239852     0.000000000000
    H           -0.119372450694    -2.281827760148     0.000000000000
    C            0.471771549306    -0.241513760148     0.000000000000
    H            0.748161549306     1.882966239852     0.000000000000
    O            1.760431549306    -0.625183760148     0.000000000000
    C            2.773564549306     0.334879239852     0.000000000000
    H            2.728294549306     0.960928239852    -0.884150000000
    H            3.706386549306    -0.206609760148     0.000000000000
    H            2.728294549306     0.960928239852     0.884150000000

  Mulliken Charges: (a.u.)
   Center  Symbol    Alpha    Beta     Spin     Total
       1     H     0.42442  0.42442  0.00000  0.15117
       2     C     3.10101  3.10101  0.00000 -0.20201
       3     C     3.05793  3.05793  0.00000 -0.11585
       4     C     3.06156  3.06156  0.00000 -0.12311
       5     H     0.42300  0.42300  0.00000  0.15400
       6     C     3.11177  3.11177  0.00000 -0.22354
       7     H     0.42366  0.42366  0.00000  0.15269
       8     C     3.14417  3.14417  0.00000 -0.28834
       9     H     0.42101  0.42101  0.00000  0.15798
      10     C     2.84992  2.84992  0.00000  0.30017
      11     H     0.42254  0.42254  0.00000  0.15493
      12     O     4.15061  4.15061  0.00000 -0.30122
      13     C     3.04490  3.04490  0.00000 -0.08980
      14     H     0.46240  0.46240  0.00000  0.07520
      15     H     0.43872  0.43872  0.00000  0.12255
      16     H     0.46240  0.46240  0.00000  0.07520

   Total alpha = 29.00000, Total beta = 29.00000, Total charge = -0.00000

*** Psi4 exiting successfully. Buy a developer a beer!
