  ==> Input File <==

--------------------------------------------------------------------------
set {
	reference rhf
	basis 6-31G*
}

set_num_threads( 4 )
memory 2 gb

molecule MOL {
0 1

H	 -3.135461	 -1.215070	 0.001379
O	 -2.310168	 -0.871793	 -0.309793
C	 -2.026376	 0.340750	 0.341611
C	 -0.673256	 0.843270	 -0.132153
H	 -2.792215	 1.080697	 0.115987
H	 -2.013526	 0.200402	 1.421792
C	 0.486613	 -0.083066	 0.235839
H	 -0.715586	 0.970948	 -1.210718
H	 -0.508072	 1.829858	 0.297090
C	 0.765248	 -0.120712	 1.739421
H	 1.378736	 0.236967	 -0.292564
H	 0.264762	 -1.091045	 -0.112873
C	 1.920541	 -1.050924	 2.107764
H	 0.987784	 0.885304	 2.088889
H	 -0.132858	 -0.435074	 2.267650
H	 2.841580	 -0.741695	 1.622012
H	 2.096720	 -1.055752	 3.179157
H	 1.713915	 -2.072847	 1.802004

	symmetry c1
}
set optking {
	frozen_dihedral = ("
		10 7 4 8
	")
}

ee = optimize('scf')
oeprop('DIPOLE', 'QUADRUPOLE', 'MULLIKEN_CHARGES')
f=open( 'psi4out.xyz', 'w' )
f.write( "18  " )
f.write( str(ee) + "\n" )
f.write( MOL.save_string_xyz() )
f.close()
--------------------------------------------------------------------------

    Molecular point group: c1
  Charge       = 0
  Multiplicity = 1
  Basis Set: 6-31G*
  Basis Set:
  @DF-RHF Final Energy:  -271.17787952417723
    Total Energy =                       -271.1778795241771149
    Molecular point group: c1
  Basis Set: 6-31G*
  Basis Set:
  Basis Set: 6-31G*
  Basis Set:
  @DF-RHF Final Energy:  -271.17827791284287
    Total Energy =                       -271.1782779128428160
  Basis Set: 6-31G*
  Basis Set:
  Basis Set: 6-31G*
  Basis Set:
  @DF-RHF Final Energy:  -271.17844528478406
    Total Energy =                       -271.1784452847841749
  Basis Set: 6-31G*
  Basis Set:
  Basis Set: 6-31G*
  Basis Set:
  @DF-RHF Final Energy:  -271.17845095495818
    Total Energy =                       -271.1784509549581799
  Basis Set: 6-31G*
  Basis Set:
  Charge       = 0
  Multiplicity = 1
  Basis Set: 6-31G*
  Basis Set:

    Orbital Energies (a.u.)
    -----------------------

    Doubly Occupied:

       1A    -20.553232     2A    -11.267495     3A    -11.212337
       4A    -11.211039     5A    -11.206275     6A    -11.204966
       7A     -1.359834     8A     -1.074218     9A     -1.006974
      10A     -0.913242    11A     -0.829855    12A     -0.771555
      13A     -0.703510    14A     -0.646970    15A     -0.622880
      16A     -0.583879    17A     -0.563460    18A     -0.554178
      19A     -0.534193    20A     -0.501533    21A     -0.487458
      22A     -0.465226    23A     -0.455353    24A     -0.448509
      25A     -0.428198

  @DF-RHF Final Energy:  -271.17845150773201

   => Energetics <=

    Nuclear Repulsion Energy =            252.9073422134913471
    One-Electron Energy =                -868.9588496468750236
    Two-Electron Energy =                 344.8730559256515562
    DFT Exchange-Correlation Energy =       0.0000000000000000
    Empirical Dispersion Energy =           0.0000000000000000
    PCM Polarization Energy =               0.0000000000000000
    EFP Energy =                            0.0000000000000000
    Total Energy =                       -271.1784515077321203
    Molecular point group: c1
  Basis Set: 6-31G*
  Basis Set:

  -Total Gradient:
     Atom            X                  Y                   Z
    ------   -----------------  -----------------  -----------------
       1       -0.000006956913    -0.000019243536    -0.000003548453
       2       -0.000052475603     0.000011282223     0.000014879501
       3        0.000051116947     0.000055438245    -0.000090127170
       4       -0.000350248559    -0.000480145807    -0.000011147923
       5       -0.000053788533    -0.000044727524     0.000003108565
       6        0.000043493679     0.000007235985    -0.000018008912
       7       -0.000322593769    -0.000345407723     0.000051991674
       8        0.000318277218     0.000500256025     0.000064115156
       9        0.000003054042     0.000037483281     0.000000297535
      10        0.000349223850     0.000364848013    -0.000118363724
      11        0.000011817259    -0.000019682059     0.000006781424
      12        0.000034547883    -0.000031499854     0.000014872138
      13       -0.000024961239    -0.000025592253     0.000061658258
      14        0.000010927798    -0.000008878664    -0.000009340106
      15       -0.000003047444     0.000001649759     0.000020605508
      16       -0.000026404741     0.000019436658     0.000011370723
      17        0.000015665857    -0.000032410079     0.000017495930
      18        0.000002352275     0.000009957311    -0.000016640121

  **** Optimization is complete! (in 5 steps) ****
    Final optimized geometry and variables:
    Molecular point group: c1

    Geometry (in Angstrom), charge = 0, multiplicity = 1:

    H           -2.818283058913    -0.994906677854    -0.653771244958
    O           -1.968396963344    -0.687905423804    -0.935272340647
    C           -1.699242683820     0.561442589942    -0.350306978530
    C           -0.319093612889     1.019863594024    -0.794799128613
    H           -2.439487912235     1.295167715010    -0.664453619505
    H           -1.750857325238     0.493823112000     0.734079299616
    C            0.830303333163     0.085237915252    -0.401440429001
    H           -0.334972411825     1.127995243764    -1.875542216693
    H           -0.143568764542     2.013016515291    -0.384695902964
    C            1.123539600187     0.030285317627     1.100156654627
    H            1.728754504818     0.419233813732    -0.916610581637
    H            0.617832996145    -0.913413122658    -0.768958305611
    C            2.325344402121    -0.854624074454     1.430984054591
    H            1.305028716469     1.037563294707     1.470908604382
    H            0.254432398123    -0.342216917711     1.635951450607
    H            3.226763713953    -0.487974505508     0.947995274997
    H            2.511569492152    -0.884014663144     2.500324312734
    H            2.163109891953    -1.874710259532     1.094829543752

  Mulliken Charges: (a.u.)
   Center  Symbol    Alpha    Beta     Spin     Total
       1     H     0.28064  0.28064  0.00000  0.43872
       2     O     4.36974  4.36974  0.00000 -0.73949
       3     C     2.99844  2.99844  0.00000  0.00312
       4     C     3.16244  3.16244  0.00000 -0.32489
       5     H     0.42930  0.42930  0.00000  0.14139
       6     H     0.43092  0.43092  0.00000  0.13817
       7     C     3.15459  3.15459  0.00000 -0.30918
       8     H     0.41377  0.41377  0.00000  0.17247
       9     H     0.42438  0.42438  0.00000  0.15123
      10     C     3.15411  3.15411  0.00000 -0.30822
      11     H     0.42383  0.42383  0.00000  0.15234
      12     H     0.40745  0.40745  0.00000  0.18511
      13     C     3.23885  3.23885  0.00000 -0.47771
      14     H     0.42587  0.42587  0.00000  0.14826
      15     H     0.42216  0.42216  0.00000  0.15569
      16     H     0.42231  0.42231  0.00000  0.15538
      17     H     0.42072  0.42072  0.00000  0.15855
      18     H     0.42048  0.42048  0.00000  0.15904

   Total alpha = 25.00000, Total beta = 25.00000, Total charge =  0.00000
