  ==> Input File <==

--------------------------------------------------------------------------
set {
	reference rhf
	basis 6-31G*
}

set_num_threads( 1 )
memory 2 gb

molecule MOL {
0 1

O	 -0.291628	 1.323815	 -0.000732
C	 -0.449655	 0.146360	 0.000961
C	 -1.783294	 -0.549321	 -0.000296
O	 0.550821	 -0.724572	 0.000672
H	 -1.863538	 -1.185371	 -0.874187
H	 -2.574672	 0.185258	 -0.002793
H	 -1.866414	 -1.182381	 0.875436
C	 1.177128	 -0.982128	 -1.243388
H	 0.466150	 -1.385511	 -1.949893
H	 1.952511	 -1.703828	 -1.039238
H	 1.605159	 -0.076088	 -1.647398

	symmetry c1
}
set optking {
	frozen_dihedral = ("
		2 4 8 9
	")
}

ee = energy('scf')
oeprop('DIPOLE', 'QUADRUPOLE', 'MULLIKEN_CHARGES')
f=open( 'psi4out.xyz', 'w' )
f.write( "11  " )
f.write( str(ee) + "\n" )
f.write( MOL.save_string_xyz() )
f.close()
--------------------------------------------------------------------------

    Molecular point group: c1

    Geometry (in Angstrom), charge = 0, multiplicity = 1:

       Center              X                  Y                   Z               Mass
    ------------   -----------------  -----------------  -----------------  -----------------
           O         -0.145447499679     1.491650447832     0.263839229533    15.994914619560
           C         -0.303474499679     0.314195447832     0.265532229533    12.000000000000
           C         -1.637113499679    -0.381485552168     0.264275229533    12.000000000000
           O          0.697001500321    -0.556736552168     0.265243229533    15.994914619560
           H         -1.717357499679    -1.017535552168    -0.609615770467     1.007825032070
           H         -2.428491499679     0.353093447832     0.261778229533     1.007825032070
           H         -1.720233499679    -1.014545552168     1.140007229533     1.007825032070
           C          1.323308500321    -0.814292552168    -0.978816770467    12.000000000000
           H          0.612330500321    -1.217675552168    -1.685321770467     1.007825032070
           H          2.098691500321    -1.535992552168    -0.774666770467     1.007825032070
           H          1.751339500321     0.091747447832    -1.382826770467     1.007825032070

  Charge       = 0
  Multiplicity = 1
  Basis Set: 6-31G*
  Basis Set:

    Orbital Energies (a.u.)
    -----------------------

    Doubly Occupied:

       1A    -20.589114     2A    -20.555726     3A    -11.377698
       4A    -11.295505     5A    -11.235655     6A     -1.466132
       7A     -1.368344     8A     -1.028755     9A     -0.967137
      10A     -0.781518    11A     -0.694798    12A     -0.684963
      13A     -0.672869    14A     -0.610998    15A     -0.590532
      16A     -0.574881    17A     -0.544416    18A     -0.493153
      19A     -0.460240    20A     -0.441044

  @DF-RHF Final Energy:  -266.81605512901638

   => Energetics <=

    Nuclear Repulsion Energy =            183.1455487671594540
    One-Electron Energy =                -727.0561859295463591
    Two-Electron Energy =                 277.0945820333707843
    DFT Exchange-Correlation Energy =       0.0000000000000000
    Empirical Dispersion Energy =           0.0000000000000000
    PCM Polarization Energy =               0.0000000000000000
    EFP Energy =                            0.0000000000000000
    Total Energy =                       -266.8160551290161493

  Mulliken Charges: (a.u.)
   Center  Symbol    Alpha    Beta     Spin     Total
       1     O     4.25636  4.25636  0.00000 -0.51272
       2     C     2.63138  2.63138  0.00000  0.73723
       3     C     3.28450  3.28450  0.00000 -0.56901
       4     O     4.30355  4.30355  0.00000 -0.60710
       5     H     0.40718  0.40718  0.00000  0.18564
       6     H     0.39841  0.39841  0.00000  0.20318
       7     H     0.39811  0.39811  0.00000  0.20378
       8     C     3.09274  3.09274  0.00000 -0.18548
       9     H     0.42079  0.42079  0.00000  0.15842
      10     H     0.40157  0.40157  0.00000  0.19686
      11     H     0.40540  0.40540  0.00000  0.18919

   Total alpha = 20.00000, Total beta = 20.00000, Total charge =  0.00000
