                              Psi4 1.0.54 Driver

  ==> Input File <==

--------------------------------------------------------------------------
set {
	reference rhf
	basis cc-pvtz
}

set_num_threads( 4 )
memory 2 gb

molecule MOL {
0 1

H	 2.828711	 -0.346904	 0.001083
C	 1.876752	 0.015931	 -0.363450
C	 0.776285	 -0.474665	 0.563092
H	 1.728113	 -0.357244	 -1.367440
H	 1.906171	 1.096574	 -0.386153
N	 -0.540022	 0.017605	 0.071630
H	 0.707111	 -1.548969	 0.573035
H	 0.886169	 -0.084184	 1.560432
O	 -0.871081	 -0.314047	 -1.016764
O	 -1.154502	 0.731037	 0.791231

	symmetry c1
}
set optking {
	frozen_dihedral = ("
		9 6 3 2
	")
}

ee,wfn = optimize('scf', return_wfn=True)
oeprop( wfn, 'DIPOLE', 'QUADRUPOLE', 'MULLIKEN_CHARGES')
f=open( 'psi4out.xyz', 'w' )
f.write( "10  " )
f.write( str(ee) + "\n" )
f.write( MOL.save_string_xyz() )
f.close()
--------------------------------------------------------------------------

    Molecular point group: c1
  Charge       = 0
  Multiplicity = 1
  Basis Set: CC-PVTZ
  Basis Set:
  @DF-RHF Final Energy:  -282.81301794898513
    Total Energy =                       -282.8130179489851912
    Molecular point group: c1
  Basis Set: CC-PVTZ
  Basis Set:
  Basis Set: CC-PVTZ
  Basis Set:
  @DF-RHF Final Energy:  -282.80792889708073
    Total Energy =                       -282.8079288970807283
  Basis Set: CC-PVTZ
  Basis Set:
  Basis Set: CC-PVTZ
  Basis Set:
  @DF-RHF Final Energy:  -282.81256175094188
    Total Energy =                       -282.8125617509417680
  Basis Set: CC-PVTZ
  Basis Set:
  Basis Set: CC-PVTZ
  Basis Set:
  @DF-RHF Final Energy:  -282.81315526035490
    Total Energy =                       -282.8131552603550176
  Basis Set: CC-PVTZ
  Basis Set:
  Basis Set: CC-PVTZ
  Basis Set:
  @DF-RHF Final Energy:  -282.81295952326792
    Total Energy =                       -282.8129595232678639
  Basis Set: CC-PVTZ
  Basis Set:
  Basis Set: CC-PVTZ
  Basis Set:
  @DF-RHF Final Energy:  -282.81322437057725
    Total Energy =                       -282.8132243705773590
  Basis Set: CC-PVTZ
  Basis Set:
  Charge       = 0
  Multiplicity = 1
  Basis Set: CC-PVTZ
  Basis Set:

    Orbital Energies (a.u.)
    -----------------------

    Doubly Occupied:

       1A    -20.594039     2A    -20.590339     3A    -15.838755
       4A    -11.302159     5A    -11.248567     6A     -1.638067
       7A     -1.422402     8A     -1.125571     9A     -0.966910
      10A     -0.838505    11A     -0.764382    12A     -0.742042
      13A     -0.730771    14A     -0.655574    15A     -0.590843
      16A     -0.562210    17A     -0.544705    18A     -0.489315
      19A     -0.479384    20A     -0.455456

  @DF-RHF Final Energy:  -282.81322491805599

   => Energetics <=

    Nuclear Repulsion Energy =            186.6729448685723014
    One-Electron Energy =                -755.8123456306927892
    Two-Electron Energy =                 286.3261758440644371
    DFT Exchange-Correlation Energy =       0.0000000000000000
    Empirical Dispersion Energy =           0.0000000000000000
    PCM Polarization Energy =               0.0000000000000000
    EFP Energy =                            0.0000000000000000
    Total Energy =                       -282.8132249180559938
    Molecular point group: c1
  Basis Set: CC-PVTZ
  Basis Set:

  -Total Gradient:
     Atom            X                  Y                   Z
    ------   -----------------  -----------------  -----------------
       1        0.000003810758    -0.000001118428    -0.000005993011
       2        0.000017635589    -0.000138390033    -0.000131449535
       3        0.000011158355     0.000272940079     0.000147176391
       4        0.000005578760    -0.000004047175    -0.000008807247
       5       -0.000009302953    -0.000015193720     0.000007296977
       6       -0.000184679307    -0.000382779126    -0.000065614049
       7        0.000008378384     0.000011204186    -0.000015595066
       8       -0.000025636658     0.000004973572    -0.000004077387
       9        0.000159281196     0.000247470267     0.000049909216
      10        0.000013775879     0.000004940377     0.000027153713

  **** Optimization is complete! (in 7 steps) ****
    Final optimized geometry and variables:
    Molecular point group: c1

    Geometry (in Angstrom), charge = 0, multiplicity = 1:

    H            2.855525511812    -0.170148793057    -0.083642563349
    C            1.876694885268     0.127852743944    -0.436508971880
    C            0.830449029291    -0.406010202208     0.524325238092
    H            1.727977882380    -0.268950901100    -1.429243011861
    H            1.845974114711     1.208981292250    -0.479964858690
    N           -0.539063936875    -0.009905641096     0.087793624479
    H            0.821136531531    -1.485300590147     0.539491692992
    H            0.944070063494    -0.019761945053     1.521565231864
    O           -0.891529991128    -0.381531516618    -0.981321264703
    O           -1.183878557948     0.645211115812     0.834279778071

  Mulliken Charges: (a.u.)
   Center  Symbol    Alpha    Beta     Spin     Total
       1     H     0.44854  0.44854  0.00000  0.10291
       2     C     3.14137  3.14137  0.00000 -0.28275
       3     C     3.03822  3.03822  0.00000 -0.07643
       4     H     0.43687  0.43687  0.00000  0.12627
       5     H     0.44474  0.44474  0.00000  0.11053
       6     N     3.27789  3.27789  0.00000  0.44423
       7     H     0.43727  0.43727  0.00000  0.12546
       8     H     0.43233  0.43233  0.00000  0.13535
       9     O     4.17439  4.17439  0.00000 -0.34879
      10     O     4.16839  4.16839  0.00000 -0.33678

   Total alpha = 20.00000, Total beta = 20.00000, Total charge =  0.00000

*** Psi4 exiting successfully. Buy a developer a beer!
