  ==> Input File <==

--------------------------------------------------------------------------
set {
	reference rhf
	basis cc-pvtz
}

set_num_threads( 4 )
memory 2 gb

molecule MOL {
0 1

O	 -1.510770	 1.240811	 -0.054933
C	 -1.081510	 0.147522	 0.122720
C	 0.327029	 -0.064006	 0.641890
C	 -1.903028	 -1.084121	 -0.174656
C	 1.349460	 -0.017068	 -0.500215
H	 0.399029	 -1.014606	 1.159950
H	 0.538021	 0.726928	 1.350471
C	 1.995313	 -1.373341	 -0.759336
H	 0.867970	 0.331786	 -1.409229
H	 2.111742	 0.712254	 -0.252543
H	 2.720489	 -1.309937	 -1.561912
H	 1.254581	 -2.114745	 -1.039317
H	 2.508947	 -1.735223	 0.124458
H	 -1.341891	 -1.779207	 -0.789259
H	 -2.820449	 -0.808163	 -0.671328
H	 -2.133314	 -1.593056	 0.755831

	symmetry c1
}
set optking {
	frozen_dihedral = ("
		9 5 3 2
	")
}

ee = optimize('scf')
oeprop('DIPOLE', 'QUADRUPOLE', 'MULLIKEN_CHARGES')
f=open( 'psi4out.xyz', 'w' )
f.write( "16  " )
f.write( str(ee) + "\n" )
f.write( MOL.save_string_xyz() )
f.close()
--------------------------------------------------------------------------

    Molecular point group: c1
  Charge       = 0
  Multiplicity = 1
  Basis Set: CC-PVTZ
  Basis Set:
  @DF-RHF Final Energy:  -270.12325784387133
    Total Energy =                       -270.1232578438709879
    Molecular point group: c1
  Basis Set: CC-PVTZ
  Basis Set:
  Basis Set: CC-PVTZ
  Basis Set:
  @DF-RHF Final Energy:  -270.12359569204580
    Total Energy =                       -270.1235956920459103
  Basis Set: CC-PVTZ
  Basis Set:
  Basis Set: CC-PVTZ
  Basis Set:
  @DF-RHF Final Energy:  -270.12225912827893
    Total Energy =                       -270.1222591282793246
  Basis Set: CC-PVTZ
  Basis Set:
  Basis Set: CC-PVTZ
  Basis Set:
  @DF-RHF Final Energy:  -270.12379284914084
    Total Energy =                       -270.1237928491409548
  Basis Set: CC-PVTZ
  Basis Set:
  @DF-RHF Final Energy:  -270.12393474285466
    Total Energy =                       -270.1239347428544306
  @DF-RHF Final Energy:  -270.12395850194332
    Total Energy =                       -270.1239585019436618
  Basis Set: CC-PVTZ
  Basis Set:
  @DF-RHF Final Energy:  -270.12400043733794
    Total Energy =                       -270.1240004373379406
  Basis Set: CC-PVTZ
  Basis Set:
  Basis Set: CC-PVTZ
  Basis Set:
  @DF-RHF Final Energy:  -270.12401803400661
    Total Energy =                       -270.1240180340066104
  Basis Set: CC-PVTZ
  Basis Set:
  Basis Set: CC-PVTZ
  Basis Set:
  @DF-RHF Final Energy:  -270.12401937618631
    Total Energy =                       -270.1240193761864816
  Basis Set: CC-PVTZ
  Basis Set:
  Charge       = 0
  Multiplicity = 1
  Basis Set: CC-PVTZ
  Basis Set:

    Orbital Energies (a.u.)
    -----------------------

    Doubly Occupied:

       1A    -20.537399     2A    -11.319602     3A    -11.234326
       4A    -11.228447     5A    -11.227024     6A    -11.221155
       7A     -1.397277     8A     -1.083664     9A     -1.011451
      10A     -0.954020    11A     -0.834648    12A     -0.736223
      13A     -0.659516    14A     -0.651091    15A     -0.615985
      16A     -0.597417    17A     -0.590191    18A     -0.560805
      19A     -0.545886    20A     -0.517078    21A     -0.501255
      22A     -0.484726    23A     -0.476976    24A     -0.400643

  @DF-RHF Final Energy:  -270.12401946640887

   => Energetics <=

    Nuclear Repulsion Energy =            239.3699769180528563
    One-Electron Energy =                -840.2143818314432338
    Two-Electron Energy =                 330.7203854469811972
    DFT Exchange-Correlation Energy =       0.0000000000000000
    Empirical Dispersion Energy =           0.0000000000000000
    PCM Polarization Energy =               0.0000000000000000
    EFP Energy =                            0.0000000000000000
    Total Energy =                       -270.1240194664091518
    Molecular point group: c1
  Basis Set: CC-PVTZ
  Basis Set:

  -Total Gradient:
     Atom            X                  Y                   Z
    ------   -----------------  -----------------  -----------------
       1       -0.000001513465     0.000003690736    -0.000002976123
       2        0.000050896749     0.000408010934    -0.000012812268
       3       -0.000102943594    -0.000694659903    -0.000016303621
       4       -0.000017266468    -0.000007199208     0.000032358969
       5        0.000191693312     0.000829950969     0.000082392770
       6        0.000004390260    -0.000000357027    -0.000001823005
       7        0.000003757651    -0.000000103966    -0.000003206661
       8       -0.000003082394    -0.000003066987     0.000005657209
       9       -0.000136459621    -0.000542946948    -0.000063547113
      10       -0.000001710576     0.000001783512     0.000004230315
      11       -0.000003296056     0.000000102062    -0.000001742992
      12       -0.000000951257    -0.000001537524     0.000001848839
      13        0.000003663674     0.000000914622    -0.000002966088
      14        0.000004828234     0.000006590339    -0.000007565020
      15        0.000003090665     0.000002330837    -0.000002906005
      16        0.000004902884    -0.000003502448    -0.000010639206

  **** Optimization is complete! (in 10 steps) ****
    Final optimized geometry and variables:
    Molecular point group: c1

    Geometry (in Angstrom), charge = 0, multiplicity = 1:

    O           -1.504934566130     1.422708726680     0.399456460338
    C           -0.945325227432     0.379159035407     0.304893519811
    C            0.501732902562     0.220236480134     0.725138322040
    C           -1.648140322957    -0.841336056281    -0.244717201197
    C            1.463446482325     0.128190000336    -0.486535874795
    H            0.598291465239    -0.668675274396     1.339880549326
    H            0.743844071012     1.075596345115     1.338360563096
    C            2.132525573721    -1.234257679870    -0.641836239290
    H            0.932225587225     0.371546108286    -1.400798726963
    H            2.227668294785     0.887164801160    -0.379618133304
    H            2.790580820977    -1.247443108589    -1.502777997004
    H            1.401899514510    -2.025226647757    -0.772237830491
    H            2.725473533531    -1.476438543642     0.233361593588
    H           -1.075523010811    -1.289904127300    -1.047791878801
    H           -2.629330278644    -0.569614638122    -0.602284259734
    H           -1.741447262162    -1.585921898434     0.538968781121

  Mulliken Charges: (a.u.)
   Center  Symbol    Alpha    Beta     Spin     Total
       1     O     4.17346  4.17346  0.00000 -0.34692
       2     C     2.85735  2.85735  0.00000  0.28529
       3     C     3.10102  3.10102  0.00000 -0.20204
       4     C     3.15854  3.15854  0.00000 -0.31708
       5     C     3.10395  3.10395  0.00000 -0.20790
       6     H     0.45115  0.45115  0.00000  0.09770
       7     H     0.43498  0.43498  0.00000  0.13004
       8     C     3.14674  3.14674  0.00000 -0.29349
       9     H     0.44709  0.44709  0.00000  0.10583
      10     H     0.43931  0.43931  0.00000  0.12137
      11     H     0.44641  0.44641  0.00000  0.10718
      12     H     0.45527  0.45527  0.00000  0.08946
      13     H     0.45230  0.45230  0.00000  0.09541
      14     H     0.45012  0.45012  0.00000  0.09975
      15     H     0.43378  0.43378  0.00000  0.13244
      16     H     0.44852  0.44852  0.00000  0.10296

   Total alpha = 24.00000, Total beta = 24.00000, Total charge = -0.00000
