                              Psi4 1.0.54 Driver

  ==> Input File <==

--------------------------------------------------------------------------
set {
	reference rhf
	basis cc-pvtz
}

set_num_threads( 4 )
memory 2 gb

molecule MOL {
0 1

H	 -3.162190	 0.493205	 -0.000107
C	 -2.363908	 -0.234727	 0.000005
O	 -1.158738	 0.454634	 -0.000087
H	 -2.464314	 -0.863616	 -0.882153
H	 -2.464327	 -0.863359	 0.882345
C	 -0.028611	 -0.359694	 0.000037
C	 0.807937	 -0.052807	 -1.225687
H	 -0.324001	 -1.409162	 0.000186
H	 0.554701	 -0.189560	 0.905268
C	 2.068748	 -0.906823	 -1.298930
H	 0.198130	 -0.210501	 -2.108407
H	 1.069884	 0.999383	 -1.210486
H	 1.828388	 -1.964017	 -1.339595
H	 2.646691	 -0.667319	 -2.183035
H	 2.706102	 -0.745830	 -0.435837

	symmetry c1
}
set optking {
	frozen_dihedral = ("
		8 6 3 2
	")
}

ee,wfn = optimize('scf', return_wfn=True)
oeprop( wfn, 'DIPOLE', 'QUADRUPOLE', 'MULLIKEN_CHARGES')
f=open( 'psi4out.xyz', 'w' )
f.write( "15  " )
f.write( str(ee) + "\n" )
f.write( MOL.save_string_xyz() )
f.close()
--------------------------------------------------------------------------

    Molecular point group: c1
  Charge       = 0
  Multiplicity = 1
  Basis Set: CC-PVTZ
  Basis Set:
  @DF-RHF Final Energy:  -232.22395461384644
    Total Energy =                       -232.2239546138464448
    Molecular point group: c1
  Basis Set: CC-PVTZ
  Basis Set:
  Basis Set: CC-PVTZ
  Basis Set:
  @DF-RHF Final Energy:  -232.22432578320741
    Total Energy =                       -232.2243257832074050
  Basis Set: CC-PVTZ
  Basis Set:
  Basis Set: CC-PVTZ
  Basis Set:
  @DF-RHF Final Energy:  -232.22443685241234
    Total Energy =                       -232.2244368524122820
  Basis Set: CC-PVTZ
  Basis Set:
  Basis Set: CC-PVTZ
  Basis Set:
  @DF-RHF Final Energy:  -232.22443794052009
    Total Energy =                       -232.2244379405200903
  Basis Set: CC-PVTZ
  Basis Set:
  Charge       = 0
  Multiplicity = 1
  Basis Set: CC-PVTZ
  Basis Set:

    Orbital Energies (a.u.)
    -----------------------

    Doubly Occupied:

       1A    -20.544092     2A    -11.264007     3A    -11.262516
       4A    -11.212826     5A    -11.210958     6A     -1.376746
       7A     -1.057496     8A     -0.957165     9A     -0.879167
      10A     -0.808760    11A     -0.671386    12A     -0.654611
      13A     -0.636736    14A     -0.601508    15A     -0.568806
      16A     -0.538721    17A     -0.506409    18A     -0.494264
      19A     -0.482034    20A     -0.463219    21A     -0.407315

  @DF-RHF Final Energy:  -232.22443804351283

   => Energetics <=

    Nuclear Repulsion Energy =            190.2664398226185938
    One-Electron Energy =                -691.7842667766718705
    Two-Electron Energy =                 269.2933889105404432
    DFT Exchange-Correlation Energy =       0.0000000000000000
    Empirical Dispersion Energy =           0.0000000000000000
    PCM Polarization Energy =               0.0000000000000000
    EFP Energy =                            0.0000000000000000
    Total Energy =                       -232.2244380435128051
    Molecular point group: c1
  Basis Set: CC-PVTZ
  Basis Set:

  -Total Gradient:
     Atom            X                  Y                   Z
    ------   -----------------  -----------------  -----------------
       1        0.000007642756    -0.000002240189    -0.000001280152
       2       -0.000053613889    -0.000028414725    -0.000460070713
       3        0.000110021091     0.000016206648     0.000813220810
       4        0.000000517466     0.000003988202     0.000006101031
       5       -0.000000376706     0.000001554142    -0.000003463536
       6       -0.000107968299     0.000019401154    -0.000920081231
       7       -0.000006186832    -0.000011163416     0.000008906296
       8        0.000037422734    -0.000010743494     0.000563418072
       9        0.000001464191     0.000002422191    -0.000000322585
      10        0.000005362554     0.000011596811    -0.000002759057
      11       -0.000003236503     0.000002426692     0.000000605194
      12        0.000002201212    -0.000001536189    -0.000002144488
      13       -0.000001816285     0.000004369575    -0.000000048327
      14        0.000006814168    -0.000004053356    -0.000002203577
      15        0.000001752342    -0.000003814047     0.000000122263

  **** Optimization is complete! (in 5 steps) ****
    Final optimized geometry and variables:
    Molecular point group: c1

    Geometry (in Angstrom), charge = 0, multiplicity = 1:

    H           -2.986141890189     0.745247994120     0.640851444889
    C           -2.205303778352    -0.001507997340     0.618724819317
    O           -0.988023429702     0.663189793759     0.536683143409
    H           -2.369377924947    -0.648817305542    -0.239824917149
    H           -2.276078083334    -0.603281714723     1.521963409560
    C            0.152823595236    -0.144176922800     0.463050698015
    C            0.947851350462     0.163772125435    -0.793536371958
    H           -0.121109474706    -1.196079020745     0.483575784651
    H            0.763402038180     0.041013941883     1.342659657796
    C            2.235872465891    -0.647241759814    -0.882997715728
    H            0.323620816562    -0.030530214783    -1.660027950994
    H            1.172980332483     1.224596752363    -0.804573844184
    H            2.032211245290    -1.713065921857    -0.898203226637
    H            2.785383168662    -0.405216722488    -1.784532781789
    H            2.886234451830    -0.447935583938    -0.037750118032

  Mulliken Charges: (a.u.)
   Center  Symbol    Alpha    Beta     Spin     Total
       1     H     0.44952  0.44952  0.00000  0.10097
       2     C     3.03124  3.03124  0.00000 -0.06249
       3     O     4.17960  4.17960  0.00000 -0.35920
       4     H     0.47295  0.47295  0.00000  0.05410
       5     H     0.46967  0.46967  0.00000  0.06066
       6     C     2.96745  2.96745  0.00000  0.06510
       7     C     3.07834  3.07834  0.00000 -0.15669
       8     H     0.47450  0.47450  0.00000  0.05099
       9     H     0.45767  0.45767  0.00000  0.08465
      10     C     3.15510  3.15510  0.00000 -0.31021
      11     H     0.45575  0.45575  0.00000  0.08851
      12     H     0.45057  0.45057  0.00000  0.09886
      13     H     0.45602  0.45602  0.00000  0.08795
      14     H     0.44660  0.44660  0.00000  0.10680
      15     H     0.45501  0.45501  0.00000  0.08999

   Total alpha = 21.00000, Total beta = 21.00000, Total charge =  0.00000

*** Psi4 exiting successfully. Buy a developer a beer!
