                              Psi4 1.0.54 Driver

  ==> Input File <==

--------------------------------------------------------------------------
set {
	reference rhf
	basis cc-pvtz
}

set_num_threads( 4 )
memory 2 gb

molecule MOL {
0 1

H	 -4.154532	 0.814453	 -0.368514
O	 -3.440769	 0.252677	 -0.607564
C	 -2.263318	 0.669449	 0.031441
C	 -1.137884	 -0.258878	 -0.378108
H	 -2.020113	 1.692431	 -0.248078
H	 -2.387926	 0.646139	 1.112071
C	 0.196029	 0.106276	 0.266738
H	 -1.047985	 -0.233755	 -1.459545
H	 -1.415488	 -1.273838	 -0.112196
C	 1.330220	 -0.826136	 -0.155230
H	 0.446116	 1.131466	 0.011483
H	 0.095531	 0.075932	 1.349587
C	 2.719700	 -0.407669	 0.328325
H	 1.339388	 -0.911200	 -1.239363
H	 1.119001	 -1.821953	 0.224128
C	 3.241564	 0.893452	 -0.276737
H	 3.418299	 -1.204729	 0.093035
H	 2.711776	 -0.323368	 1.411960
H	 3.254204	 0.841071	 -1.360784
H	 2.634460	 1.745075	 0.005842
H	 4.254264	 1.092401	 0.054971

	symmetry c1
}
set optking {
	frozen_dihedral = ("
		4 7 10 14
	")
}

ee,wfn = optimize('scf', return_wfn=True)
oeprop( wfn, 'DIPOLE', 'QUADRUPOLE', 'MULLIKEN_CHARGES')
f=open( 'psi4out.xyz', 'w' )
f.write( "21  " )
f.write( str(ee) + "\n" )
f.write( MOL.save_string_xyz() )
f.close()
--------------------------------------------------------------------------

    Molecular point group: c1
  Charge       = 0
  Multiplicity = 1
  Basis Set: CC-PVTZ
  Basis Set:
  @DF-RHF Final Energy:  -310.33265637633690
    Total Energy =                       -310.3326563763367858
    Molecular point group: c1
  Basis Set: CC-PVTZ
  Basis Set:
  Basis Set: CC-PVTZ
  Basis Set:
  @DF-RHF Final Energy:  -310.33247557279105
    Total Energy =                       -310.3324755727911111
  Basis Set: CC-PVTZ
  Basis Set:
  Basis Set: CC-PVTZ
  Basis Set:
  @DF-RHF Final Energy:  -310.33273707900457
    Total Energy =                       -310.3327370790046871
  Basis Set: CC-PVTZ
  Basis Set:
  Basis Set: CC-PVTZ
  Basis Set:
  @DF-RHF Final Energy:  -310.33274250133417
    Total Energy =                       -310.3327425013345078
  Basis Set: CC-PVTZ
  Basis Set:
  Charge       = 0
  Multiplicity = 1
  Basis Set: CC-PVTZ
  Basis Set:

    Orbital Energies (a.u.)
    -----------------------

    Doubly Occupied:

       1A    -20.545363     2A    -11.264958     3A    -11.213243
       4A    -11.213055     5A    -11.211224     6A    -11.208960
       7A    -11.206031     8A     -1.363221     9A     -1.087278
      10A     -1.034498    11A     -0.955764    12A     -0.876202
      13A     -0.807174    14A     -0.780177    15A     -0.696239
      16A     -0.662894    17A     -0.620765    18A     -0.610907
      19A     -0.588962    20A     -0.568820    21A     -0.539620
      22A     -0.521375    23A     -0.509706    24A     -0.488107
      25A     -0.480334    26A     -0.461545    27A     -0.455273
      28A     -0.444255    29A     -0.437371

  @DF-RHF Final Energy:  -310.33274312530193

   => Energetics <=

    Nuclear Repulsion Energy =            312.9281335609560983
    One-Electron Energy =               -1040.8151112003681646
    Two-Electron Energy =                 417.5542345141100213
    DFT Exchange-Correlation Energy =       0.0000000000000000
    Empirical Dispersion Energy =           0.0000000000000000
    PCM Polarization Energy =               0.0000000000000000
    EFP Energy =                            0.0000000000000000
    Total Energy =                       -310.3327431253020450
    Molecular point group: c1
  Basis Set: CC-PVTZ
  Basis Set:

  -Total Gradient:
     Atom            X                  Y                   Z
    ------   -----------------  -----------------  -----------------
       1        0.000008318491    -0.000003325638    -0.000006599221
       2       -0.000002944245     0.000001835512     0.000007430797
       3        0.000008133281     0.000024486539    -0.000013257172
       4        0.000255332521     0.000735828893    -0.000948321835
       5       -0.000001476325     0.000004230854     0.000008812787
       6        0.000002495162    -0.000010199519    -0.000013573783
       7       -0.000594313244    -0.001335928492     0.001330442631
       8        0.000008997025    -0.000009316155     0.000009081065
       9       -0.000003191414     0.000005090835     0.000004378700
      10        0.001429240431     0.001940666453    -0.000446918227
      11       -0.000017149146    -0.000005099690     0.000025207060
      12        0.000000127597    -0.000022967084    -0.000017504021
      13        0.000021609385     0.000040109829     0.000002636490
      14       -0.001059777468    -0.001335436104     0.000090499763
      15        0.000012451489    -0.000003463744     0.000005778514
      16       -0.000006362709     0.000005986131     0.000000463657
      17       -0.000044334968     0.000051318326     0.000005470376
      18       -0.000023291706    -0.000014824787    -0.000044497012
      19       -0.000015670359     0.000005281843     0.000009078502
      20        0.000048710388    -0.000062599664    -0.000001930064
      21       -0.000026904191    -0.000011674336    -0.000006679005

  **** Optimization is complete! (in 5 steps) ****
    Final optimized geometry and variables:
    Molecular point group: c1

    Geometry (in Angstrom), charge = 0, multiplicity = 1:

    H           -4.193334247961     0.704172922703    -0.226494610009
    O           -3.471647776436     0.161567590649    -0.485038504009
    C           -2.301288000035     0.568509974972     0.172993888258
    C           -1.162591222417    -0.327968427890    -0.269379509722
    H           -2.071079122586     1.604796394343    -0.065716471240
    H           -2.428000287890     0.501345858434     1.251469108732
    C            0.167601018639     0.038059463247     0.382309980070
    H           -1.074982902886    -0.265134467533    -1.349163547422
    H           -1.424213177190    -1.355660223678    -0.037268381323
    C            1.307044134243    -0.888680769302    -0.039348973482
    H            0.411345302944     1.064821283009     0.127122107354
    H            0.068399026122     0.007843437462     1.464843724510
    C            2.691434262132    -0.481865955588     0.467193207834
    H            1.323493653975    -0.970530609304    -1.123495503071
    H            1.085992100606    -1.887876731339     0.326232935444
    C            3.256828154232     0.786393283141    -0.167672951066
    H            3.379751306697    -1.299406686856     0.277108415476
    H            2.657176314116    -0.361458168916     1.546898667106
    H            3.306154529314     0.691183931266    -1.247579634351
    H            2.656584839698     1.658872091856     0.059810121763
    H            4.260809910648     0.980996513040     0.191878856497

  Mulliken Charges: (a.u.)
   Center  Symbol    Alpha    Beta     Spin     Total
       1     H     0.39760  0.39760  0.00000  0.20481
       2     O     4.19435  4.19435  0.00000 -0.38869
       3     C     2.96319  2.96319  0.00000  0.07362
       4     C     3.08440  3.08440  0.00000 -0.16880
       5     H     0.47508  0.47508  0.00000  0.04984
       6     H     0.47476  0.47476  0.00000  0.05049
       7     C     3.10203  3.10203  0.00000 -0.20405
       8     H     0.45074  0.45074  0.00000  0.09851
       9     H     0.45079  0.45079  0.00000  0.09841
      10     C     3.09480  3.09480  0.00000 -0.18960
      11     H     0.45441  0.45441  0.00000  0.09118
      12     H     0.45490  0.45490  0.00000  0.09021
      13     C     3.08995  3.08995  0.00000 -0.17989
      14     H     0.45347  0.45347  0.00000  0.09306
      15     H     0.44875  0.44875  0.00000  0.10249
      16     C     3.15127  3.15127  0.00000 -0.30253
      17     H     0.44821  0.44821  0.00000  0.10359
      18     H     0.45530  0.45530  0.00000  0.08940
      19     H     0.45453  0.45453  0.00000  0.09095
      20     H     0.45469  0.45469  0.00000  0.09061
      21     H     0.44681  0.44681  0.00000  0.10639

   Total alpha = 29.00000, Total beta = 29.00000, Total charge = -0.00000

*** Psi4 exiting successfully. Buy a developer a beer!
