  ==> Input File <==

--------------------------------------------------------------------------
set {
	reference rhf
	basis 6-31G*
}

set_num_threads( 1 )
memory 2 gb

molecule MOL {
0 1

H	 -2.798360	 -0.862255	 -0.071053
N	 -1.863561	 -0.715187	 0.256814
C	 -1.344686	 0.554728	 -0.219830
H	 -1.300452	 -1.461917	 -0.101532
C	 -2.388670	 1.255933	 -1.063362
H	 -1.037276	 1.230953	 0.579057
H	 -0.472858	 0.363281	 -0.837927
O	 -3.477175	 1.569837	 -0.242565
H	 -1.973234	 2.164829	 -1.498057
H	 -2.703405	 0.602182	 -1.873786
C	 -4.553403	 2.145998	 -0.911401
H	 -5.325967	 2.343597	 -0.180787
H	 -4.270915	 3.083878	 -1.386336
H	 -4.950844	 1.479144	 -1.673737

	symmetry c1
}
set optking {
	frozen_dihedral = ("
		8 5 3 6,
		5 8 11 13,
		11 8 5 3
	")
}

ee = energy('scf')
oeprop('DIPOLE', 'QUADRUPOLE', 'MULLIKEN_CHARGES')
f=open( 'psi4out.xyz', 'w' )
f.write( "14  " )
f.write( str(ee) + "\n" )
f.write( MOL.save_string_xyz() )
f.close()
--------------------------------------------------------------------------

    Molecular point group: c1

    Geometry (in Angstrom), charge = 0, multiplicity = 1:

       Center              X                  Y                   Z               Mass
    ------------   -----------------  -----------------  -----------------  -----------------
           H         -0.051779520336    -1.815894130475     0.378110822997     1.007825032070
           N          0.883019479664    -1.668826130475     0.705977822997    14.003074004780
           C          1.401894479664    -0.398911130475     0.229333822997    12.000000000000
           H          1.446128479664    -2.415556130475     0.347631822997     1.007825032070
           C          0.357910479664     0.302293869525    -0.614198177003    12.000000000000
           H          1.709304479664     0.277313869525     1.028220822997     1.007825032070
           H          2.273722479664    -0.590358130475    -0.388763177003     1.007825032070
           O         -0.730594520336     0.616197869525     0.206598822997    15.994914619560
           H          0.773346479664     1.211189869525    -1.048893177003     1.007825032070
           H          0.043175479664    -0.351457130475    -1.424622177003     1.007825032070
           C         -1.806822520336     1.192358869525    -0.462237177003    12.000000000000
           H         -2.579386520336     1.389957869525     0.268376822997     1.007825032070
           H         -1.524334520336     2.130238869525    -0.937172177003     1.007825032070
           H         -2.204263520336     0.525504869525    -1.224573177003     1.007825032070

  Charge       = 0
  Multiplicity = 1
  Basis Set: 6-31G*
  Basis Set:

    Orbital Energies (a.u.)
    -----------------------

    Doubly Occupied:

       1A    -20.559699     2A    -15.527371     3A    -11.271396
       4A    -11.268375     5A    -11.241965     6A     -1.384158
       7A     -1.176232     8A     -1.000252     9A     -0.908498
      10A     -0.823185    11A     -0.687645    12A     -0.673569
      13A     -0.649774    14A     -0.612328    15A     -0.589917
      16A     -0.568673    17A     -0.521697    18A     -0.498734
      19A     -0.477776    20A     -0.422100    21A     -0.374844

  @DF-RHF Final Energy:  -248.11640372413078

   => Energetics <=

    Nuclear Repulsion Energy =            194.9928588320960614
    One-Electron Energy =                -723.7420740575945501
    Two-Electron Energy =                 280.6328115013681099
    DFT Exchange-Correlation Energy =       0.0000000000000000
    Empirical Dispersion Energy =           0.0000000000000000
    PCM Polarization Energy =               0.0000000000000000
    EFP Energy =                            0.0000000000000000
    Total Energy =                       -248.1164037241303504

  Mulliken Charges: (a.u.)
   Center  Symbol    Alpha    Beta     Spin     Total
       1     H     0.32599  0.32599  0.00000  0.34802
       2     N     3.92261  3.92261  0.00000 -0.84522
       3     C     3.05492  3.05492  0.00000 -0.10983
       4     H     0.33460  0.33460  0.00000  0.33080
       5     C     3.00708  3.00708  0.00000 -0.01416
       6     H     0.41265  0.41265  0.00000  0.17471
       7     H     0.42781  0.42781  0.00000  0.14438
       8     O     4.30213  4.30213  0.00000 -0.60425
       9     H     0.42833  0.42833  0.00000  0.14335
      10     H     0.43419  0.43419  0.00000  0.13161
      11     C     3.07952  3.07952  0.00000 -0.15904
      12     H     0.40998  0.40998  0.00000  0.18004
      13     H     0.42937  0.42937  0.00000  0.14127
      14     H     0.43084  0.43084  0.00000  0.13832

   Total alpha = 21.00000, Total beta = 21.00000, Total charge = -0.00000
