                              Psi4 1.0.54 Driver

  ==> Input File <==

--------------------------------------------------------------------------
set {
	reference rhf
	basis cc-pvtz
}

set_num_threads( 4 )
memory 2 gb

molecule MOL {
0 1

O	 -0.406170	 -0.097515	 -2.163538
C	 -0.060472	 -0.593750	 -1.145652
C	 1.140583	 -1.490296	 -0.979723
O	 -0.695554	 -0.422406	 0.000602
C	 1.907488	 -1.719034	 -2.272204
H	 0.787361	 -2.425421	 -0.559334
H	 1.771985	 -1.043585	 -0.219647
H	 1.278451	 -2.179818	 -3.022010
H	 2.755777	 -2.367926	 -2.091385
H	 2.272032	 -0.785417	 -2.679258
C	 -1.852370	 0.402254	 0.000718
C	 -3.063338	 -0.501097	 -0.000437
H	 -1.831732	 1.039442	 -0.872158
H	 -1.832493	 1.038301	 0.874430
H	 -3.071944	 -1.133732	 -0.879113
H	 -3.966302	 0.097976	 -0.000483
H	 -3.072764	 -1.134834	 0.877435

	symmetry c1
}
set optking {
	frozen_dihedral = ("
		2 4 11 13
	")
}

ee,wfn = optimize('scf', return_wfn=True)
oeprop( wfn, 'DIPOLE', 'QUADRUPOLE', 'MULLIKEN_CHARGES')
f=open( 'psi4out.xyz', 'w' )
f.write( "17  " )
f.write( str(ee) + "\n" )
f.write( MOL.save_string_xyz() )
f.close()
--------------------------------------------------------------------------

    Molecular point group: c1
  Charge       = 0
  Multiplicity = 1
  Basis Set: CC-PVTZ
  Basis Set:
  @DF-RHF Final Energy:  -345.03791826003919
    Total Energy =                       -345.0379182600387935
    Molecular point group: c1
  Basis Set: CC-PVTZ
  Basis Set:
  Basis Set: CC-PVTZ
  Basis Set:
  @DF-RHF Final Energy:  -345.03861247133381
    Total Energy =                       -345.0386124713337495
  Basis Set: CC-PVTZ
  Basis Set:
  Basis Set: CC-PVTZ
  Basis Set:
  @DF-RHF Final Energy:  -345.03899928691993
    Total Energy =                       -345.0389992869200455
  Basis Set: CC-PVTZ
  Basis Set:
  Basis Set: CC-PVTZ
  Basis Set:
  @DF-RHF Final Energy:  -345.03907135885885
    Total Energy =                       -345.0390713588590188
  Basis Set: CC-PVTZ
  Basis Set:
  Basis Set: CC-PVTZ
  Basis Set:
  @DF-RHF Final Energy:  -345.03907635769815
    Total Energy =                       -345.0390763576979793
  Basis Set: CC-PVTZ
  Basis Set:
  Basis Set: CC-PVTZ
  Basis Set:
  @DF-RHF Final Energy:  -345.03907856743643
    Total Energy =                       -345.0390785674366612
  Basis Set: CC-PVTZ
  Basis Set:
  Charge       = 0
  Multiplicity = 1
  Basis Set: CC-PVTZ
  Basis Set:

    Orbital Energies (a.u.)
    -----------------------

    Doubly Occupied:

       1A    -20.592369     2A    -20.532594     3A    -11.364880
       4A    -11.281399     5A    -11.235502     6A    -11.218397
       7A    -11.213563     8A     -1.468469     9A     -1.365195
      10A     -1.069969    11A     -1.030138    12A     -0.915446
      13A     -0.852444    14A     -0.765782    15A     -0.704387
      16A     -0.683528    17A     -0.662573    18A     -0.624699
      19A     -0.605518    20A     -0.570067    21A     -0.552164
      22A     -0.533058    23A     -0.521396    24A     -0.515965
      25A     -0.497021    26A     -0.493469    27A     -0.451355
      28A     -0.440028

  @DF-RHF Final Energy:  -345.03907863808649

   => Energetics <=

    Nuclear Repulsion Energy =            317.3248993090116983
    One-Electron Energy =               -1099.2052033392842532
    Two-Electron Energy =                 436.8412253921862884
    DFT Exchange-Correlation Energy =       0.0000000000000000
    Empirical Dispersion Energy =           0.0000000000000000
    PCM Polarization Energy =               0.0000000000000000
    EFP Energy =                            0.0000000000000000
    Total Energy =                       -345.0390786380862664
    Molecular point group: c1
  Basis Set: CC-PVTZ
  Basis Set:

  -Total Gradient:
     Atom            X                  Y                   Z
    ------   -----------------  -----------------  -----------------
       1        0.000008165638    -0.000005747656    -0.000024731808
       2        0.000620592719     0.000870483223     0.000236842474
       3        0.000002764836     0.000012948464    -0.000002862726
       4       -0.001055565244    -0.001524110543    -0.000490726675
       5        0.000000869949    -0.000001386626    -0.000000020890
       6       -0.000005563497     0.000002784859    -0.000004536545
       7       -0.000000002596    -0.000003546515     0.000001286431
       8       -0.000000394657     0.000001624034     0.000002671705
       9       -0.000001095985     0.000001508145    -0.000000672004
      10        0.000001050541    -0.000000255132    -0.000001083833
      11        0.001047420091     0.001519333091     0.000936308489
      12        0.000017649931     0.000000218906    -0.000001560123
      13       -0.000625159425    -0.000874943028    -0.000651667824
      14       -0.000006363647    -0.000000855907     0.000003471661
      15        0.000000823669    -0.000001132098    -0.000004956138
      16       -0.000004922322     0.000004544035    -0.000000334782
      17       -0.000000270002    -0.000001467249     0.000002572587

  **** Optimization is complete! (in 7 steps) ****
    Final optimized geometry and variables:
    Molecular point group: c1

    Geometry (in Angstrom), charge = 0, multiplicity = 1:

    O            0.047166948169     0.499237168920    -1.255259231941
    C            0.391509544020     0.030163061656    -0.224188487247
    C            1.615640982454    -0.829837787021    -0.032325842126
    O           -0.256460494987     0.192957757217     0.917261968698
    C            2.399559436418    -1.062350201771    -1.313844442117
    H            1.284428114083    -1.765810443737     0.403612959384
    H            2.227896852459    -0.351293579385     0.723977383284
    H            1.790166205597    -1.555257407119    -2.059454612748
    H            3.263912945676    -1.683664903699    -1.113224357155
    H            2.741641419571    -0.127171518522    -1.736425173462
    C           -1.424559652099     1.004043410086     0.952241742904
    C           -2.668386002927     0.140511071966     0.975194091659
    H           -1.430213216385     1.660355686302     0.098134450253
    H           -1.343185799828     1.590888397667     1.855507070296
    H           -2.750255174526    -0.436996004252     0.062890528705
    H           -3.549082525095     0.766944709288     1.060808656841
    H           -2.649606213773    -0.540833052579     1.816779523956

  Mulliken Charges: (a.u.)
   Center  Symbol    Alpha    Beta     Spin     Total
       1     O     4.19896  4.19896  0.00000 -0.39791
       2     C     2.80110  2.80110  0.00000  0.39780
       3     C     3.09485  3.09485  0.00000 -0.18970
       4     O     4.15770  4.15770  0.00000 -0.31540
       5     C     3.14012  3.14012  0.00000 -0.28024
       6     H     0.44188  0.44188  0.00000  0.11624
       7     H     0.44186  0.44186  0.00000  0.11629
       8     H     0.44865  0.44865  0.00000  0.10271
       9     H     0.45061  0.45061  0.00000  0.09878
      10     H     0.44845  0.44845  0.00000  0.10309
      11     C     2.98904  2.98904  0.00000  0.02191
      12     C     3.14270  3.14270  0.00000 -0.28541
      13     H     0.44527  0.44527  0.00000  0.10946
      14     H     0.44700  0.44700  0.00000  0.10599
      15     H     0.44763  0.44763  0.00000  0.10473
      16     H     0.45230  0.45230  0.00000  0.09541
      17     H     0.45187  0.45187  0.00000  0.09625

   Total alpha = 28.00000, Total beta = 28.00000, Total charge = -0.00000

*** Psi4 exiting successfully. Buy a developer a beer!
