  ==> Input File <==

--------------------------------------------------------------------------
set {
	reference rhf
	basis 6-31G*
}

set_num_threads( 4 )
memory 2 gb

molecule MOL {
0 1

H	 -3.420663	 1.227371	 -1.044276
O	 -3.452007	 0.283848	 -0.965577
C	 -3.181085	 -0.079926	 0.364119
C	 -1.765924	 0.277073	 0.805136
H	 -3.327791	 -1.152017	 0.410903
H	 -3.905698	 0.375695	 1.036898
C	 -0.677594	 -0.417312	 -0.014550
H	 -1.637766	 1.358238	 0.744969
H	 -1.659588	 0.017670	 1.857098
C	 0.738335	 -0.034840	 0.421385
H	 -0.814977	 -0.178223	 -1.064632
H	 -0.802730	 -1.495410	 0.071702
C	 1.822265	 -0.738362	 -0.399735
H	 0.853533	 1.043532	 0.342250
H	 0.871597	 -0.279636	 1.474438
C	 3.258060	 -0.455774	 0.057203
H	 1.718003	 -0.459167	 -1.447053
H	 1.651028	 -1.811884	 -0.354513
C	 3.375997	 0.094469	 1.479781
H	 3.703709	 0.258966	 -0.630426
H	 3.848271	 -1.366047	 -0.027971
H	 2.785287	 0.998992	 1.598263
H	 4.407143	 0.341564	 1.713273
H	 3.037726	 -0.621166	 2.221808

	symmetry c1
}
set optking {
	frozen_dihedral = ("
		20 16 13 17
	")
}

ee = optimize('scf')
oeprop('DIPOLE', 'QUADRUPOLE', 'MULLIKEN_CHARGES')
f=open( 'psi4out.xyz', 'w' )
f.write( "24  " )
f.write( str(ee) + "\n" )
f.write( MOL.save_string_xyz() )
f.close()
--------------------------------------------------------------------------

    Molecular point group: c1
  Charge       = 0
  Multiplicity = 1
  Basis Set: 6-31G*
  Basis Set:
  @DF-RHF Final Energy:  -349.23937883672824
    Total Energy =                       -349.2393788367282923
    Molecular point group: c1
  Basis Set: 6-31G*
  Basis Set:
  Basis Set: 6-31G*
  Basis Set:
  @DF-RHF Final Energy:  -349.24024207902454
    Total Energy =                       -349.2402420790244832
  Basis Set: 6-31G*
  Basis Set:
  Basis Set: 6-31G*
  Basis Set:
  @DF-RHF Final Energy:  -349.24158469552168
    Total Energy =                       -349.2415846955215670
  Basis Set: 6-31G*
  Basis Set:
  Basis Set: 6-31G*
  Basis Set:
  @DF-RHF Final Energy:  -349.24168999760633
    Total Energy =                       -349.2416899976061586
  Basis Set: 6-31G*
  Basis Set:
  @DF-RHF Final Energy:  -349.24168233480810
    Total Energy =                       -349.2416823348082744
  Basis Set: 6-31G*
  Basis Set:
  @DF-RHF Final Energy:  -349.24169777370190
    Total Energy =                       -349.2416977737017874
  Basis Set: 6-31G*
  Basis Set:
  Basis Set: 6-31G*
  Basis Set:
  @DF-RHF Final Energy:  -349.24169852308825
    Total Energy =                       -349.2416985230883029
  Basis Set: 6-31G*
  Basis Set:
  Basis Set: 6-31G*
  Basis Set:
  @DF-RHF Final Energy:  -349.24170002517877
    Total Energy =                       -349.2417000251790569
  Basis Set: 6-31G*
  Basis Set:
  Charge       = 0
  Multiplicity = 1
  Basis Set: 6-31G*
  Basis Set:

    Orbital Energies (a.u.)
    -----------------------

    Doubly Occupied:

       1A    -20.553487     2A    -11.267586     3A    -11.217275
       4A    -11.214125     5A    -11.212228     6A    -11.211655
       7A    -11.210766     8A    -11.207801     9A     -1.360073
      10A     -1.087149    11A     -1.046289    12A     -0.985037
      13A     -0.915366    14A     -0.853819    15A     -0.801907
      16A     -0.769235    17A     -0.678907    18A     -0.656586
      19A     -0.627382    20A     -0.617546    21A     -0.591781
      22A     -0.586266    23A     -0.553343    24A     -0.545363
      25A     -0.517113    26A     -0.505709    27A     -0.502656
      28A     -0.471104    29A     -0.468886    30A     -0.458477
      31A     -0.452011    32A     -0.447406    33A     -0.418576

  @DF-RHF Final Energy:  -349.24170015284386

   => Energetics <=

    Nuclear Repulsion Energy =            385.1403271066367893
    One-Electron Energy =               -1236.7382325385663080
    Two-Electron Energy =                 502.3562052790854295
    DFT Exchange-Correlation Energy =       0.0000000000000000
    Empirical Dispersion Energy =           0.0000000000000000
    PCM Polarization Energy =               0.0000000000000000
    EFP Energy =                            0.0000000000000000
    Total Energy =                       -349.2417001528441460
    Molecular point group: c1
  Basis Set: 6-31G*
  Basis Set:

  -Total Gradient:
     Atom            X                  Y                   Z
    ------   -----------------  -----------------  -----------------
       1       -0.000000358222     0.000000978242    -0.000001509393
       2       -0.000001655342     0.000002801697     0.000001818199
       3       -0.000002820727     0.000000596405     0.000000986059
       4       -0.000005561416     0.000006844210    -0.000008160383
       5        0.000001289983     0.000000133394     0.000001476144
       6       -0.000003341106     0.000000195639    -0.000001338287
       7       -0.000002890299    -0.000014669011     0.000007493738
       8        0.000002455358     0.000003135036     0.000004087931
       9       -0.000002742787    -0.000002638772    -0.000003176240
      10        0.000010126129    -0.000003908925    -0.000035009804
      11        0.000007501999    -0.000009439745     0.000005205514
      12       -0.000002611541    -0.000000076240     0.000001838951
      13        0.002631781944    -0.007623754306    -0.002735557090
      14       -0.000000930112    -0.000001917934     0.000004562176
      15        0.000011227527    -0.000006050561    -0.000005900897
      16       -0.002846130899     0.006682092349     0.004559014337
      17       -0.001810979267     0.005401876108     0.001595691951
      18       -0.000020959358     0.000002244988     0.000005274621
      19        0.000016187384    -0.000005073202    -0.000002840185
      20        0.002010055865    -0.004444399579    -0.003398181985
      21        0.000006759958     0.000014677739     0.000006976388
      22        0.000002381983    -0.000005878862    -0.000004556238
      23        0.000006380408     0.000001145963     0.000003391861
      24       -0.000005167455     0.000001085368    -0.000001587369

  **** Optimization is complete! (in 9 steps) ****
    Final optimized geometry and variables:
    Molecular point group: c1

    Geometry (in Angstrom), charge = 0, multiplicity = 1:

    H           -3.356164056668     1.361604442006    -1.299721729991
    O           -3.397250697217     0.417713317645    -1.230990903513
    C           -3.169554745264     0.039606115806     0.102855991569
    C           -1.765608210149     0.381085455841     0.589727908585
    H           -3.325871542283    -1.031578558781     0.134989856193
    H           -3.910693597366     0.494756273875     0.757652018107
    C           -0.658352334129    -0.314415825520    -0.203359497454
    H           -1.627320685741     1.461690479397     0.543473687377
    H           -1.693245929427     0.111369967193     1.641962074055
    C            0.746738436547     0.058402470006     0.274319270680
    H           -0.766478562930    -0.069929420490    -1.255540611149
    H           -0.791128246217    -1.392456614913    -0.125866169197
    C            1.842742519341    -0.657835653842    -0.525115498541
    H            0.878212034283     1.135861964295     0.188066828544
    H            0.837485739377    -0.176523834537     1.331722107811
    C            3.299358953034    -0.280553802422    -0.162415331712
    H            1.675243553925    -0.404595850878    -1.568679683574
    H            1.701990073475    -1.730476377045    -0.425382098824
    C            3.552741409262     0.212639307077     1.262301592740
    H            3.675371742072     0.441554746343    -0.882451908016
    H            3.918492905199    -1.160242030719    -0.324439929302
    H            3.032046703234     1.140011611985     1.474705752797
    H            4.613094049394     0.391123269094     1.412532635227
    H            3.237536742011    -0.520996158835     1.998615404013

  Mulliken Charges: (a.u.)
   Center  Symbol    Alpha    Beta     Spin     Total
       1     H     0.28341  0.28341  0.00000  0.43319
       2     O     4.36831  4.36831  0.00000 -0.73662
       3     C     2.99616  2.99616  0.00000  0.00769
       4     C     3.16880  3.16880  0.00000 -0.33759
       5     H     0.41635  0.41635  0.00000  0.16729
       6     H     0.42819  0.42819  0.00000  0.14361
       7     C     3.15195  3.15195  0.00000 -0.30390
       8     H     0.42838  0.42838  0.00000  0.14323
       9     H     0.42241  0.42241  0.00000  0.15518
      10     C     3.15526  3.15526  0.00000 -0.31052
      11     H     0.41229  0.41229  0.00000  0.17542
      12     H     0.42378  0.42378  0.00000  0.15245
      13     C     3.15355  3.15355  0.00000 -0.30710
      14     H     0.42521  0.42521  0.00000  0.14959
      15     H     0.42271  0.42271  0.00000  0.15459
      16     C     3.15481  3.15481  0.00000 -0.30961
      17     H     0.42096  0.42096  0.00000  0.15809
      18     H     0.42173  0.42173  0.00000  0.15653
      19     C     3.24173  3.24173  0.00000 -0.48346
      20     H     0.42151  0.42151  0.00000  0.15697
      21     H     0.42143  0.42143  0.00000  0.15715
      22     H     0.42000  0.42000  0.00000  0.16001
      23     H     0.41937  0.41937  0.00000  0.16125
      24     H     0.42171  0.42171  0.00000  0.15657

   Total alpha = 33.00000, Total beta = 33.00000, Total charge =  0.00000
