                              Psi4 1.0.54 Driver

  ==> Input File <==

--------------------------------------------------------------------------
set {
	reference rhf
	basis cc-pvtz
}

set_num_threads( 4 )
memory 2 gb

molecule MOL {
0 1

H	 -3.144994	 -1.202467	 -0.018751
O	 -2.321472	 -0.864941	 -0.318626
C	 -2.021813	 0.336996	 0.342658
C	 -0.669613	 0.837286	 -0.127252
H	 -2.780861	 1.084746	 0.127159
H	 -2.006390	 0.184138	 1.420053
C	 0.490865	 -0.082543	 0.241244
H	 -0.708709	 0.967192	 -1.204587
H	 -0.507562	 1.822272	 0.303070
C	 1.744841	 0.176167	 -0.588949
H	 0.180828	 -1.113983	 0.118510
H	 0.727171	 0.045225	 1.295738
C	 2.907583	 -0.737475	 -0.216022
H	 1.509778	 0.046760	 -1.641898
H	 2.049893	 1.212826	 -0.470755
H	 2.645122	 -1.780566	 -0.357413
H	 3.781246	 -0.530714	 -0.823696
H	 3.189824	 -0.607386	 0.823623

	symmetry c1
}
set optking {
	frozen_dihedral = ("
		10 7 4 8
	")
}

ee,wfn = optimize('scf', return_wfn=True)
oeprop( wfn, 'DIPOLE', 'QUADRUPOLE', 'MULLIKEN_CHARGES')
f=open( 'psi4out.xyz', 'w' )
f.write( "18  " )
f.write( str(ee) + "\n" )
f.write( MOL.save_string_xyz() )
f.close()
--------------------------------------------------------------------------

    Molecular point group: c1
  Charge       = 0
  Multiplicity = 1
  Basis Set: CC-PVTZ
  Basis Set:
  @DF-RHF Final Energy:  -271.28592264964607
    Total Energy =                       -271.2859226496458405
    Molecular point group: c1
  Basis Set: CC-PVTZ
  Basis Set:
  Basis Set: CC-PVTZ
  Basis Set:
  @DF-RHF Final Energy:  -271.28600713177514
    Total Energy =                       -271.2860071317752499
  Basis Set: CC-PVTZ
  Basis Set:
  Basis Set: CC-PVTZ
  Basis Set:
  @DF-RHF Final Energy:  -271.28603560504939
    Total Energy =                       -271.2860356050493351
  Basis Set: CC-PVTZ
  Basis Set:
  Basis Set: CC-PVTZ
  Basis Set:
  @DF-RHF Final Energy:  -271.28603664610387
    Total Energy =                       -271.2860366461039234
  Basis Set: CC-PVTZ
  Basis Set:
  Charge       = 0
  Multiplicity = 1
  Basis Set: CC-PVTZ
  Basis Set:

    Orbital Energies (a.u.)
    -----------------------

    Doubly Occupied:

       1A    -20.546506     2A    -11.266270     3A    -11.210323
       4A    -11.208729     5A    -11.204858     6A    -11.202447
       7A     -1.364367     8A     -1.076038     9A     -1.010070
      10A     -0.914424    11A     -0.818500    12A     -0.784967
      13A     -0.708902    14A     -0.639244    15A     -0.629880
      16A     -0.583958    17A     -0.570965    18A     -0.559443
      19A     -0.524228    20A     -0.499081    21A     -0.490942
      22A     -0.468786    23A     -0.458649    24A     -0.449354
      25A     -0.431179

  @DF-RHF Final Energy:  -271.28603701039373

   => Energetics <=

    Nuclear Repulsion Energy =            249.5295533493595599
    One-Electron Energy =                -862.3869650599131091
    Two-Electron Energy =                 341.5713747001598222
    DFT Exchange-Correlation Energy =       0.0000000000000000
    Empirical Dispersion Energy =           0.0000000000000000
    PCM Polarization Energy =               0.0000000000000000
    EFP Energy =                            0.0000000000000000
    Total Energy =                       -271.2860370103937839
    Molecular point group: c1
  Basis Set: CC-PVTZ
  Basis Set:

  -Total Gradient:
     Atom            X                  Y                   Z
    ------   -----------------  -----------------  -----------------
       1        0.000000557086     0.000010042603    -0.000003616390
       2       -0.000017918216    -0.000006467972    -0.000015359547
       3        0.000021184769     0.000020694605     0.000042517877
       4       -0.002407746752    -0.003356464424    -0.000866860367
       5        0.000012805097    -0.000031417733    -0.000005165574
       6       -0.000002090148     0.000008687087    -0.000014858754
       7        0.001309101489     0.002435961073     0.002037514539
       8        0.001723453876     0.002257578045     0.000229449904
       9        0.000001368571     0.000000096854     0.000010167172
      10       -0.000641556707    -0.001345829147    -0.001420170922
      11        0.000001298218     0.000013435685     0.000008483861
      12        0.000002304818     0.000003976327    -0.000008342923
      13        0.000004569227    -0.000007705942     0.000007345448
      14       -0.000003166073     0.000005783559     0.000009737694
      15       -0.000000399932    -0.000015193767    -0.000002665072
      16        0.000002606624     0.000010753630     0.000002546755
      17       -0.000002106512    -0.000000987264     0.000001064908
      18       -0.000004265438    -0.000002943221    -0.000011788610

  **** Optimization is complete! (in 5 steps) ****
    Final optimized geometry and variables:
    Molecular point group: c1

    Geometry (in Angstrom), charge = 0, multiplicity = 1:

    H           -3.136482475771    -1.098353584990     0.101197452202
    O           -2.319353883873    -0.761483471437    -0.216168541348
    C           -1.987738037445     0.422001565011     0.462959166942
    C           -0.636619733176     0.909024134576    -0.021180772635
    H           -2.738230578547     1.185680323995     0.276219428807
    H           -1.955353928699     0.247577108230     1.536785171507
    C            0.525574525406    -0.015870495390     0.340591187864
    H           -0.676321265321     1.053714658677    -1.096232101290
    H           -0.462734330797     1.893521574813     0.406282393081
    C            1.782939132279     0.251045708262    -0.481825638295
    H            0.219945896627    -1.044728894116     0.186086166979
    H            0.751212845788     0.085159723923     1.399496059121
    C            2.954331123281    -0.643482972835    -0.090773558089
    H            1.553514993229     0.105458666889    -1.533324653996
    H            2.075211142291     1.293000690192    -0.375152145257
    H            2.702501090716    -1.691554217437    -0.213867536373
    H            3.826656196395    -0.438909532591    -0.701066728398
    H            3.233896848460    -0.491915661413     0.946628067977

  Mulliken Charges: (a.u.)
   Center  Symbol    Alpha    Beta     Spin     Total
       1     H     0.39552  0.39552  0.00000  0.20896
       2     O     4.19862  4.19862  0.00000 -0.39725
       3     C     2.97355  2.97355  0.00000  0.05289
       4     C     3.09138  3.09138  0.00000 -0.18276
       5     H     0.46432  0.46432  0.00000  0.07135
       6     H     0.47346  0.47346  0.00000  0.05309
       7     C     3.08767  3.08767  0.00000 -0.17535
       8     H     0.45287  0.45287  0.00000  0.09426
       9     H     0.45385  0.45385  0.00000  0.09230
      10     C     3.08361  3.08361  0.00000 -0.16722
      11     H     0.44693  0.44693  0.00000  0.10613
      12     H     0.45825  0.45825  0.00000  0.08350
      13     C     3.15000  3.15000  0.00000 -0.30000
      14     H     0.45311  0.45311  0.00000  0.09378
      15     H     0.45688  0.45688  0.00000  0.08624
      16     H     0.45445  0.45445  0.00000  0.09111
      17     H     0.44933  0.44933  0.00000  0.10135
      18     H     0.45618  0.45618  0.00000  0.08763

   Total alpha = 25.00000, Total beta = 25.00000, Total charge = -0.00000

*** Psi4 exiting successfully. Buy a developer a beer!
