  ==> Input File <==

--------------------------------------------------------------------------
set {
	reference rhf
	basis 6-31G*
}

set_num_threads( 4 )
memory 2 gb

molecule MOL {
0 1

H	 2.776575	 0.688571	 -0.472197
N	 2.332695	 -0.069570	 0.000000
C	 0.936681	 -0.007078	 0.000000
H	 2.703577	 -0.942139	 -0.309590
C	 0.227108	 -0.002120	 -1.198267
C	 0.227108	 -0.002120	 1.198267
H	 0.761569	 -0.014657	 -2.132680
C	 -1.156334	 0.010459	 -1.192360
H	 0.761569	 -0.014657	 2.132680
C	 -1.156334	 0.010459	 1.192360
H	 -1.684791	 0.014915	 -2.129421
C	 -1.862085	 0.017996	 0.000000
H	 -1.684791	 0.014915	 2.129421
H	 -2.936703	 0.028387	 0.000000

	symmetry c1
}
set optking {
	frozen_dihedral = ("
		1 2 3 5
	")
}

ee = optimize('scf')
oeprop('DIPOLE', 'QUADRUPOLE', 'MULLIKEN_CHARGES')
f=open( 'psi4out.xyz', 'w' )
f.write( "14  " )
f.write( str(ee) + "\n" )
f.write( MOL.save_string_xyz() )
f.close()
--------------------------------------------------------------------------

    Molecular point group: c1
  Charge       = 0
  Multiplicity = 1
  Basis Set: 6-31G*
  Basis Set:
  @DF-RHF Final Energy:  -285.72242917404645
    Total Energy =                       -285.7224291740465674
    Molecular point group: c1
  Basis Set: 6-31G*
  Basis Set:
  Basis Set: 6-31G*
  Basis Set:
  @DF-RHF Final Energy:  -285.72401357640126
    Total Energy =                       -285.7240135764012052
  Basis Set: 6-31G*
  Basis Set:
  Basis Set: 6-31G*
  Basis Set:
  @DF-RHF Final Energy:  -285.72435839650871
    Total Energy =                       -285.7243583965084781
  Basis Set: 6-31G*
  Basis Set:
  Basis Set: 6-31G*
  Basis Set:
  @DF-RHF Final Energy:  -285.72437980310622
    Total Energy =                       -285.7243798031061601
  Basis Set: 6-31G*
  Basis Set:
  Charge       = 0
  Multiplicity = 1
  Basis Set: 6-31G*
  Basis Set:

    Orbital Energies (a.u.)
    -----------------------

    Doubly Occupied:

       1A    -15.546278     2A    -11.258675     3A    -11.229803
       4A    -11.227816     5A    -11.226026     6A    -11.225829
       7A    -11.220556     8A     -1.204344     9A     -1.126209
      10A     -1.011437    11A     -0.985645    12A     -0.826050
      13A     -0.806218    14A     -0.700779    15A     -0.658428
      16A     -0.645466    17A     -0.626094    18A     -0.589474
      19A     -0.582201    20A     -0.504950    21A     -0.493713
      22A     -0.492776    23A     -0.405753    24A     -0.330857
      25A     -0.324620

  @DF-RHF Final Energy:  -285.72438074067799

   => Energetics <=

    Nuclear Repulsion Energy =            272.2775712585969927
    One-Electron Energy =                -925.5039174145299512
    Two-Electron Energy =                 367.5019654152550856
    DFT Exchange-Correlation Energy =       0.0000000000000000
    Empirical Dispersion Energy =           0.0000000000000000
    PCM Polarization Energy =               0.0000000000000000
    EFP Energy =                            0.0000000000000000
    Total Energy =                       -285.7243807406779297
    Molecular point group: c1
  Basis Set: 6-31G*
  Basis Set:

  -Total Gradient:
     Atom            X                  Y                   Z
    ------   -----------------  -----------------  -----------------
       1       -0.000002398054    -0.000016978785    -0.000053044828
       2        0.000023983130    -0.000001147862     0.000060478370
       3       -0.000063265018     0.000025994049     0.000103486588
       4        0.000040337478    -0.000007285458    -0.000014158796
       5       -0.000010404182     0.000062897298    -0.000059321588
       6        0.000040977585    -0.000028555655     0.000005341641
       7       -0.000010953247    -0.000000488133     0.000017198803
       8        0.000007243857    -0.000084630067     0.000008897576
       9        0.000013642996     0.000006320991    -0.000005812942
      10       -0.000003072117    -0.000046183801    -0.000038283243
      11       -0.000027267321     0.000003628056    -0.000001053343
      12       -0.000012009104     0.000089879200     0.000003150771
      13        0.000003471475     0.000005249767    -0.000005443765
      14       -0.000000287474    -0.000008699602    -0.000021435245

  **** Optimization is complete! (in 5 steps) ****
    Final optimized geometry and variables:
    Molecular point group: c1

    Geometry (in Angstrom), charge = 0, multiplicity = 1:

    H            2.756854718930     0.736584025321    -0.404447597012
    N            2.359458200484    -0.060203778286     0.054917833316
    C            0.927150917497    -0.023812107375     0.002219003334
    H            2.716198151895    -0.876047990693    -0.404352835512
    C            0.221580882375    -0.013708092134    -1.195719761241
    C            0.224270926191     0.002032303995     1.197073369126
    H            0.759756183042    -0.033752285346    -2.128246649735
    C           -1.162883453389     0.021400361817    -1.197286428845
    H            0.777114727059    -0.006298700164     2.118081209960
    C           -1.161703411782     0.037866948076     1.197355488664
    H           -1.696294476930     0.028654657976    -2.131321635565
    C           -1.859230331294     0.047938611695     0.000991677616
    H           -1.694623761544     0.057924541416     2.131403237153
    H           -2.934257862735     0.075493884476     0.000668169974

  Mulliken Charges: (a.u.)
   Center  Symbol    Alpha    Beta     Spin     Total
       1     H     0.32540  0.32540  0.00000  0.34921
       2     N     3.93807  3.93807  0.00000 -0.87614
       3     C     2.90675  2.90675  0.00000  0.18650
       4     H     0.32545  0.32545  0.00000  0.34910
       5     C     3.10966  3.10966  0.00000 -0.21932
       6     C     3.09681  3.09681  0.00000 -0.19361
       7     H     0.40314  0.40314  0.00000  0.19371
       8     C     3.09976  3.09976  0.00000 -0.19953
       9     H     0.39271  0.39271  0.00000  0.21457
      10     C     3.10018  3.10018  0.00000 -0.20035
      11     H     0.40000  0.40000  0.00000  0.20001
      12     C     3.10217  3.10217  0.00000 -0.20434
      13     H     0.39960  0.39960  0.00000  0.20080
      14     H     0.40031  0.40031  0.00000  0.19939

   Total alpha = 25.00000, Total beta = 25.00000, Total charge = -0.00000
