  ==> Input File <==

--------------------------------------------------------------------------
set {
	reference rhf
	basis 6-31G*
}

set_num_threads( 1 )
memory 2 gb

molecule MOL {
0 1

O	 -2.439739	 -0.935931	 -0.423848
C	 -1.921153	 0.064240	 -0.045697
C	 -2.624470	 1.379923	 0.150949
O	 -0.632575	 0.154573	 0.251549
H	 -2.168117	 2.136577	 -0.476876
H	 -3.669540	 1.273223	 -0.098610
H	 -2.519365	 1.700893	 1.180846
C	 0.160891	 -1.019931	 0.106212
C	 1.589627	 -0.672828	 0.480843
H	 0.089836	 -1.367806	 -0.916050
H	 -0.238459	 -1.792301	 0.749618
C	 1.784830	 0.785047	 0.901431
H	 2.215800	 -0.890914	 -0.381873
H	 1.914297	 -1.335565	 1.278732
C	 3.238575	 1.106168	 1.245678
H	 1.450920	 1.437763	 0.097338
H	 1.152618	 0.999559	 1.756798
H	 3.350608	 2.144444	 1.541422
H	 3.892472	 0.932010	 0.395756
H	 3.592497	 0.488795	 2.066451

	symmetry c1
}
set optking {
	frozen_dihedral = ("
		16 12 9 8,
		2 4 8 10,
		1 2 4 8
	")
}

ee = energy('scf')
oeprop('DIPOLE', 'QUADRUPOLE', 'MULLIKEN_CHARGES')
f=open( 'psi4out.xyz', 'w' )
f.write( "20  " )
f.write( str(ee) + "\n" )
f.write( MOL.save_string_xyz() )
f.close()
--------------------------------------------------------------------------

    Molecular point group: c1

    Geometry (in Angstrom), charge = 0, multiplicity = 1:

       Center              X                  Y                   Z               Mass
    ------------   -----------------  -----------------  -----------------  -----------------
           O         -2.325448130341    -1.047791318270    -0.756081691199    15.994914619560
           C         -1.806862130341    -0.047620318270    -0.377930691199    12.000000000000
           C         -2.510179130341     1.268062681730    -0.181284691199    12.000000000000
           O         -0.518284130341     0.042712681730    -0.080684691199    15.994914619560
           H         -2.053826130341     2.024716681730    -0.809109691199     1.007825032070
           H         -3.555249130341     1.161362681730    -0.430843691199     1.007825032070
           H         -2.405074130341     1.589032681730     0.848612308801     1.007825032070
           C          0.275181869659    -1.131791318270    -0.226021691199    12.000000000000
           C          1.703917869659    -0.784688318270     0.148609308801    12.000000000000
           H          0.204126869659    -1.479666318270    -1.248283691199     1.007825032070
           H         -0.124168130341    -1.904161318270     0.417384308801     1.007825032070
           C          1.899120869659     0.673186681730     0.569197308801    12.000000000000
           H          2.330090869659    -1.002774318270    -0.714106691199     1.007825032070
           H          2.028587869659    -1.447425318270     0.946498308801     1.007825032070
           C          3.352865869659     0.994307681730     0.913444308801    12.000000000000
           H          1.565210869659     1.325902681730    -0.234895691199     1.007825032070
           H          1.266908869659     0.887698681730     1.424564308801     1.007825032070
           H          3.464898869659     2.032583681730     1.209188308801     1.007825032070
           H          4.006762869659     0.820149681730     0.063522308801     1.007825032070
           H          3.706787869659     0.376934681730     1.734217308801     1.007825032070

  Charge       = 0
  Multiplicity = 1
  Basis Set: 6-31G*
  Basis Set:

    Orbital Energies (a.u.)
    -----------------------

    Doubly Occupied:

       1A    -20.601016     2A    -20.544006     3A    -11.374230
       4A    -11.281433     5A    -11.233695     6A    -11.223340
       7A    -11.217731     8A    -11.210487     9A     -1.468194
      10A     -1.362531    11A     -1.084532    12A     -1.026841
      13A     -0.981075    14A     -0.878834    15A     -0.820409
      16A     -0.757188    17A     -0.692694    18A     -0.689598
      19A     -0.667572    20A     -0.632797    21A     -0.594149
      22A     -0.593001    23A     -0.573832    24A     -0.547320
      25A     -0.544644    26A     -0.533239    27A     -0.506254
      28A     -0.481095    29A     -0.478239    30A     -0.468913
      31A     -0.441524    32A     -0.438301

  @DF-RHF Final Energy:  -383.93547542094933

   => Energetics <=

    Nuclear Repulsion Energy =            389.3530343541413572
    One-Electron Energy =               -1294.6796236032948855
    Two-Electron Energy =                 521.3911138282034017
    DFT Exchange-Correlation Energy =       0.0000000000000000
    Empirical Dispersion Energy =           0.0000000000000000
    PCM Polarization Energy =               0.0000000000000000
    EFP Energy =                            0.0000000000000000
    Total Energy =                       -383.9354754209501834

  Mulliken Charges: (a.u.)
   Center  Symbol    Alpha    Beta     Spin     Total
       1     O     4.28383  4.28383  0.00000 -0.56765
       2     C     2.61790  2.61790  0.00000  0.76420
       3     C     3.28155  3.28155  0.00000 -0.56310
       4     O     4.31215  4.31215  0.00000 -0.62430
       5     H     0.40080  0.40080  0.00000  0.19840
       6     H     0.39676  0.39676  0.00000  0.20647
       7     H     0.40087  0.40087  0.00000  0.19825
       8     C     2.99511  2.99511  0.00000  0.00978
       9     C     3.18111  3.18111  0.00000 -0.36223
      10     H     0.40801  0.40801  0.00000  0.18399
      11     H     0.40889  0.40889  0.00000  0.18222
      12     C     3.14372  3.14372  0.00000 -0.28744
      13     H     0.41666  0.41666  0.00000  0.16669
      14     H     0.41576  0.41576  0.00000  0.16849
      15     C     3.24059  3.24059  0.00000 -0.48118
      16     H     0.41647  0.41647  0.00000  0.16706
      17     H     0.41659  0.41659  0.00000  0.16683
      18     H     0.41840  0.41840  0.00000  0.16320
      19     H     0.42230  0.42230  0.00000  0.15540
      20     H     0.42253  0.42253  0.00000  0.15494

   Total alpha = 32.00000, Total beta = 32.00000, Total charge = -0.00000
