  ==> Input File <==

--------------------------------------------------------------------------
set {
	reference rhf
	basis 6-31G*
}

set_num_threads( 4 )
memory 2 gb

molecule MOL {
0 1

H	 2.455057	 2.360125	 -0.114620
O	 3.224602	 1.978920	 -0.511551
C	 3.536764	 0.767612	 0.128248
C	 2.570528	 -0.360481	 -0.216021
H	 4.534165	 0.508373	 -0.202901
H	 3.580782	 0.907153	 1.207771
C	 1.134383	 -0.114680	 0.252956
H	 2.582592	 -0.508287	 -1.292764
H	 2.946044	 -1.277811	 0.234379
C	 0.201336	 -1.288001	 -0.059389
H	 0.754011	 0.786952	 -0.218999
H	 1.130713	 0.068267	 1.327599
C	 -1.230409	 -1.129500	 0.465325
H	 0.174503	 -1.447305	 -1.135841
H	 0.627106	 -2.192511	 0.369892
C	 -2.037799	 -0.007733	 -0.193645
H	 -1.755999	 -2.070016	 0.313665
H	 -1.202909	 -0.969563	 1.542126
C	 -3.489788	 0.042957	 0.286558
H	 -2.022347	 -0.141454	 -1.274381
H	 -1.569898	 0.954280	 0.001039
C	 -4.216917	 1.317354	 -0.141063
H	 -4.025645	 -0.823308	 -0.095450
H	 -3.513059	 -0.038752	 1.371301
H	 -4.239342	 1.411634	 -1.223113
H	 -5.243387	 1.322503	 0.212445
H	 -3.726170	 2.201406	 0.256408

	symmetry c1
}
set optking {
	frozen_dihedral = ("
		20 16 19 22
	")
}

ee = optimize('scf')
oeprop('DIPOLE', 'QUADRUPOLE', 'MULLIKEN_CHARGES')
f=open( 'psi4out.xyz', 'w' )
f.write( "27  " )
f.write( str(ee) + "\n" )
f.write( MOL.save_string_xyz() )
f.close()
--------------------------------------------------------------------------

    Molecular point group: c1
  Charge       = 0
  Multiplicity = 1
  Basis Set: 6-31G*
  Basis Set:
  @DF-RHF Final Energy:  -388.28123873831993
    Total Energy =                       -388.2812387383203259
    Molecular point group: c1
  Basis Set: 6-31G*
  Basis Set:
  Basis Set: 6-31G*
  Basis Set:
  @DF-RHF Final Energy:  -388.28125364192186
    Total Energy =                       -388.2812536419223761
  Basis Set: 6-31G*
  Basis Set:
  Basis Set: 6-31G*
  Basis Set:
  @DF-RHF Final Energy:  -388.28130093643739
    Total Energy =                       -388.2813009364376740
  Basis Set: 6-31G*
  Basis Set:
  Basis Set: 6-31G*
  Basis Set:
  @DF-RHF Final Energy:  -388.28129901553302
    Total Energy =                       -388.2812990155331363
  Basis Set: 6-31G*
  Basis Set:
  Basis Set: 6-31G*
  Basis Set:
  @DF-RHF Final Energy:  -388.28130585754911
    Total Energy =                       -388.2813058575486593
  Basis Set: 6-31G*
  Basis Set:
  Basis Set: 6-31G*
  Basis Set:
  @DF-RHF Final Energy:  -388.28130803855800
    Total Energy =                       -388.2813080385575404
  Basis Set: 6-31G*
  Basis Set:
  Charge       = 0
  Multiplicity = 1
  Basis Set: 6-31G*
  Basis Set:

    Orbital Energies (a.u.)
    -----------------------

    Doubly Occupied:

       1A    -20.552290     2A    -11.267046     3A    -11.219821
       4A    -11.217222     5A    -11.216161     6A    -11.215650
       7A    -11.215223     8A    -11.214408     9A    -11.209489
      10A     -1.359052    11A     -1.095239    12A     -1.061442
      13A     -1.011493    14A     -0.948534    15A     -0.888033
      16A     -0.819908    17A     -0.801897    18A     -0.777961
      19A     -0.693663    20A     -0.652295    21A     -0.637076
      22A     -0.614638    23A     -0.601591    24A     -0.583112
      25A     -0.580402    26A     -0.551450    27A     -0.540912
      28A     -0.532873    29A     -0.504175    30A     -0.494505
      31A     -0.486188    32A     -0.473103    33A     -0.469995
      34A     -0.460787    35A     -0.452167    36A     -0.441450
      37A     -0.422909

  @DF-RHF Final Energy:  -388.28130791707514

   => Energetics <=

    Nuclear Repulsion Energy =            459.9339132117701752
    One-Electron Energy =               -1437.8621227710882522
    Two-Electron Energy =                 589.6469016422425966
    DFT Exchange-Correlation Energy =       0.0000000000000000
    Empirical Dispersion Energy =           0.0000000000000000
    PCM Polarization Energy =               0.0000000000000000
    EFP Energy =                            0.0000000000000000
    Total Energy =                       -388.2813079170754236
    Molecular point group: c1
  Basis Set: 6-31G*
  Basis Set:

  -Total Gradient:
     Atom            X                  Y                   Z
    ------   -----------------  -----------------  -----------------
       1       -0.000017205352     0.000000688682     0.000000304245
       2       -0.000016480785     0.000000033373     0.000010456866
       3        0.000015834750    -0.000011712227    -0.000037791269
       4        0.000007759902    -0.000003092213     0.000016773011
       5        0.000003436015    -0.000002933369    -0.000000909916
       6       -0.000004068119    -0.000005126147    -0.000003602860
       7       -0.000020132575     0.000003775956    -0.000009457110
       8        0.000008824859    -0.000007127860     0.000005106057
       9        0.000009539894     0.000004966870     0.000010778212
      10       -0.000003741988    -0.000003008274     0.000029634262
      11        0.000001984368     0.000033285990     0.000006717923
      12       -0.000010881635    -0.000014962671     0.000004637171
      13       -0.000002287661    -0.000011078296    -0.000019788589
      14       -0.000014127117     0.000010127990     0.000001283173
      15       -0.000002826380    -0.000006087124     0.000000220969
      16        0.000121267899     0.003059804895     0.000197891273
      17        0.000006441182    -0.000010359336     0.000009640841
      18        0.000022974531    -0.000002156242    -0.000001511803
      19       -0.000611485832    -0.001552272337    -0.001903005910
      20        0.000045104498    -0.002230404759     0.000239489722
      21       -0.000002420837    -0.000000868127     0.000015979654
      22        0.000450855702     0.000745196692     0.001413864735
      23        0.000017220915    -0.000006457416     0.000009761485
      24       -0.000003346193     0.000010674124     0.000007783593
      25        0.000003713605     0.000002459013    -0.000001317692
      26       -0.000001463670    -0.000003403279    -0.000004329471
      27       -0.000004489973     0.000000036085     0.000001391427

  **** Optimization is complete! (in 7 steps) ****
    Final optimized geometry and variables:
    Molecular point group: c1

    Geometry (in Angstrom), charge = 0, multiplicity = 1:

    H            2.457452874205     2.173982100435    -0.121541113019
    O            3.224874085592     1.789730552518    -0.519665038175
    C            3.537010136593     0.580571474488     0.124126693994
    C            2.566961132596    -0.546842671051    -0.211475758619
    H            4.532464291572     0.317871940302    -0.210086638814
    H            3.585811187196     0.724627335408     1.202851007717
    C            1.132965658137    -0.295177667778     0.260853459295
    H            2.575203410692    -0.699944953936    -1.287510350310
    H            2.941645975742    -1.462880697815     0.242211288663
    C            0.194090936814    -1.464246022268    -0.049813839858
    H            0.755153084047     0.608136863975    -0.210100131935
    H            1.132447413700    -0.112381537278     1.335543964450
    C           -1.235131380421    -1.298565273154     0.478815448277
    H            0.163572034598    -1.622168315164    -1.126383904771
    H            0.616612953676    -2.371289351653     0.377380751015
    C           -2.034867179845    -0.163351757673    -0.168592144575
    H           -1.769012033972    -2.233384645477     0.319813987672
    H           -1.204555662065    -1.148485287577     1.556866223867
    C           -3.497576910946    -0.140208342470     0.284262855004
    H           -1.997513304898    -0.284876258513    -1.250095966881
    H           -1.574512523558     0.794924867612     0.057109572655
    C           -4.238312402794     1.126690602377    -0.142479194925
    H           -4.009982144082    -1.016232998292    -0.106329859982
    H           -3.538331287458    -0.222820627132     1.368644675885
    H           -4.226404419419     1.246112324284    -1.222460163751
    H           -5.276145290914     1.102383690565     0.175282124070
    H           -3.779752825194     2.010576649133     0.291534073424

  Mulliken Charges: (a.u.)
   Center  Symbol    Alpha    Beta     Spin     Total
       1     H     0.27990  0.27990  0.00000  0.44020
       2     O     4.37093  4.37093  0.00000 -0.74186
       3     C     2.99737  2.99737  0.00000  0.00527
       4     C     3.16093  3.16093  0.00000 -0.32185
       5     H     0.41443  0.41443  0.00000  0.17113
       6     H     0.43206  0.43206  0.00000  0.13588
       7     C     3.16332  3.16332  0.00000 -0.32665
       8     H     0.41498  0.41498  0.00000  0.17003
       9     H     0.42431  0.42431  0.00000  0.15137
      10     C     3.15207  3.15207  0.00000 -0.30414
      11     H     0.42290  0.42290  0.00000  0.15420
      12     H     0.42544  0.42544  0.00000  0.14912
      13     C     3.15402  3.15402  0.00000 -0.30804
      14     H     0.42169  0.42169  0.00000  0.15662
      15     H     0.42152  0.42152  0.00000  0.15696
      16     C     3.15242  3.15242  0.00000 -0.30484
      17     H     0.42127  0.42127  0.00000  0.15746
      18     H     0.42423  0.42423  0.00000  0.15155
      19     C     3.15159  3.15159  0.00000 -0.30318
      20     H     0.42312  0.42312  0.00000  0.15376
      21     H     0.42367  0.42367  0.00000  0.15267
      22     C     3.23922  3.23922  0.00000 -0.47844
      23     H     0.42200  0.42200  0.00000  0.15599
      24     H     0.42345  0.42345  0.00000  0.15311
      25     H     0.42155  0.42155  0.00000  0.15689
      26     H     0.41934  0.41934  0.00000  0.16132
      27     H     0.42226  0.42226  0.00000  0.15547

   Total alpha = 37.00000, Total beta = 37.00000, Total charge = -0.00000
