  ==> Input File <==

--------------------------------------------------------------------------
set {
	reference rhf
	basis cc-pvtz
}

set_num_threads( 4 )
memory 2 gb

molecule MOL {
0 1

H	 -3.162190	 0.493205	 -0.000107
C	 -2.363908	 -0.234727	 0.000005
O	 -1.158738	 0.454634	 -0.000087
H	 -2.464314	 -0.863616	 -0.882153
H	 -2.464327	 -0.863359	 0.882345
C	 -1.279408	 1.826974	 -0.206095
C	 0.098104	 2.458130	 -0.183818
H	 -1.907144	 2.267584	 0.568791
H	 -1.765778	 2.020118	 -1.162537
C	 0.051302	 3.966119	 -0.403198
H	 0.565613	 2.233509	 0.768498
H	 0.705826	 1.988048	 -0.949095
H	 -0.532611	 4.459709	 0.366543
H	 1.047505	 4.390580	 -0.382383
H	 -0.391179	 4.212596	 -1.362640

	symmetry c1
}
set optking {
	frozen_dihedral = ("
		6 3 2 4
	")
}

ee = optimize('scf')
oeprop('DIPOLE', 'QUADRUPOLE', 'MULLIKEN_CHARGES')
f=open( 'psi4out.xyz', 'w' )
f.write( "15  " )
f.write( str(ee) + "\n" )
f.write( MOL.save_string_xyz() )
f.close()
--------------------------------------------------------------------------

    Molecular point group: c1
  Charge       = 0
  Multiplicity = 1
  Basis Set: CC-PVTZ
  Basis Set:
  @DF-RHF Final Energy:  -232.22370209649054
    Total Energy =                       -232.2237020964907970
    Molecular point group: c1
  Basis Set: CC-PVTZ
  Basis Set:
  Basis Set: CC-PVTZ
  Basis Set:
  @DF-RHF Final Energy:  -232.22458318006821
    Total Energy =                       -232.2245831800682367
  Basis Set: CC-PVTZ
  Basis Set:
  Basis Set: CC-PVTZ
  Basis Set:
  @DF-RHF Final Energy:  -232.22484394307926
    Total Energy =                       -232.2248439430792359
  Basis Set: CC-PVTZ
  Basis Set:
  Charge       = 0
  Multiplicity = 1
  Basis Set: CC-PVTZ
  Basis Set:

    Orbital Energies (a.u.)
    -----------------------

    Doubly Occupied:

       1A    -20.544165     2A    -11.264855     3A    -11.261258
       4A    -11.212233     5A    -11.210454     6A     -1.377170
       7A     -1.058050     8A     -0.956151     9A     -0.877330
      10A     -0.809189    11A     -0.673292    12A     -0.653950
      13A     -0.631822    14A     -0.608186    15A     -0.563783
      16A     -0.545262    17A     -0.502943    18A     -0.489750
      19A     -0.479157    20A     -0.462071    21A     -0.411163

  @DF-RHF Final Energy:  -232.22484598319792

   => Energetics <=

    Nuclear Repulsion Energy =            189.6850576144386480
    One-Electron Energy =                -690.6353440133420918
    Two-Electron Energy =                 268.7254404157055774
    DFT Exchange-Correlation Energy =       0.0000000000000000
    Empirical Dispersion Energy =           0.0000000000000000
    PCM Polarization Energy =               0.0000000000000000
    EFP Energy =                            0.0000000000000000
    Total Energy =                       -232.2248459831978948
    Molecular point group: c1
  Basis Set: CC-PVTZ
  Basis Set:

  -Total Gradient:
     Atom            X                  Y                   Z
    ------   -----------------  -----------------  -----------------
       1       -0.000048337100    -0.000001028476    -0.000006720301
       2       -0.000878583971     0.001709934147    -0.000349249482
       3        0.000245250862    -0.000720835597    -0.001631864425
       4        0.000780165554    -0.001131035474     0.000767752067
       5        0.000008046504    -0.000032797133    -0.000006707609
       6       -0.000118314232     0.000207623099     0.001198188619
       7        0.000001716422    -0.000026523732     0.000007414583
       8       -0.000000141562    -0.000026432017     0.000001412574
       9        0.000003874818    -0.000012780705     0.000018759178
      10        0.000007435840     0.000020592004    -0.000001870148
      11        0.000002607611     0.000000682383    -0.000002450751
      12       -0.000005356515     0.000001081120     0.000004847739
      13        0.000001309201     0.000001088022    -0.000000767797
      14       -0.000000067282     0.000010145840    -0.000000825213
      15        0.000000393852     0.000000286521     0.000002080967

  **** Optimization is complete! (in 4 steps) ****
    Final optimized geometry and variables:
    Molecular point group: c1

    Geometry (in Angstrom), charge = 0, multiplicity = 1:

    H           -2.280995489960    -1.268403416670     0.188778658431
    C           -1.415046034771    -1.921682108152     0.160126358783
    O           -0.218545688010    -1.206855144620     0.158425323185
    H           -1.481545667451    -2.549552991526    -0.722525720336
    H           -1.444211155788    -2.562647290634     1.033093801767
    C           -0.325850495966     0.166696212417    -0.054563987354
    C            1.059060112447     0.780972280967    -0.024821640797
    H           -0.951491334556     0.617583912941     0.715119629381
    H           -0.801168145560     0.365419964213    -1.015078182886
    C            1.031587560139     2.289519184334    -0.244829020308
    H            1.518351129707     0.550799654156     0.930257398290
    H            1.665648985056     0.303330520754    -0.786355260193
    H            0.449519434839     2.790393574737     0.521678198473
    H            2.032702301254     2.702199418191    -0.218783752735
    H            0.597241677959     2.541044142883    -1.206738461374

  Mulliken Charges: (a.u.)
   Center  Symbol    Alpha    Beta     Spin     Total
       1     H     0.47316  0.47316  0.00000  0.05368
       2     C     3.02932  3.02932  0.00000 -0.05865
       3     O     4.17627  4.17627  0.00000 -0.35253
       4     H     0.46045  0.46045  0.00000  0.07910
       5     H     0.45549  0.45549  0.00000  0.08901
       6     C     2.95540  2.95540  0.00000  0.08920
       7     C     3.08205  3.08205  0.00000 -0.16410
       8     H     0.47546  0.47546  0.00000  0.04909
       9     H     0.47608  0.47608  0.00000  0.04785
      10     C     3.15591  3.15591  0.00000 -0.31182
      11     H     0.45124  0.45124  0.00000  0.09751
      12     H     0.45112  0.45112  0.00000  0.09776
      13     H     0.45591  0.45591  0.00000  0.08819
      14     H     0.44629  0.44629  0.00000  0.10741
      15     H     0.45585  0.45585  0.00000  0.08830

   Total alpha = 21.00000, Total beta = 21.00000, Total charge = -0.00000
