                              Psi4 1.0.54 Driver

  ==> Input File <==

--------------------------------------------------------------------------
set {
	reference rhf
	basis cc-pvtz
}

set_num_threads( 4 )
memory 2 gb

molecule MOL {
0 1

H	 2.796317	 -0.308360	 -0.527274
O	 1.958224	 -0.745100	 -0.551651
C	 1.050374	 0.054877	 0.000135
C	 -0.318151	 -0.570512	 0.000144
O	 1.328150	 1.121921	 0.427014
C	 -1.454884	 0.441630	 -0.000560
H	 -0.371613	 -1.223646	 -0.864985
H	 -0.371920	 -1.222758	 0.865929
C	 -2.822577	 -0.232186	 0.000063
H	 -1.359760	 1.084704	 -0.867077
H	 -1.359641	 1.085996	 0.864983
H	 -2.954352	 -0.858985	 -0.875745
H	 -3.615886	 0.505352	 0.000019
H	 -2.953878	 -0.858359	 0.876394

	symmetry c1
}
set optking {
	frozen_dihedral = ("
		2 3 4 7
	")
}

ee,wfn = optimize('scf', return_wfn=True)
oeprop( wfn, 'DIPOLE', 'QUADRUPOLE', 'MULLIKEN_CHARGES')
f=open( 'psi4out.xyz', 'w' )
f.write( "14  " )
f.write( str(ee) + "\n" )
f.write( MOL.save_string_xyz() )
f.close()
--------------------------------------------------------------------------

    Molecular point group: c1
  Charge       = 0
  Multiplicity = 1
  Basis Set: CC-PVTZ
  Basis Set:
  @DF-RHF Final Energy:  -306.00024436596539
    Total Energy =                       -306.0002443659653864
    Molecular point group: c1
  Basis Set: CC-PVTZ
  Basis Set:
  Basis Set: CC-PVTZ
  Basis Set:
  @DF-RHF Final Energy:  -306.00034924410829
    Total Energy =                       -306.0003492441082926
  Basis Set: CC-PVTZ
  Basis Set:
  Basis Set: CC-PVTZ
  Basis Set:
  @DF-RHF Final Energy:  -306.00033666381586
    Total Energy =                       -306.0003366638158013
  Basis Set: CC-PVTZ
  Basis Set:
  Basis Set: CC-PVTZ
  Basis Set:
  @DF-RHF Final Energy:  -306.00045270473618
    Total Energy =                       -306.0004527047360625
  Basis Set: CC-PVTZ
  Basis Set:
  Charge       = 0
  Multiplicity = 1
  Basis Set: CC-PVTZ
  Basis Set:

    Orbital Energies (a.u.)
    -----------------------

    Doubly Occupied:

       1A    -20.605453     2A    -20.539955     3A    -11.374103
       4A    -11.239570     5A    -11.225373     6A    -11.215907
       7A     -1.478368     8A     -1.369285     9A     -1.084638
      10A     -0.980849    11A     -0.859010    12A     -0.795600
      13A     -0.705225    14A     -0.691728    15A     -0.665282
      16A     -0.620983    17A     -0.596736    18A     -0.574549
      19A     -0.547111    20A     -0.508602    21A     -0.493106
      22A     -0.484672    23A     -0.481553    24A     -0.446504

  @DF-RHF Final Energy:  -306.00045302988940

   => Energetics <=

    Nuclear Repulsion Energy =            240.3989327373381855
    One-Electron Energy =                -893.6304493555749104
    Two-Electron Energy =                 347.2310635883472401
    DFT Exchange-Correlation Energy =       0.0000000000000000
    Empirical Dispersion Energy =           0.0000000000000000
    PCM Polarization Energy =               0.0000000000000000
    EFP Energy =                            0.0000000000000000
    Total Energy =                       -306.0004530298894565
    Molecular point group: c1
  Basis Set: CC-PVTZ
  Basis Set:

  -Total Gradient:
     Atom            X                  Y                   Z
    ------   -----------------  -----------------  -----------------
       1       -0.000017228592    -0.000010003497    -0.000001145127
       2       -0.000097627089     0.000375454112    -0.000902851180
       3        0.000249683647    -0.000705260952     0.001349452534
       4       -0.000541564563     0.001269018911    -0.001105888162
       5        0.000008275887    -0.000000486883    -0.000002855152
       6        0.000006518970    -0.000015242522     0.000019478121
       7        0.000385814176    -0.000891068307     0.000661310690
       8        0.000001174022    -0.000007063361     0.000006934097
       9       -0.000008147670    -0.000001962456    -0.000019767190
      10       -0.000000736043    -0.000003495083    -0.000001521388
      11        0.000012439325    -0.000011978682    -0.000002979337
      12       -0.000006299381    -0.000003100524     0.000003098681
      13        0.000000523492    -0.000000133172    -0.000002397917
      14        0.000007173827     0.000005322418    -0.000000868671

  **** Optimization is complete! (in 5 steps) ****
    Final optimized geometry and variables:
    Molecular point group: c1

    Geometry (in Angstrom), charge = 0, multiplicity = 1:

    H            2.818555139874    -0.325925350299    -0.417659641458
    O            1.978693778170    -0.752865721740    -0.498240044541
    C            1.051985644811     0.042711680790     0.026183333964
    C           -0.318471997586    -0.579624115247    -0.006560819062
    O            1.315621883898     1.105290275308     0.473707041486
    C           -1.449605844672     0.441023636645     0.008565366659
    H           -0.378264975199    -1.239872673612    -0.862208920657
    H           -0.376428086717    -1.219968053866     0.870327685386
    C           -2.821695183101    -0.222973633594     0.029407127156
    H           -1.365520094558     1.080351668519    -0.863679045139
    H           -1.333718269657     1.085067020096     0.870273874415
    H           -2.969059473842    -0.854890045426    -0.840086592221
    H           -3.609614970989     0.520329751927     0.034546904529
    H           -2.945301192364    -0.841685386226     0.912068394960

  Mulliken Charges: (a.u.)
   Center  Symbol    Alpha    Beta     Spin     Total
       1     H     0.38135  0.38135  0.00000  0.23730
       2     O     4.15905  4.15905  0.00000 -0.31809
       3     C     2.80833  2.80833  0.00000  0.38334
       4     C     3.09955  3.09955  0.00000 -0.19911
       5     O     4.19332  4.19332  0.00000 -0.38664
       6     C     3.08196  3.08196  0.00000 -0.16392
       7     H     0.43674  0.43674  0.00000  0.12652
       8     H     0.44303  0.44303  0.00000  0.11393
       9     C     3.15002  3.15002  0.00000 -0.30004
      10     H     0.44998  0.44998  0.00000  0.10003
      11     H     0.44119  0.44119  0.00000  0.11763
      12     H     0.45544  0.45544  0.00000  0.08913
      13     H     0.44523  0.44523  0.00000  0.10954
      14     H     0.45481  0.45481  0.00000  0.09038

   Total alpha = 24.00000, Total beta = 24.00000, Total charge =  0.00000

*** Psi4 exiting successfully. Buy a developer a beer!
