  ==> Input File <==

--------------------------------------------------------------------------
set {
	reference rhf
	basis 6-31G*
}

set_num_threads( 1 )
memory 2 gb

molecule MOL {
0 1

O	 3.225979	 0.970355	 -0.599647
C	 2.701189	 0.057885	 -0.047330
C	 1.245376	 -0.013843	 0.345420
O	 3.347903	 -1.046386	 0.304773
C	 0.455112	 1.231400	 -0.050772
H	 0.838542	 -0.913825	 -0.103701
H	 1.208210	 -0.175333	 1.419774
C	 -0.998893	 1.219485	 0.433193
H	 0.482531	 1.345121	 -1.130325
H	 0.957290	 2.103070	 0.354729
C	 -1.300412	 0.211660	 1.546066
H	 -1.635859	 0.996222	 -0.419540
H	 -1.278753	 2.218274	 0.765016
C	 -2.783975	 0.160893	 1.916823
H	 -0.974783	 -0.778239	 1.230019
H	 -0.724147	 0.453033	 2.436363
C	 -3.096280	 -0.839089	 3.031558
H	 -3.367081	 -0.093438	 1.033342
H	 -3.112853	 1.152847	 2.222708
C	 -4.580428	 -0.886417	 3.393169
H	 -2.767365	 -1.830695	 2.727952
H	 -2.517637	 -0.583941	 3.916912
H	 -4.769942	 -1.603786	 4.185680
H	 -5.183703	 -1.173168	 2.536414
H	 -4.932090	 0.083372	 3.733928
C	 4.728119	 -1.109107	 -0.004993
H	 4.882018	 -1.033965	 -1.071845
H	 5.068212	 -2.067527	 0.355250
H	 5.265056	 -0.311663	 0.488280

	symmetry c1
}
set optking {
	frozen_dihedral = ("
		21 17 14 11,
		17 14 11 15,
		15 11 8 5,
		6 3 5 9,
		2 4 26 27,
		1 2 4 26,
		6 3 2 1
	")
}

ee = energy('scf')
oeprop('DIPOLE', 'QUADRUPOLE', 'MULLIKEN_CHARGES')
f=open( 'psi4out.xyz', 'w' )
f.write( "29  " )
f.write( str(ee) + "\n" )
f.write( MOL.save_string_xyz() )
f.close()
--------------------------------------------------------------------------

    Molecular point group: c1

    Geometry (in Angstrom), charge = 0, multiplicity = 1:

       Center              X                  Y                   Z               Mass
    ------------   -----------------  -----------------  -----------------  -----------------
           O          2.916578429896     0.989659717900    -1.528721667796    15.994914619560
           C          2.391788429896     0.077189717900    -0.976404667796    12.000000000000
           C          0.935975429896     0.005461717900    -0.583654667796    12.000000000000
           O          3.038502429896    -1.027081282100    -0.624301667796    15.994914619560
           C          0.145711429896     1.250704717900    -0.979846667796    12.000000000000
           H          0.529141429896    -0.894520282100    -1.032775667796     1.007825032070
           H          0.898809429896    -0.156028282100     0.490699332204     1.007825032070
           C         -1.308293570104     1.238789717900    -0.495881667796    12.000000000000
           H          0.173130429896     1.364425717900    -2.059399667796     1.007825032070
           H          0.647889429896     2.122374717900    -0.574345667796     1.007825032070
           C         -1.609812570104     0.230964717900     0.616991332204    12.000000000000
           H         -1.945259570104     1.015526717900    -1.348614667796     1.007825032070
           H         -1.588153570104     2.237578717900    -0.164058667796     1.007825032070
           C         -3.093375570104     0.180197717900     0.987748332204    12.000000000000
           H         -1.284183570104    -0.758934282100     0.300944332204     1.007825032070
           H         -1.033547570104     0.472337717900     1.507288332204     1.007825032070
           C         -3.405680570104    -0.819784282100     2.102483332204    12.000000000000
           H         -3.676481570104    -0.074133282100     0.104267332204     1.007825032070
           H         -3.422253570104     1.172151717900     1.293633332204     1.007825032070
           C         -4.889828570104    -0.867112282100     2.464094332204    12.000000000000
           H         -3.076765570104    -1.811390282100     1.798877332204     1.007825032070
           H         -2.827037570104    -0.564636282100     2.987837332204     1.007825032070
           H         -5.079342570104    -1.584481282100     3.256605332204     1.007825032070
           H         -5.493103570104    -1.153863282100     1.607339332204     1.007825032070
           H         -5.241490570104     0.102676717900     2.804853332204     1.007825032070
           C          4.418718429896    -1.089802282100    -0.934067667796    12.000000000000
           H          4.572617429896    -1.014660282100    -2.000919667796     1.007825032070
           H          4.758811429896    -2.048222282100    -0.573824667796     1.007825032070
           H          4.955655429896    -0.292358282100    -0.440794667796     1.007825032070

  Charge       = 0
  Multiplicity = 1
  Basis Set: 6-31G*
  Basis Set:

    Orbital Energies (a.u.)
    -----------------------

    Doubly Occupied:

       1A    -20.602909     2A    -20.544324     3A    -11.370939
       4A    -11.280369     5A    -11.233916     6A    -11.217825
       7A    -11.216911     8A    -11.216228     9A    -11.216182
      10A    -11.214495    11A    -11.209342    12A     -1.468456
      13A     -1.361803    14A     -1.100267    15A     -1.066047
      16A     -1.018036    17A     -0.976422    18A     -0.929239
      19A     -0.865907    20A     -0.798636    21A     -0.792286
      22A     -0.757762    23A     -0.699837    24A     -0.682986
      25A     -0.670350    26A     -0.656778    27A     -0.630014
      28A     -0.604434    29A     -0.590591    30A     -0.578799
      31A     -0.568516    32A     -0.553620    33A     -0.531367
      34A     -0.526810    35A     -0.520310    36A     -0.511503
      37A     -0.500820    38A     -0.480190    39A     -0.467664
      40A     -0.460240    41A     -0.456979    42A     -0.449730
      43A     -0.439998    44A     -0.436108

  @DF-RHF Final Energy:  -501.03516992333959

   => Energetics <=

    Nuclear Repulsion Energy =            616.4703754995053941
    One-Electron Energy =               -1904.0591310234144657
    Two-Electron Energy =                 786.5535856005710684
    DFT Exchange-Correlation Energy =       0.0000000000000000
    Empirical Dispersion Energy =           0.0000000000000000
    PCM Polarization Energy =               0.0000000000000000
    EFP Energy =                            0.0000000000000000
    Total Energy =                       -501.0351699233381169

  Mulliken Charges: (a.u.)
   Center  Symbol    Alpha    Beta     Spin     Total
       1     O     4.28612  4.28612  0.00000 -0.57225
       2     C     2.60281  2.60281  0.00000  0.79437
       3     C     3.21662  3.21662  0.00000 -0.43323
       4     O     4.30752  4.30752  0.00000 -0.61504
       5     C     3.15457  3.15457  0.00000 -0.30915
       6     H     0.40024  0.40024  0.00000  0.19953
       7     H     0.39714  0.39714  0.00000  0.20573
       8     C     3.15601  3.15601  0.00000 -0.31202
       9     H     0.41012  0.41012  0.00000  0.17976
      10     H     0.40950  0.40950  0.00000  0.18100
      11     C     3.16147  3.16147  0.00000 -0.32294
      12     H     0.42100  0.42100  0.00000  0.15800
      13     H     0.41783  0.41783  0.00000  0.16434
      14     C     3.14858  3.14858  0.00000 -0.29716
      15     H     0.42118  0.42118  0.00000  0.15764
      16     H     0.42285  0.42285  0.00000  0.15431
      17     C     3.15152  3.15152  0.00000 -0.30304
      18     H     0.42369  0.42369  0.00000  0.15262
      19     H     0.42358  0.42358  0.00000  0.15284
      20     C     3.23932  3.23932  0.00000 -0.47864
      21     H     0.42333  0.42333  0.00000  0.15333
      22     H     0.42330  0.42330  0.00000  0.15340
      23     H     0.41923  0.41923  0.00000  0.16154
      24     H     0.42170  0.42170  0.00000  0.15661
      25     H     0.42156  0.42156  0.00000  0.15688
      26     C     3.09229  3.09229  0.00000 -0.18458
      27     H     0.40915  0.40915  0.00000  0.18170
      28     H     0.40859  0.40859  0.00000  0.18282
      29     H     0.40919  0.40919  0.00000  0.18162

   Total alpha = 44.00000, Total beta = 44.00000, Total charge =  0.00000
