  ==> Input File <==

--------------------------------------------------------------------------
set {
	reference rhf
	basis 6-31G*
}

set_num_threads( 4 )
memory 2 gb

molecule MOL {
0 1

O	 1.846825	 1.296220	 0.000415
C	 1.705091	 0.115954	 0.001797
C	 0.381791	 -0.609817	 0.001258
O	 2.721346	 -0.737485	 -0.000216
C	 -0.823008	 0.326187	 0.001381
H	 0.371250	 -1.265087	 -0.865474
H	 0.370908	 -1.265746	 0.867490
C	 -1.624954	 0.240161	 -1.298059
H	 -0.484086	 1.345240	 0.159025
H	 -1.461750	 0.086827	 0.845789
C	 -2.836856	 1.173354	 -1.315444
H	 -0.978040	 0.477742	 -2.141299
H	 -1.959960	 -0.784560	 -1.451681
C	 -3.638430	 1.086062	 -2.613562
H	 -2.503626	 2.197739	 -1.164669
H	 -3.484483	 0.936686	 -0.474193
H	 -3.026493	 1.351120	 -3.471169
H	 -4.490456	 1.758496	 -2.595245
H	 -4.014781	 0.079847	 -2.775436
C	 4.024888	 -0.184556	 -0.001949
H	 4.179030	 0.422472	 -0.882452
H	 4.701782	 -1.024608	 -0.003642
H	 4.181981	 0.421185	 0.878906

	symmetry c1
}
set optking {
	frozen_dihedral = ("
		9 5 3 6
	")
}

ee = optimize('scf')
oeprop('DIPOLE', 'QUADRUPOLE', 'MULLIKEN_CHARGES')
f=open( 'psi4out.xyz', 'w' )
f.write( "23  " )
f.write( str(ee) + "\n" )
f.write( MOL.save_string_xyz() )
f.close()
--------------------------------------------------------------------------

    Molecular point group: c1
  Charge       = 0
  Multiplicity = 1
  Basis Set: 6-31G*
  Basis Set:
  @DF-RHF Final Energy:  -422.97164512367817
    Total Energy =                       -422.9716451236783996
    Molecular point group: c1
  Basis Set: 6-31G*
  Basis Set:
  Basis Set: 6-31G*
  Basis Set:
  @DF-RHF Final Energy:  -422.97195636808237
    Total Energy =                       -422.9719563680828287
  Basis Set: 6-31G*
  Basis Set:
  Basis Set: 6-31G*
  Basis Set:
  @DF-RHF Final Energy:  -422.97179561113268
    Total Energy =                       -422.9717956111331887
  Basis Set: 6-31G*
  Basis Set:
  Basis Set: 6-31G*
  Basis Set:
  @DF-RHF Final Energy:  -422.97205969551254
    Total Energy =                       -422.9720596955125984
  Basis Set: 6-31G*
  Basis Set:
  Basis Set: 6-31G*
  Basis Set:
  @DF-RHF Final Energy:  -422.97206204881087
    Total Energy =                       -422.9720620488109262
  Basis Set: 6-31G*
  Basis Set:
  Basis Set: 6-31G*
  Basis Set:
  @DF-RHF Final Energy:  -422.97206631045009
    Total Energy =                       -422.9720663104499181
  Basis Set: 6-31G*
  Basis Set:
  Basis Set: 6-31G*
  Basis Set:
  @DF-RHF Final Energy:  -422.97206888454065
    Total Energy =                       -422.9720688845404766
  Basis Set: 6-31G*
  Basis Set:
  Charge       = 0
  Multiplicity = 1
  Basis Set: 6-31G*
  Basis Set:

    Orbital Energies (a.u.)
    -----------------------

    Doubly Occupied:

       1A    -20.604010     2A    -20.546318     3A    -11.373059
       4A    -11.281122     5A    -11.235422     6A    -11.217370
       7A    -11.215689     8A    -11.214451     9A    -11.208031
      10A     -1.469981    11A     -1.363345    12A     -1.090312
      13A     -1.041979    14A     -0.986301    15A     -0.930923
      16A     -0.843781    17A     -0.794223    18A     -0.766624
      19A     -0.701398    20A     -0.680997    21A     -0.672214
      22A     -0.642227    23A     -0.612069    24A     -0.599120
      25A     -0.570270    26A     -0.556865    27A     -0.555050
      28A     -0.529813    29A     -0.523217    30A     -0.499275
      31A     -0.488181    32A     -0.466912    33A     -0.463230
      34A     -0.457241    35A     -0.452919    36A     -0.438482

  @DF-RHF Final Energy:  -422.97206960617314

   => Energetics <=

    Nuclear Repulsion Energy =            456.0753548097281964
    One-Electron Energy =               -1479.9100059246193268
    Two-Electron Energy =                 600.8625815087181081
    DFT Exchange-Correlation Energy =       0.0000000000000000
    Empirical Dispersion Energy =           0.0000000000000000
    PCM Polarization Energy =               0.0000000000000000
    EFP Energy =                            0.0000000000000000
    Total Energy =                       -422.9720696061730223
    Molecular point group: c1
  Basis Set: 6-31G*
  Basis Set:

  -Total Gradient:
     Atom            X                  Y                   Z
    ------   -----------------  -----------------  -----------------
       1       -0.000005257297    -0.000069992109     0.000014643161
       2       -0.000014081676     0.000174897349    -0.000015581332
       3       -0.001292332085    -0.001701141512     0.000799281529
       4        0.000063109517    -0.000058845930     0.000010764176
       5        0.000084305400     0.000051877196     0.002159054287
       6        0.001001666813     0.001345289782    -0.000992416779
       7        0.000006883779     0.000020163555     0.000013069141
       8       -0.000008249652     0.000004910392    -0.000052841060
       9        0.000170539947     0.000229546628    -0.001909585577
      10        0.000009588625    -0.000003293736    -0.000018253453
      11        0.000004490307     0.000007076938    -0.000001537264
      12        0.000004364419    -0.000002162837     0.000000886591
      13        0.000001621257     0.000009488608     0.000002586089
      14       -0.000016375238    -0.000006397154     0.000003269358
      15        0.000005448931    -0.000001657626    -0.000003870376
      16       -0.000001670656     0.000003995245    -0.000001706888
      17        0.000001194620     0.000003656014     0.000005928410
      18       -0.000001985529    -0.000002900442     0.000002224806
      19        0.000000719234    -0.000002908087    -0.000005363642
      20       -0.000024009716    -0.000005990235    -0.000020146391
      21        0.000007619227     0.000001243528     0.000002081892
      22        0.000003580919     0.000000705757     0.000002796490
      23       -0.000001171144     0.000002438678     0.000004716833

  **** Optimization is complete! (in 8 steps) ****
    Final optimized geometry and variables:
    Molecular point group: c1

    Geometry (in Angstrom), charge = 0, multiplicity = 1:

    O            1.625122812387     0.994662949645     0.494423049319
    C            1.475811822929    -0.182091516500     0.571681072130
    C            0.152914905676    -0.915111832223     0.605475975509
    O            2.488938021869    -1.037473017887     0.628395368733
    C           -1.078154630592     0.005187785524     0.599874483988
    H            0.160019192221    -1.572168189495    -0.259780046244
    H            0.174345453474    -1.566747110280     1.472208445626
    C           -1.870087078977    -0.062703078718    -0.708987373466
    H           -0.755831690346     1.026695784077     0.757651745677
    H           -1.730632983802    -0.257378142254     1.427098069374
    C           -3.084835754975     0.865549523141    -0.722030809060
    H           -1.211571866053     0.195507326338    -1.536735188746
    H           -2.197590173986    -1.086448135300    -0.884851025614
    C           -3.873823402180     0.797969557714    -2.029144816346
    H           -2.756362971669     1.888053908919    -0.550564455820
    H           -3.740465483031     0.611888832267     0.108541238006
    H           -3.254518983909     1.081083398815    -2.875524237580
    H           -4.728917286069     1.466407731234    -2.007240016113
    H           -4.244240363982    -0.206779007385    -2.212733067115
    C            3.794882787064    -0.491453193678     0.590869343207
    H            3.953160162651     0.052526579383    -0.329212762251
    H            4.468025508465    -1.332601969706     0.648400508783
    H            3.953232602106     0.172835165464     1.428175676885

  Mulliken Charges: (a.u.)
   Center  Symbol    Alpha    Beta     Spin     Total
       1     O     4.28521  4.28521  0.00000 -0.57043
       2     C     2.61274  2.61274  0.00000  0.77451
       3     C     3.20946  3.20946  0.00000 -0.41891
       4     O     4.30559  4.30559  0.00000 -0.61117
       5     C     3.16177  3.16177  0.00000 -0.32354
       6     H     0.39788  0.39788  0.00000  0.20424
       7     H     0.39700  0.39700  0.00000  0.20601
       8     C     3.15476  3.15476  0.00000 -0.30953
       9     H     0.39511  0.39511  0.00000  0.20978
      10     H     0.41900  0.41900  0.00000  0.16199
      11     C     3.15276  3.15276  0.00000 -0.30552
      12     H     0.42056  0.42056  0.00000  0.15888
      13     H     0.42485  0.42485  0.00000  0.15030
      14     C     3.23945  3.23945  0.00000 -0.47890
      15     H     0.41950  0.41950  0.00000  0.16101
      16     H     0.42337  0.42337  0.00000  0.15325
      17     H     0.42099  0.42099  0.00000  0.15801
      18     H     0.41896  0.41896  0.00000  0.16207
      19     H     0.42241  0.42241  0.00000  0.15517
      20     C     3.09204  3.09204  0.00000 -0.18409
      21     H     0.40918  0.40918  0.00000  0.18164
      22     H     0.40846  0.40846  0.00000  0.18307
      23     H     0.40893  0.40893  0.00000  0.18213

   Total alpha = 36.00000, Total beta = 36.00000, Total charge =  0.00000
