  ==> Input File <==

--------------------------------------------------------------------------
set {
	reference rhf
	basis 6-31G*
}

set_num_threads( 4 )
memory 2 gb

molecule MOL {
0 1

O	 1.846386	 1.296922	 0.032703
C	 1.703491	 0.118557	 0.097164
C	 0.380194	 -0.607216	 0.094686
O	 2.718397	 -0.732693	 0.177631
C	 -0.823008	 0.326187	 0.001381
H	 0.397552	 -1.311170	 -0.732878
H	 0.340115	 -1.212346	 0.996313
C	 -2.149452	 -0.435131	 -0.000098
H	 -0.741008	 0.926297	 -0.899359
H	 -0.799196	 1.024471	 0.832129
C	 -3.368779	 0.488503	 -0.000883
H	 -2.193746	 -1.087250	 -0.871175
H	 -2.195311	 -1.087803	 0.870418
C	 -4.693822	 -0.272754	 -0.001129
H	 -3.325798	 1.139422	 -0.871284
H	 -3.326423	 1.139959	 0.869145
H	 -4.781274	 -0.907928	 -0.878124
H	 -5.538651	 0.408946	 -0.001420
H	 -4.781694	 -0.907783	 0.875984
C	 4.021847	 -0.179625	 0.187113
H	 4.205528	 0.375992	 -0.721226
H	 4.697580	 -1.017791	 0.255949
H	 4.150446	 0.475822	 1.036441

	symmetry c1
}
set optking {
	frozen_dihedral = ("
		9 5 8 12
	")
}

ee = optimize('scf')
oeprop('DIPOLE', 'QUADRUPOLE', 'MULLIKEN_CHARGES')
f=open( 'psi4out.xyz', 'w' )
f.write( "23  " )
f.write( str(ee) + "\n" )
f.write( MOL.save_string_xyz() )
f.close()
--------------------------------------------------------------------------

    Molecular point group: c1
  Charge       = 0
  Multiplicity = 1
  Basis Set: 6-31G*
  Basis Set:
  @DF-RHF Final Energy:  -422.97625791427726
    Total Energy =                       -422.9762579142770846
    Molecular point group: c1
  Basis Set: 6-31G*
  Basis Set:
  Basis Set: 6-31G*
  Basis Set:
  @DF-RHF Final Energy:  -422.97619996028732
    Total Energy =                       -422.9761999602875449
  Basis Set: 6-31G*
  Basis Set:
  Basis Set: 6-31G*
  Basis Set:
  @DF-RHF Final Energy:  -422.97623907514475
    Total Energy =                       -422.9762390751452585
  Basis Set: 6-31G*
  Basis Set:
  Basis Set: 6-31G*
  Basis Set:
  @DF-RHF Final Energy:  -422.97626800062068
    Total Energy =                       -422.9762680006206210
  Basis Set: 6-31G*
  Basis Set:
  Charge       = 0
  Multiplicity = 1
  Basis Set: 6-31G*
  Basis Set:

    Orbital Energies (a.u.)
    -----------------------

    Doubly Occupied:

       1A    -20.603617     2A    -20.545422     3A    -11.372233
       4A    -11.280841     5A    -11.235504     6A    -11.219316
       7A    -11.217901     8A    -11.216440     9A    -11.209632
      10A     -1.469310    11A     -1.362757    12A     -1.093197
      13A     -1.043620    14A     -0.987024    15A     -0.932070
      16A     -0.843536    17A     -0.795004    18A     -0.767249
      19A     -0.696839    20A     -0.683875    21A     -0.671471
      22A     -0.651885    23A     -0.609353    24A     -0.599382
      25A     -0.572665    26A     -0.558055    27A     -0.557244
      28A     -0.523805    29A     -0.521185    30A     -0.507590
      31A     -0.484588    32A     -0.469716    33A     -0.466450
      34A     -0.461120    35A     -0.455637    36A     -0.435425

  @DF-RHF Final Energy:  -422.97626780780263

   => Energetics <=

    Nuclear Repulsion Energy =            452.1265202290720708
    One-Electron Energy =               -1471.9636707819745425
    Two-Electron Energy =                 596.8608827450998433
    DFT Exchange-Correlation Energy =       0.0000000000000000
    Empirical Dispersion Energy =           0.0000000000000000
    PCM Polarization Energy =               0.0000000000000000
    EFP Energy =                            0.0000000000000000
    Total Energy =                       -422.9762678078026283
    Molecular point group: c1
  Basis Set: 6-31G*
  Basis Set:

  -Total Gradient:
     Atom            X                  Y                   Z
    ------   -----------------  -----------------  -----------------
       1        0.000001498708     0.000000540616    -0.000022737631
       2       -0.000001370482    -0.000001642888     0.000079100982
       3        0.000008870102    -0.000014424371     0.000029979579
       4        0.000002450374     0.000000438061    -0.000020015918
       5       -0.000430753638     0.000736543994     0.000202477618
       6       -0.000007336502     0.000010853281     0.000000917705
       7        0.000018578222    -0.000018603480     0.000003793142
       8        0.000421029355    -0.000708814277     0.000326494758
       9        0.000278490388    -0.000505290191    -0.000308154577
      10       -0.000016641993    -0.000003804260    -0.000017506573
      11       -0.000010573919     0.000010866226     0.000103727135
      12       -0.000269016859     0.000471263315    -0.000351121107
      13        0.000019199004     0.000014362171    -0.000016694706
      14       -0.000000146811     0.000000357473    -0.000034059465
      15        0.000008570838    -0.000006147345     0.000014212585
      16       -0.000019340727     0.000014277174     0.000016871817
      17        0.000000081909    -0.000015878450     0.000004431895
      18        0.000000487604     0.000000818214    -0.000016879779
      19       -0.000000662020     0.000014985224     0.000005214445
      20       -0.000001251166    -0.000003150557     0.000001984686
      21       -0.000000391606     0.000000813762    -0.000000727090
      22       -0.000001560108     0.000001823462    -0.000000492244
      23       -0.000000210681    -0.000000187154    -0.000000817259

  **** Optimization is complete! (in 5 steps) ****
    Final optimized geometry and variables:
    Molecular point group: c1

    Geometry (in Angstrom), charge = 0, multiplicity = 1:

    O            1.847532671616     1.295025000811    -0.039021109018
    C            1.704714831207     0.116834325146     0.028542289477
    C            0.381125188610    -0.608392414603     0.036223834582
    O            2.719718003114    -0.734419809447     0.107770726389
    C           -0.822558386439     0.325409398733    -0.052060399772
    H            0.392957362377    -1.314427936683    -0.789720140327
    H            0.346657406436    -1.211302355337     0.939529714624
    C           -2.148295465528    -0.437308864853    -0.052541919831
    H           -0.741816273006     0.923452857449    -0.954246693555
    H           -0.795906731055     1.022775820807     0.779261825915
    C           -3.367864842613     0.486396314426    -0.063328089315
    H           -2.190028750784    -1.090581482207    -0.922770917381
    H           -2.198297310791    -1.085845051358     0.820708254791
    C           -4.692727368468    -0.274943784617    -0.083405005316
    H           -3.314474786958     1.141498440904    -0.930009705130
    H           -3.336207926603     1.133672068329     0.810229992318
    H           -4.768739446924    -0.907331295912    -0.963514312468
    H           -5.537585825464     0.406625519000    -0.092459389211
    H           -4.791970303492    -0.912844843463     0.790414896022
    C            4.023352589377    -0.181656858833     0.109915358765
    H            4.203525087266     0.370536172670    -0.801204816506
    H            4.699166011911    -1.019784391262     0.179050072189
    H            4.155567519745     0.476839051276     0.956330129896

  Mulliken Charges: (a.u.)
   Center  Symbol    Alpha    Beta     Spin     Total
       1     O     4.28610  4.28610  0.00000 -0.57219
       2     C     2.60489  2.60489  0.00000  0.79023
       3     C     3.20829  3.20829  0.00000 -0.41658
       4     O     4.30740  4.30740  0.00000 -0.61479
       5     C     3.15236  3.15236  0.00000 -0.30473
       6     H     0.40066  0.40066  0.00000  0.19867
       7     H     0.40067  0.40067  0.00000  0.19866
       8     C     3.15334  3.15334  0.00000 -0.30667
       9     H     0.41154  0.41154  0.00000  0.17693
      10     H     0.41181  0.41181  0.00000  0.17638
      11     C     3.15159  3.15159  0.00000 -0.30318
      12     H     0.42377  0.42377  0.00000  0.15245
      13     H     0.42412  0.42412  0.00000  0.15177
      14     C     3.23958  3.23958  0.00000 -0.47915
      15     H     0.42129  0.42129  0.00000  0.15742
      16     H     0.42142  0.42142  0.00000  0.15717
      17     H     0.42182  0.42182  0.00000  0.15637
      18     H     0.41848  0.41848  0.00000  0.16305
      19     H     0.42186  0.42186  0.00000  0.15627
      20     C     3.09244  3.09244  0.00000 -0.18489
      21     H     0.40908  0.40908  0.00000  0.18184
      22     H     0.40843  0.40843  0.00000  0.18314
      23     H     0.40908  0.40908  0.00000  0.18184

   Total alpha = 36.00000, Total beta = 36.00000, Total charge =  0.00000
