  ==> Input File <==

--------------------------------------------------------------------------
set {
	reference rhf
	basis cc-pvtz
}

set_num_threads( 4 )
memory 2 gb

molecule MOL {
0 1

H	 -2.498963	 -0.741158	 -0.729149
O	 -2.346257	 -0.289210	 0.080372
C	 -1.183935	 0.486039	 -0.009831
C	 0.062853	 -0.375310	 0.027457
H	 -1.178881	 1.094526	 -0.908634
H	 -1.184406	 1.155156	 0.838676
O	 1.172093	 0.457955	 -0.054438
H	 0.052476	 -1.081302	 -0.804627
H	 0.076323	 -0.955658	 0.947560
C	 2.109495	 0.082522	 -1.009188
H	 1.680143	 0.081103	 -2.008652
H	 2.917879	 0.798260	 -0.978836
H	 2.509679	 -0.907794	 -0.805108

	symmetry c1
}
set optking {
	frozen_dihedral = ("
		10 7 4 8
	")
}

ee = optimize('scf')
oeprop('DIPOLE', 'QUADRUPOLE', 'MULLIKEN_CHARGES')
f=open( 'psi4out.xyz', 'w' )
f.write( "13  " )
f.write( str(ee) + "\n" )
f.write( MOL.save_string_xyz() )
f.close()
--------------------------------------------------------------------------

    Molecular point group: c1
  Charge       = 0
  Multiplicity = 1
  Basis Set: CC-PVTZ
  Basis Set:
  @DF-RHF Final Energy:  -268.05857935033794
    Total Energy =                       -268.0585793503376522
    Molecular point group: c1
  Basis Set: CC-PVTZ
  Basis Set:
  Basis Set: CC-PVTZ
  Basis Set:
  @DF-RHF Final Energy:  -268.05887705577135
    Total Energy =                       -268.0588770557712905
  Basis Set: CC-PVTZ
  Basis Set:
  Basis Set: CC-PVTZ
  Basis Set:
  @DF-RHF Final Energy:  -268.05895991852429
    Total Energy =                       -268.0589599185243515
  Basis Set: CC-PVTZ
  Basis Set:
  Basis Set: CC-PVTZ
  Basis Set:
  @DF-RHF Final Energy:  -268.05896123653133
    Total Energy =                       -268.0589612365312746
  Basis Set: CC-PVTZ
  Basis Set:
  Charge       = 0
  Multiplicity = 1
  Basis Set: CC-PVTZ
  Basis Set:

    Orbital Energies (a.u.)
    -----------------------

    Doubly Occupied:

       1A    -20.553544     2A    -20.553200     3A    -11.269162
       4A    -11.269109     5A    -11.267414     6A     -1.388314
       7A     -1.369120     8A     -1.018790     9A     -0.917466
      10A     -0.842323    11A     -0.712009    12A     -0.669881
      13A     -0.663388    14A     -0.644008    15A     -0.590652
      16A     -0.574356    17A     -0.552036    18A     -0.490943
      19A     -0.474689    20A     -0.460232    21A     -0.411786

  @DF-RHF Final Energy:  -268.05896134768301

   => Energetics <=

    Nuclear Repulsion Energy =            190.6410000243236595
    One-Electron Energy =                -744.0150735004767739
    Two-Electron Energy =                 285.3151121284701048
    DFT Exchange-Correlation Energy =       0.0000000000000000
    Empirical Dispersion Energy =           0.0000000000000000
    PCM Polarization Energy =               0.0000000000000000
    EFP Energy =                            0.0000000000000000
    Total Energy =                       -268.0589613476830664
    Molecular point group: c1
  Basis Set: CC-PVTZ
  Basis Set:

  -Total Gradient:
     Atom            X                  Y                   Z
    ------   -----------------  -----------------  -----------------
       1        0.000002675477     0.000010068411     0.000002204785
       2       -0.000002816580    -0.000012687075     0.000008257741
       3        0.000012504511    -0.000001044434    -0.000006049348
       4       -0.001302485515     0.001756904068    -0.001575559056
       5        0.000002499934     0.000001356304     0.000004730433
       6       -0.000010456742     0.000002223497    -0.000001973593
       7        0.001072908404    -0.001419054291     0.001607154352
       8        0.000831399280    -0.001108002639     0.000887695680
       9       -0.000000506167     0.000013485121     0.000002793194
      10       -0.000600989898     0.000756516027    -0.000933924079
      11        0.000002096272    -0.000001417274     0.000002900334
      12       -0.000006666002    -0.000001093339     0.000003078648
      13       -0.000000162976     0.000002745624    -0.000001309091

  **** Optimization is complete! (in 5 steps) ****
    Final optimized geometry and variables:
    Molecular point group: c1

    Geometry (in Angstrom), charge = 0, multiplicity = 1:

    H           -2.482997835437    -0.811739181719    -0.445310809498
    O           -2.302106291614    -0.329935090629     0.340868557262
    C           -1.136917853448     0.430805656796     0.186923693978
    C            0.107101754281    -0.437797023233     0.197912523109
    H           -1.164309930351     1.021424239618    -0.724372965284
    H           -1.097228359783     1.118629498288     1.019421039048
    O            1.237801870768     0.378665847836     0.141798771967
    H            0.088100654593    -1.135804947723    -0.636861892562
    H            0.123700483315    -1.030843384562     1.107076988279
    C            2.205398087006     0.026716843290    -0.792571170074
    H            1.805134072865     0.030530187979    -1.803581973296
    H            2.999606765437     0.756566618475    -0.732186277741
    H            2.621824322037    -0.957023383877    -0.589634653287

  Mulliken Charges: (a.u.)
   Center  Symbol    Alpha    Beta     Spin     Total
       1     H     0.39507  0.39507  0.00000  0.20986
       2     O     4.20105  4.20105  0.00000 -0.40211
       3     C     2.97126  2.97126  0.00000  0.05748
       4     C     2.97203  2.97203  0.00000  0.05594
       5     H     0.47001  0.47001  0.00000  0.05998
       6     H     0.45270  0.45270  0.00000  0.09460
       7     O     4.18068  4.18068  0.00000 -0.36136
       8     H     0.48091  0.48091  0.00000  0.03818
       9     H     0.45708  0.45708  0.00000  0.08584
      10     C     3.02974  3.02974  0.00000 -0.05948
      11     H     0.47303  0.47303  0.00000  0.05394
      12     H     0.44795  0.44795  0.00000  0.10410
      13     H     0.46850  0.46850  0.00000  0.06300

   Total alpha = 21.00000, Total beta = 21.00000, Total charge = -0.00000
