  ==> Input File <==

--------------------------------------------------------------------------
set {
	reference rhf
	basis cc-pvtz
}

set_num_threads( 4 )
memory 2 gb

molecule MOL {
0 1

H	 -2.816458	 -0.841657	 -0.064679
N	 -1.878861	 -0.711874	 0.250184
C	 -1.341419	 0.551458	 -0.220231
H	 -1.333674	 -1.468530	 -0.105118
C	 -0.536373	 1.223210	 0.868483
H	 -0.710388	 0.452258	 -1.102559
H	 -2.167054	 1.203790	 -0.482607
O	 0.579374	 0.435204	 1.154599
H	 -0.221175	 2.212066	 0.538353
H	 -1.151127	 1.340644	 1.757986
C	 1.369844	 0.911081	 2.192828
H	 2.197270	 0.228133	 2.320631
H	 1.764734	 1.900256	 1.970814
H	 0.812348	 0.964701	 3.124968

	symmetry c1
}
set optking {
	frozen_dihedral = ("
		6 3 2 4
	")
}

ee = optimize('scf')
oeprop('DIPOLE', 'QUADRUPOLE', 'MULLIKEN_CHARGES')
f=open( 'psi4out.xyz', 'w' )
f.write( "14  " )
f.write( str(ee) + "\n" )
f.write( MOL.save_string_xyz() )
f.close()
--------------------------------------------------------------------------

    Molecular point group: c1
  Charge       = 0
  Multiplicity = 1
  Basis Set: CC-PVTZ
  Basis Set:
  @DF-RHF Final Energy:  -248.22217129573653
    Total Energy =                       -248.2221712957364730
    Molecular point group: c1
  Basis Set: CC-PVTZ
  Basis Set:
  Basis Set: CC-PVTZ
  Basis Set:
  @DF-RHF Final Energy:  -248.22260633038832
    Total Energy =                       -248.2226063303882029
  Basis Set: CC-PVTZ
  Basis Set:
  Basis Set: CC-PVTZ
  Basis Set:
  @DF-RHF Final Energy:  -248.22266714578248
    Total Energy =                       -248.2226671457824523
  Basis Set: CC-PVTZ
  Basis Set:
  Basis Set: CC-PVTZ
  Basis Set:
  @DF-RHF Final Energy:  -248.22267191344994
    Total Energy =                       -248.2226719134498580
  Basis Set: CC-PVTZ
  Basis Set:
  Charge       = 0
  Multiplicity = 1
  Basis Set: CC-PVTZ
  Basis Set:

    Orbital Energies (a.u.)
    -----------------------

    Doubly Occupied:

       1A    -20.544269     2A    -15.526017     3A    -11.258788
       4A    -11.258151     5A    -11.241206     6A     -1.378941
       7A     -1.175748     8A     -0.999118     9A     -0.903373
      10A     -0.813603    11A     -0.682290    12A     -0.674109
      13A     -0.638274    14A     -0.623899    15A     -0.603305
      16A     -0.531311    17A     -0.521643    18A     -0.504667
      19A     -0.471563    20A     -0.414196    21A     -0.384870

  @DF-RHF Final Energy:  -248.22267230542241

   => Energetics <=

    Nuclear Repulsion Energy =            193.8342101508432620
    One-Electron Energy =                -721.8150841500009847
    Two-Electron Energy =                 279.7582016937351455
    DFT Exchange-Correlation Energy =       0.0000000000000000
    Empirical Dispersion Energy =           0.0000000000000000
    PCM Polarization Energy =               0.0000000000000000
    EFP Energy =                            0.0000000000000000
    Total Energy =                       -248.2226723054225204
    Molecular point group: c1
  Basis Set: CC-PVTZ
  Basis Set:

  -Total Gradient:
     Atom            X                  Y                   Z
    ------   -----------------  -----------------  -----------------
       1        0.000003366295     0.000021144345     0.000015888109
       2        0.003391089294     0.000188189143     0.004543698769
       3       -0.004001595995     0.000449444225    -0.003602548050
       4       -0.002080811976    -0.000221154241    -0.003157136615
       5       -0.000044123260    -0.000022584532     0.000055989239
       6        0.002708582563    -0.000423006823     0.002179545837
       7        0.000014185447    -0.000000534950    -0.000004089591
       8        0.000000673043     0.000014382244    -0.000033364581
       9        0.000014568010    -0.000034781158    -0.000004684228
      10       -0.000008497581     0.000017945665     0.000009737836
      11        0.000005855303     0.000016399339    -0.000001476417
      12       -0.000003398394    -0.000001608349    -0.000004349492
      13        0.000004442759    -0.000001496148     0.000006397471
      14       -0.000004335505    -0.000002338761    -0.000003608286

  **** Optimization is complete! (in 5 steps) ****
    Final optimized geometry and variables:
    Molecular point group: c1

    Geometry (in Angstrom), charge = 0, multiplicity = 1:

    H           -2.478634555319    -1.309493321569    -0.961816872249
    N           -1.561687630584    -1.182032382689    -0.592040807355
    C           -0.983813938967     0.069921470805    -1.064288571611
    H           -1.023518926701    -1.964507894862    -0.893919665557
    C           -0.177062461003     0.748495981295     0.022775229987
    H           -0.317354155366    -0.076602231019    -1.909722070409
    H           -1.775266447740     0.742290298229    -1.373662979175
    O            0.962929267300    -0.012208831117     0.274788348949
    H            0.108262490572     1.751313876796    -0.297692387724
    H           -0.780821035936     0.837374384241     0.922924287400
    C            1.734359111787     0.439450049220     1.336399815716
    H            2.587583346053    -0.216935317330     1.430440004127
    H            2.091755133218     1.453660653322     1.167792550038
    H            1.175882445009     0.423021670343     2.269426249115

  Mulliken Charges: (a.u.)
   Center  Symbol    Alpha    Beta     Spin     Total
       1     H     0.42860  0.42860  0.00000  0.14281
       2     N     3.68899  3.68899  0.00000 -0.37798
       3     C     3.03897  3.03897  0.00000 -0.07794
       4     H     0.42598  0.42598  0.00000  0.14804
       5     C     2.95398  2.95398  0.00000  0.09204
       6     H     0.45846  0.45846  0.00000  0.08309
       7     H     0.45607  0.45607  0.00000  0.08785
       8     O     4.17684  4.17684  0.00000 -0.35369
       9     H     0.47506  0.47506  0.00000  0.04988
      10     H     0.47416  0.47416  0.00000  0.05169
      11     C     3.03034  3.03034  0.00000 -0.06068
      12     H     0.44852  0.44852  0.00000  0.10296
      13     H     0.47374  0.47374  0.00000  0.05252
      14     H     0.47030  0.47030  0.00000  0.05940

   Total alpha = 21.00000, Total beta = 21.00000, Total charge =  0.00000
