  ==> Input File <==

--------------------------------------------------------------------------
set {
	reference rhf
	basis cc-pvtz
}

set_num_threads( 4 )
memory 2 gb

molecule MOL {
0 1

O	 -0.294688	 1.318815	 -0.000872
C	 -0.448732	 0.145721	 -0.000187
C	 -1.780748	 -0.548101	 0.000195
O	 0.550743	 -0.719877	 0.000412
H	 -1.859389	 -1.183260	 -0.872613
H	 -2.570236	 0.185547	 -0.001342
H	 -1.860233	 -1.180337	 0.875064
C	 1.451930	 -0.669669	 -1.087892
H	 0.936153	 -0.856371	 -2.018024
H	 2.182003	 -1.441223	 -0.905190
H	 1.933475	 0.295481	 -1.139091

	symmetry c1
}
set optking {
	frozen_dihedral = ("
		8 4 2 1
	")
}

ee = optimize('scf')
oeprop('DIPOLE', 'QUADRUPOLE', 'MULLIKEN_CHARGES')
f=open( 'psi4out.xyz', 'w' )
f.write( "11  " )
f.write( str(ee) + "\n" )
f.write( MOL.save_string_xyz() )
f.close()
--------------------------------------------------------------------------

    Molecular point group: c1
  Charge       = 0
  Multiplicity = 1
  Basis Set: CC-PVTZ
  Basis Set:
  @DF-RHF Final Energy:  -266.92437026682308
    Total Energy =                       -266.9243702668231322
    Molecular point group: c1
  Basis Set: CC-PVTZ
  Basis Set:
  Basis Set: CC-PVTZ
  Basis Set:
  @DF-RHF Final Energy:  -266.92200033422523
    Total Energy =                       -266.9220003342254017
  Basis Set: CC-PVTZ
  Basis Set:
  Basis Set: CC-PVTZ
  Basis Set:
  @DF-RHF Final Energy:  -266.92529090490808
    Total Energy =                       -266.9252909049081381
  Basis Set: CC-PVTZ
  Basis Set:
  Basis Set: CC-PVTZ
  Basis Set:
  @DF-RHF Final Energy:  -266.92539040864915
    Total Energy =                       -266.9253904086490365
  Basis Set: CC-PVTZ
  Basis Set:
  Basis Set: CC-PVTZ
  Basis Set:
  @DF-RHF Final Energy:  -266.92539729290502
    Total Energy =                       -266.9253972929050178
  Basis Set: CC-PVTZ
  Basis Set:
  Basis Set: CC-PVTZ
  Basis Set:
  @DF-RHF Final Energy:  -266.92539870360633
    Total Energy =                       -266.9253987036063336
  Basis Set: CC-PVTZ
  Basis Set:
  Charge       = 0
  Multiplicity = 1
  Basis Set: CC-PVTZ
  Basis Set:

    Orbital Energies (a.u.)
    -----------------------

    Doubly Occupied:

       1A    -20.584353     2A    -20.543871     3A    -11.371482
       4A    -11.286015     5A    -11.235546     6A     -1.465779
       7A     -1.370111     8A     -1.031754     9A     -0.957924
      10A     -0.778824    11A     -0.697441    12A     -0.684550
      13A     -0.673250    14A     -0.607009    15A     -0.593747
      16A     -0.572060    17A     -0.537213    18A     -0.508822
      19A     -0.459890    20A     -0.444594

  @DF-RHF Final Energy:  -266.92539892950015

   => Energetics <=

    Nuclear Repulsion Energy =            182.8233167680405415
    One-Electron Energy =                -726.6889642606927282
    Two-Electron Energy =                 276.9402485631521245
    DFT Exchange-Correlation Energy =       0.0000000000000000
    Empirical Dispersion Energy =           0.0000000000000000
    PCM Polarization Energy =               0.0000000000000000
    EFP Energy =                            0.0000000000000000
    Total Energy =                       -266.9253989295000906
    Molecular point group: c1
  Basis Set: CC-PVTZ
  Basis Set:

  -Total Gradient:
     Atom            X                  Y                   Z
    ------   -----------------  -----------------  -----------------
       1       -0.000157680305    -0.000280080001     0.008713023617
       2       -0.001542813508    -0.001659695726    -0.014657037518
       3        0.000004516364    -0.000051272047     0.000005860366
       4        0.005480831930     0.006348007853     0.009554783569
       5       -0.000002989654    -0.000023773577     0.000008364358
       6        0.000012945927    -0.000004830478     0.000011942016
       7       -0.000009347672     0.000002542597     0.000020495039
       8       -0.003786918363    -0.004332736917    -0.003679138430
       9        0.000002657014    -0.000005188299    -0.000001989988
      10       -0.000006706086     0.000002116891     0.000014177193
      11        0.000005504355     0.000004909702     0.000009519779

  **** Optimization is complete! (in 7 steps) ****
    Final optimized geometry and variables:
    Molecular point group: c1

    Geometry (in Angstrom), charge = 0, multiplicity = 1:

    O           -0.200205458228     1.410198413466     0.239852991139
    C           -0.375332099681     0.245865569388     0.200834138199
    C           -1.718798785023    -0.421232096709     0.251322862392
    O            0.634188550149    -0.639145610837     0.211831065263
    H           -1.860431210118    -1.015986397855    -0.643306332631
    H           -2.498719852935     0.318304499597     0.333782477249
    H           -1.748377320670    -1.096623755528     1.096746380386
    C            1.571377290346    -0.561399637623    -0.842122338467
    H            1.100389660377    -0.816991803184    -1.784102747965
    H            2.343104044652    -1.281254038023    -0.623236564626
    H            2.000745567938     0.427932483980    -0.905186495884

  Mulliken Charges: (a.u.)
   Center  Symbol    Alpha    Beta     Spin     Total
       1     O     4.17737  4.17737  0.00000 -0.35473
       2     C     2.79922  2.79922  0.00000  0.40157
       3     C     3.13666  3.13666  0.00000 -0.27332
       4     O     4.16370  4.16370  0.00000 -0.32739
       5     H     0.45009  0.45009  0.00000  0.09982
       6     H     0.43840  0.43840  0.00000  0.12320
       7     H     0.44339  0.44339  0.00000  0.11322
       8     C     3.03109  3.03109  0.00000 -0.06219
       9     H     0.46622  0.46622  0.00000  0.06756
      10     H     0.44562  0.44562  0.00000  0.10875
      11     H     0.44825  0.44825  0.00000  0.10350

   Total alpha = 20.00000, Total beta = 20.00000, Total charge = -0.00000
