  ==> Input File <==

--------------------------------------------------------------------------
set {
	reference rhf
	basis 6-31G*
}

set_num_threads( 1 )
memory 2 gb

molecule MOL {
0 1

H	 3.893188	 0.355400	 -0.101367
N	 3.092854	 -0.246221	 -0.068770
C	 1.865559	 0.531981	 0.018834
H	 3.199514	 -0.826043	 0.741946
C	 0.645745	 -0.382037	 -0.029944
H	 1.841966	 1.207024	 -0.831236
H	 1.815756	 1.155410	 0.915079
C	 -0.679275	 0.379305	 0.025956
H	 0.698998	 -0.976915	 -0.937203
H	 0.693479	 -1.083846	 0.802235
C	 -0.791153	 1.473151	 -1.037697
H	 -0.797011	 0.826634	 1.011798
H	 -1.506298	 -0.319279	 -0.091774
C	 -2.115055	 2.234023	 -0.975523
H	 0.033362	 2.173024	 -0.921214
H	 -0.676491	 1.028719	 -2.024099
H	 -2.243718	 2.718807	 -0.011807
H	 -2.163946	 3.002377	 -1.740928
H	 -2.958889	 1.565841	 -1.123406

	symmetry c1
}
set optking {
	frozen_dihedral = ("
		6 3 5 9,
		12 8 11 15,
		1 2 3 6
	")
}

ee = energy('scf')
oeprop('DIPOLE', 'QUADRUPOLE', 'MULLIKEN_CHARGES')
f=open( 'psi4out.xyz', 'w' )
f.write( "19  " )
f.write( str(ee) + "\n" )
f.write( MOL.save_string_xyz() )
f.close()
--------------------------------------------------------------------------

    Molecular point group: c1

    Geometry (in Angstrom), charge = 0, multiplicity = 1:

       Center              X                  Y                   Z               Mass
    ------------   -----------------  -----------------  -----------------  -----------------
           H          3.522788839832    -0.313921338457     0.234885387288     1.007825032070
           N          2.722454839832    -0.915542338457     0.267482387288    14.003074004780
           C          1.495159839832    -0.137340338457     0.355086387288    12.000000000000
           H          2.829114839832    -1.495364338457     1.078198387288     1.007825032070
           C          0.275345839832    -1.051358338457     0.306308387288    12.000000000000
           H          1.471566839832     0.537702661543    -0.494983612712     1.007825032070
           H          1.445356839832     0.486088661543     1.251331387288     1.007825032070
           C         -1.049674160168    -0.290016338457     0.362208387288    12.000000000000
           H          0.328598839832    -1.646236338457    -0.600950612712     1.007825032070
           H          0.323079839832    -1.753167338457     1.138487387288     1.007825032070
           C         -1.161552160168     0.803829661543    -0.701444612712    12.000000000000
           H         -1.167410160168     0.157312661543     1.348050387288     1.007825032070
           H         -1.876697160168    -0.988600338457     0.244478387288     1.007825032070
           C         -2.485454160168     1.564701661543    -0.639270612712    12.000000000000
           H         -0.337037160168     1.503702661543    -0.584961612712     1.007825032070
           H         -1.046890160168     0.359397661543    -1.687846612712     1.007825032070
           H         -2.614117160168     2.049485661543     0.324445387288     1.007825032070
           H         -2.534345160168     2.333055661543    -1.404675612712     1.007825032070
           H         -3.329288160168     0.896519661543    -0.787153612712     1.007825032070

  Charge       = 0
  Multiplicity = 1
  Basis Set: 6-31G*
  Basis Set:

    Orbital Energies (a.u.)
    -----------------------

    Doubly Occupied:

       1A    -15.532321     2A    -11.238802     3A    -11.213509
       4A    -11.212619     5A    -11.209403     6A    -11.207607
       7A     -1.176542     8A     -1.074309     9A     -0.996047
      10A     -0.898230    11A     -0.832807    12A     -0.772385
      13A     -0.663193    14A     -0.639383    15A     -0.614090
      16A     -0.595383    17A     -0.571348    18A     -0.550524
      19A     -0.522449    20A     -0.503080    21A     -0.488761
      22A     -0.460684    23A     -0.456960    24A     -0.445954
      25A     -0.381153

  @DF-RHF Final Energy:  -251.34837097998391

   => Energetics <=

    Nuclear Repulsion Energy =            250.5999264510580531
    One-Electron Energy =                -835.3815734676271632
    Two-Electron Energy =                 333.4332760365853687
    DFT Exchange-Correlation Energy =       0.0000000000000000
    Empirical Dispersion Energy =           0.0000000000000000
    PCM Polarization Energy =               0.0000000000000000
    EFP Energy =                            0.0000000000000000
    Total Energy =                       -251.3483709799837129

  Mulliken Charges: (a.u.)
   Center  Symbol    Alpha    Beta     Spin     Total
       1     H     0.33262  0.33262  0.00000  0.33476
       2     N     3.92197  3.92197  0.00000 -0.84394
       3     C     3.06374  3.06374  0.00000 -0.12749
       4     H     0.33558  0.33558  0.00000  0.32884
       5     C     3.15227  3.15227  0.00000 -0.30455
       6     H     0.41761  0.41761  0.00000  0.16478
       7     H     0.43524  0.43524  0.00000  0.12951
       8     C     3.15521  3.15521  0.00000 -0.31043
       9     H     0.41345  0.41345  0.00000  0.17310
      10     H     0.42554  0.42554  0.00000  0.14892
      11     C     3.15674  3.15674  0.00000 -0.31347
      12     H     0.42497  0.42497  0.00000  0.15006
      13     H     0.42049  0.42049  0.00000  0.15903
      14     C     3.23820  3.23820  0.00000 -0.47641
      15     H     0.42116  0.42116  0.00000  0.15767
      16     H     0.42145  0.42145  0.00000  0.15711
      17     H     0.42230  0.42230  0.00000  0.15541
      18     H     0.41959  0.41959  0.00000  0.16081
      19     H     0.42186  0.42186  0.00000  0.15628

   Total alpha = 25.00000, Total beta = 25.00000, Total charge =  0.00000
