  ==> Input File <==

--------------------------------------------------------------------------
set {
	reference rhf
	basis 6-31G*
}

set_num_threads( 4 )
memory 2 gb

molecule MOL {
0 1

H	 -3.107938	 0.256780	 -0.055480
O	 -2.347518	 -0.290803	 0.079804
C	 -1.184022	 0.487508	 -0.006784
C	 0.062599	 -0.378592	 0.031606
H	 -1.176523	 1.099369	 -0.904519
H	 -1.187323	 1.153111	 0.844927
O	 1.171513	 0.459272	 -0.058250
H	 0.050699	 -1.089204	 -0.797170
H	 0.078739	 -0.954914	 0.954740
C	 2.397842	 -0.198080	 -0.002151
H	 2.508049	 -0.905315	 -0.822092
H	 3.173794	 0.550865	 -0.078850
H	 2.517602	 -0.735921	 0.936026

	symmetry c1
}
set optking {
	frozen_dihedral = ("
		1 2 3 5
	")
}

ee = optimize('scf')
oeprop('DIPOLE', 'QUADRUPOLE', 'MULLIKEN_CHARGES')
f=open( 'psi4out.xyz', 'w' )
f.write( "13  " )
f.write( str(ee) + "\n" )
f.write( MOL.save_string_xyz() )
f.close()
--------------------------------------------------------------------------

    Molecular point group: c1
  Charge       = 0
  Multiplicity = 1
  Basis Set: 6-31G*
  Basis Set:
  @DF-RHF Final Energy:  -267.94939545970817
    Total Energy =                       -267.9493954597081711
    Molecular point group: c1
  Basis Set: 6-31G*
  Basis Set:
  Basis Set: 6-31G*
  Basis Set:
  @DF-RHF Final Energy:  -267.95065249078243
    Total Energy =                       -267.9506524907824314
  Basis Set: 6-31G*
  Basis Set:
  Basis Set: 6-31G*
  Basis Set:
  @DF-RHF Final Energy:  -267.95098295601497
    Total Energy =                       -267.9509829560148546
  Basis Set: 6-31G*
  Basis Set:
  Basis Set: 6-31G*
  Basis Set:
  @DF-RHF Final Energy:  -267.95099212751296
    Total Energy =                       -267.9509921275131319
  Basis Set: 6-31G*
  Basis Set:
  Charge       = 0
  Multiplicity = 1
  Basis Set: 6-31G*
  Basis Set:

    Orbital Energies (a.u.)
    -----------------------

    Doubly Occupied:

       1A    -20.558735     2A    -20.558724     3A    -11.268738
       4A    -11.267119     5A    -11.266454     6A     -1.385218
       7A     -1.363828     8A     -1.018106     9A     -0.910969
      10A     -0.831021    11A     -0.708705    12A     -0.683682
      13A     -0.641742    14A     -0.632657    15A     -0.619486
      16A     -0.551509    17A     -0.538171    18A     -0.495744
      19A     -0.469872    20A     -0.441031    21A     -0.418212

  @DF-RHF Final Energy:  -267.95099321154578

   => Energetics <=

    Nuclear Repulsion Energy =            190.4722061253079914
    One-Electron Energy =                -743.5869519156316301
    Two-Electron Energy =                 285.1637525787780305
    DFT Exchange-Correlation Energy =       0.0000000000000000
    Empirical Dispersion Energy =           0.0000000000000000
    PCM Polarization Energy =               0.0000000000000000
    EFP Energy =                            0.0000000000000000
    Total Energy =                       -267.9509932115456650
    Molecular point group: c1
  Basis Set: 6-31G*
  Basis Set:

  -Total Gradient:
     Atom            X                  Y                   Z
    ------   -----------------  -----------------  -----------------
       1        0.000055064533    -0.000166720809    -0.000708220928
       2       -0.000150030078     0.000367421902     0.000942755440
       3        0.000411208856    -0.000687830423    -0.000500012282
       4       -0.000020711849    -0.000008623440    -0.000001039426
       5       -0.000312343483     0.000457118897     0.000295826630
       6        0.000005841349    -0.000012466353    -0.000008890904
       7        0.000034133274     0.000018311066    -0.000011546270
       8       -0.000006912510    -0.000003881915    -0.000008669232
       9       -0.000021733846     0.000023385719    -0.000004890290
      10        0.000007842713     0.000018008637     0.000008850699
      11       -0.000009902772     0.000002913487     0.000001417558
      12        0.000010056688    -0.000003964665    -0.000002315820
      13       -0.000002512874    -0.000003672104    -0.000003265176

  **** Optimization is complete! (in 5 steps) ****
    Final optimized geometry and variables:
    Molecular point group: c1

    Geometry (in Angstrom), charge = 0, multiplicity = 1:

    H           -3.084739082171     0.154759669060    -0.098338659216
    O           -2.296340049845    -0.338056843117     0.076383625822
    C           -1.178526268543     0.504888308165    -0.017804279126
    C            0.052398877166    -0.374861662233     0.018462746874
    H           -1.187343697524     1.077527200370    -0.941120649731
    H           -1.142592496058     1.207921143814     0.809949597592
    O            1.171107633762     0.454733825813    -0.050265367710
    H            0.030008611874    -1.070548618696    -0.818013408489
    H            0.055539535215    -0.959252677351     0.936479409116
    C            2.387961874297    -0.221294172988    -0.022235197879
    H            2.482871369850    -0.904099554608    -0.864273399892
    H            3.174416492145     0.518543838748    -0.080392679581
    H            2.505647255631    -0.789892578082     0.898104509621

  Mulliken Charges: (a.u.)
   Center  Symbol    Alpha    Beta     Spin     Total
       1     H     0.27806  0.27806  0.00000  0.44389
       2     O     4.37427  4.37427  0.00000 -0.74853
       3     C     3.00313  3.00313  0.00000 -0.00627
       4     C     2.99186  2.99186  0.00000  0.01627
       5     H     0.42424  0.42424  0.00000  0.15153
       6     H     0.42287  0.42287  0.00000  0.15426
       7     O     4.30957  4.30957  0.00000 -0.61915
       8     H     0.42442  0.42442  0.00000  0.15116
       9     H     0.42338  0.42338  0.00000  0.15323
      10     C     3.07960  3.07960  0.00000 -0.15921
      11     H     0.42856  0.42856  0.00000  0.14287
      12     H     0.41170  0.41170  0.00000  0.17659
      13     H     0.42832  0.42832  0.00000  0.14335

   Total alpha = 21.00000, Total beta = 21.00000, Total charge = -0.00000
