  ==> Input File <==

--------------------------------------------------------------------------
set {
	reference rhf
	basis cc-pvtz
}

set_num_threads( 4 )
memory 2 gb

molecule MOL {
0 1

H	 -3.162190	 0.493205	 -0.000107
C	 -2.363908	 -0.234727	 0.000005
O	 -1.158738	 0.454634	 -0.000087
H	 -2.464314	 -0.863616	 -0.882153
H	 -2.464327	 -0.863359	 0.882345
C	 -1.068380	 1.457944	 -0.962127
C	 0.286187	 2.129226	 -0.857606
H	 -1.862819	 2.189909	 -0.814711
H	 -1.201966	 1.034332	 -1.957792
C	 0.464093	 3.244264	 -1.882003
H	 0.400144	 2.522706	 0.146442
H	 1.055729	 1.376327	 -0.987604
H	 -0.282070	 4.021419	 -1.754103
H	 1.438976	 3.706007	 -1.784964
H	 0.378197	 2.867336	 -2.895717

	symmetry c1
}
set optking {
	frozen_dihedral = ("
		6 3 2 4
	")
}

ee = optimize('scf')
oeprop('DIPOLE', 'QUADRUPOLE', 'MULLIKEN_CHARGES')
f=open( 'psi4out.xyz', 'w' )
f.write( "15  " )
f.write( str(ee) + "\n" )
f.write( MOL.save_string_xyz() )
f.close()
--------------------------------------------------------------------------

    Molecular point group: c1
  Charge       = 0
  Multiplicity = 1
  Basis Set: CC-PVTZ
  Basis Set:
  @DF-RHF Final Energy:  -232.22691064395295
    Total Energy =                       -232.2269106439528628
    Molecular point group: c1
  Basis Set: CC-PVTZ
  Basis Set:
  Basis Set: CC-PVTZ
  Basis Set:
  @DF-RHF Final Energy:  -232.22780163384863
    Total Energy =                       -232.2278016338485713
  Basis Set: CC-PVTZ
  Basis Set:
  Basis Set: CC-PVTZ
  Basis Set:
  @DF-RHF Final Energy:  -232.22801507111632
    Total Energy =                       -232.2280150711162037
  Basis Set: CC-PVTZ
  Basis Set:
  Charge       = 0
  Multiplicity = 1
  Basis Set: CC-PVTZ
  Basis Set:

    Orbital Energies (a.u.)
    -----------------------

    Doubly Occupied:

       1A    -20.547397     2A    -11.264420     3A    -11.261713
       4A    -11.212744     5A    -11.210714     6A     -1.381672
       7A     -1.058467     8A     -0.956197     9A     -0.877286
      10A     -0.809524    11A     -0.677091    12A     -0.655755
      13A     -0.632211    14A     -0.608678    15A     -0.565017
      16A     -0.541400    17A     -0.503700    18A     -0.490052
      19A     -0.478479    20A     -0.462874    21A     -0.416588

  @DF-RHF Final Energy:  -232.22801612257976

   => Energetics <=

    Nuclear Repulsion Energy =            189.9914626411206484
    One-Electron Energy =                -691.2149978615804002
    Two-Electron Energy =                 268.9955190978798782
    DFT Exchange-Correlation Energy =       0.0000000000000000
    Empirical Dispersion Energy =           0.0000000000000000
    PCM Polarization Energy =               0.0000000000000000
    EFP Energy =                            0.0000000000000000
    Total Energy =                       -232.2280161225799020
    Molecular point group: c1
  Basis Set: CC-PVTZ
  Basis Set:

  -Total Gradient:
     Atom            X                  Y                   Z
    ------   -----------------  -----------------  -----------------
       1        0.000010408380     0.000022480807    -0.000002492535
       2       -0.000930459007     0.001628333567    -0.000574795322
       3        0.000731651753    -0.001267641742    -0.000744019800
       4        0.000637922047    -0.000948862456     0.000646471884
       5        0.000048677056     0.000008852769     0.000009752349
       6       -0.000465558223     0.000631668604     0.000536127405
       7        0.000015539323    -0.000042770451     0.000068393474
       8       -0.000001034675    -0.000019288776     0.000042167048
       9       -0.000006752579     0.000012109183    -0.000019948680
      10       -0.000057192137    -0.000021880005     0.000005941256
      11        0.000024953380     0.000017046376     0.000012479675
      12        0.000001332750    -0.000006087209     0.000003110405
      13       -0.000002178637     0.000009882563    -0.000004968851
      14       -0.000007281319    -0.000020492207     0.000021020078
      15       -0.000000028113    -0.000003351025     0.000000761611

  **** Optimization is complete! (in 4 steps) ****
    Final optimized geometry and variables:
    Molecular point group: c1

    Geometry (in Angstrom), charge = 0, multiplicity = 1:

    H           -2.427672699846    -0.944988604511     0.763682690821
    C           -1.576055133676    -1.620704165380     0.732052020981
    O           -0.372067706902    -0.929178266915     0.738691898601
    H           -1.666033175196    -2.255075750219    -0.147311378019
    H           -1.600863463876    -2.249958890534     1.610385872334
    C           -0.272127641758     0.068594782858    -0.228089231950
    C            1.085320243135     0.733490968270    -0.119845099386
    H           -1.063694999741     0.804568560428    -0.086636611832
    H           -0.402962178703    -0.357500364997    -1.223333431934
    C            1.271260697321     1.846913564583    -1.144607077958
    H            1.197894306090     1.127381197522     0.884306109313
    H            1.852065429605    -0.022839572222    -0.246785714633
    H            0.528182297897     2.627554670931    -1.019564072260
    H            2.247974343565     2.304378881800    -1.045004552921
    H            1.186684797593     1.469479064521    -2.158298534760

  Mulliken Charges: (a.u.)
   Center  Symbol    Alpha    Beta     Spin     Total
       1     H     0.47346  0.47346  0.00000  0.05308
       2     C     3.03335  3.03335  0.00000 -0.06670
       3     O     4.17174  4.17174  0.00000 -0.34349
       4     H     0.47010  0.47010  0.00000  0.05981
       5     H     0.44743  0.44743  0.00000  0.10514
       6     C     2.95609  2.95609  0.00000  0.08781
       7     C     3.08024  3.08024  0.00000 -0.16048
       8     H     0.47498  0.47498  0.00000  0.05005
       9     H     0.47661  0.47661  0.00000  0.04678
      10     C     3.15582  3.15582  0.00000 -0.31164
      11     H     0.45115  0.45115  0.00000  0.09769
      12     H     0.45106  0.45106  0.00000  0.09788
      13     H     0.45587  0.45587  0.00000  0.08826
      14     H     0.44627  0.44627  0.00000  0.10745
      15     H     0.45582  0.45582  0.00000  0.08835

   Total alpha = 21.00000, Total beta = 21.00000, Total charge =  0.00000
