                              Psi4 1.0.54 Driver

  ==> Input File <==

--------------------------------------------------------------------------
set {
	reference rhf
	basis cc-pvtz
}

set_num_threads( 4 )
memory 2 gb

molecule MOL {
0 1

H	 2.564408	 -0.858436	 -1.106955
N	 1.587193	 -0.664418	 -1.124707
C	 1.288516	 0.530792	 -0.361746
C	 0.830130	 -1.804112	 -0.647429
H	 1.853297	 1.360892	 -0.768326
H	 1.555283	 0.427236	 0.691691
C	 -0.195954	 0.832478	 -0.458742
H	 1.062753	 -2.665937	 -1.261022
H	 1.067936	 -2.055188	 0.387959
C	 -0.653740	 -1.499367	 -0.744050
H	 -0.439213	 1.091439	 -1.493321
H	 -0.431411	 1.691320	 0.158566
N	 -0.976577	 -0.298712	 -0.000000
H	 -1.220205	 -2.326594	 -0.333038
H	 -0.928537	 -1.401050	 -1.798285
C	 -2.391156	 -0.021003	 -0.000000
H	 -2.853954	 -0.458728	 -0.875714
H	 -2.853954	 -0.458728	 0.875714
H	 -2.614037	 1.049773	 -0.000000

	symmetry c1
}
set optking {
	frozen_dihedral = ("
		7 13 16 19
	")
}

ee,wfn = optimize('scf', return_wfn=True)
oeprop( wfn, 'DIPOLE', 'QUADRUPOLE', 'MULLIKEN_CHARGES')
f=open( 'psi4out.xyz', 'w' )
f.write( "19  " )
f.write( str(ee) + "\n" )
f.write( MOL.save_string_xyz() )
f.close()
--------------------------------------------------------------------------

    Molecular point group: c1
  Charge       = 0
  Multiplicity = 1
  Basis Set: CC-PVTZ
  Basis Set:
  @DF-RHF Final Energy:  -305.30414521480037
    Total Energy =                       -305.3041452148007124
    Molecular point group: c1
  Basis Set: CC-PVTZ
  Basis Set:
  Basis Set: CC-PVTZ
  Basis Set:
  @DF-RHF Final Energy:  -305.30509838857881
    Total Energy =                       -305.3050983885785854
  Basis Set: CC-PVTZ
  Basis Set:
  Basis Set: CC-PVTZ
  Basis Set:
  @DF-RHF Final Energy:  -305.30523661213527
    Total Energy =                       -305.3052366121352179
  Basis Set: CC-PVTZ
  Basis Set:
  Basis Set: CC-PVTZ
  Basis Set:
  @DF-RHF Final Energy:  -305.30524696112985
    Total Energy =                       -305.3052469611296829
  Basis Set: CC-PVTZ
  Basis Set:
  Charge       = 0
  Multiplicity = 1
  Basis Set: CC-PVTZ
  Basis Set:

    Orbital Energies (a.u.)
    -----------------------

    Doubly Occupied:

       1A    -15.533014     2A    -15.530945     3A    -11.236806
       4A    -11.236788     5A    -11.235981     6A    -11.235731
       7A    -11.233168     8A     -1.247248     9A     -1.185984
      10A     -1.024129    11A     -0.965440    12A     -0.862051
      13A     -0.858612    14A     -0.756161    15A     -0.692211
      16A     -0.633724    17A     -0.625940    18A     -0.606644
      19A     -0.605841    20A     -0.582468    21A     -0.544538
      22A     -0.532959    23A     -0.511905    24A     -0.488949
      25A     -0.468775    26A     -0.458279    27A     -0.365824
      28A     -0.340501

  @DF-RHF Final Energy:  -305.30524791302832

   => Energetics <=

    Nuclear Repulsion Energy =            339.8929606467670510
    One-Electron Energy =               -1087.1951836130508582
    Two-Electron Energy =                 441.9969750532555395
    DFT Exchange-Correlation Energy =       0.0000000000000000
    Empirical Dispersion Energy =           0.0000000000000000
    PCM Polarization Energy =               0.0000000000000000
    EFP Energy =                            0.0000000000000000
    Total Energy =                       -305.3052479130282677
    Molecular point group: c1
  Basis Set: CC-PVTZ
  Basis Set:

  -Total Gradient:
     Atom            X                  Y                   Z
    ------   -----------------  -----------------  -----------------
       1        0.000001533848     0.000004057118     0.000000835907
       2       -0.000016476566     0.000009216214    -0.000000878551
       3        0.000015464702    -0.000002974167     0.000025280419
       4       -0.000005972169    -0.000030118256    -0.000036868420
       5        0.000006038738    -0.000001628784    -0.000001051679
       6        0.000002596907     0.000004956505     0.000007324122
       7        0.000353531671     0.001059629170     0.003183461178
       8        0.000024141558    -0.000009655529    -0.000002998980
       9       -0.000015400208     0.000008108582    -0.000012514246
      10        0.000007022599    -0.000016353052     0.000034064779
      11       -0.000016310543    -0.000010071927     0.000008506351
      12        0.000003620304    -0.000006430435     0.000001082149
      13       -0.000496982774    -0.001432564952    -0.005690457307
      14       -0.000005697591    -0.000001198246    -0.000003674038
      15        0.000011334568     0.000004342681     0.000016737470
      16        0.000315734726     0.000279149520     0.006961105317
      17       -0.000016629910     0.000000652032    -0.000007857426
      18        0.000029261306    -0.000005979766    -0.000048468922
      19       -0.000196811165     0.000146863293    -0.004433628124

  **** Optimization is complete! (in 5 steps) ****
    Final optimized geometry and variables:
    Molecular point group: c1

    Geometry (in Angstrom), charge = 0, multiplicity = 1:

    H            2.639854861839    -0.485313637327    -0.626697563646
    N            1.664948031491    -0.279719861182    -0.644432158030
    C            1.384119843388     0.931027233481     0.100505901965
    C            0.896022073712    -1.402157289751    -0.146008516087
    H            1.968544579819     1.744653813109    -0.311844937963
    H            1.641140567450     0.834574621284     1.157276336881
    C           -0.093687729519     1.262365390562    -0.009491685378
    H            1.121729036117    -2.279013388086    -0.740800875206
    H            1.129387634188    -1.633427698214     0.895123717463
    C           -0.584245029758    -1.083558235420    -0.253233005153
    H           -0.317854096631     1.533346418276    -1.045944552446
    H           -0.314460367565     2.122300825536     0.610542430989
    N           -0.894046128429     0.144917290534     0.441950757783
    H           -1.160261076475    -1.888938343284     0.188325605512
    H           -0.859780477193    -1.023389104256    -1.310418546095
    C           -2.313030816139     0.415362756916     0.512511433942
    H           -2.843663865064     0.054449504416    -0.370447861532
    H           -2.759130610362    -0.052821447236     1.382282992171
    H           -2.493055539569     1.481558085298     0.553574621476

  Mulliken Charges: (a.u.)
   Center  Symbol    Alpha    Beta     Spin     Total
       1     H     0.43992  0.43992  0.00000  0.12017
       2     N     3.64278  3.64278  0.00000 -0.28555
       3     C     3.04187  3.04187  0.00000 -0.08373
       4     C     3.04144  3.04144  0.00000 -0.08289
       5     H     0.45267  0.45267  0.00000  0.09467
       6     H     0.46616  0.46616  0.00000  0.06769
       7     C     3.03236  3.03236  0.00000 -0.06472
       8     H     0.45264  0.45264  0.00000  0.09472
       9     H     0.46604  0.46604  0.00000  0.06793
      10     C     3.03361  3.03361  0.00000 -0.06721
      11     H     0.47012  0.47012  0.00000  0.05976
      12     H     0.45425  0.45425  0.00000  0.09150
      13     N     3.61531  3.61531  0.00000 -0.23062
      14     H     0.45430  0.45430  0.00000  0.09140
      15     H     0.46887  0.46887  0.00000  0.06226
      16     C     3.09389  3.09389  0.00000 -0.18777
      17     H     0.46735  0.46735  0.00000  0.06529
      18     H     0.45022  0.45022  0.00000  0.09955
      19     H     0.45622  0.45622  0.00000  0.08757

   Total alpha = 28.00000, Total beta = 28.00000, Total charge =  0.00000

*** Psi4 exiting successfully. Buy a developer a beer!
