  ==> Input File <==

--------------------------------------------------------------------------
set {
	reference rhf
	basis cc-pvtz
}

set_num_threads( 4 )
memory 2 gb

molecule MOL {
0 1

H	 1.651322	 -0.822465	 0.000000
O	 0.729993	 -1.034364	 0.000000
C	 0.037305	 0.100061	 0.000000
C	 -0.848800	 0.217628	 1.203774
O	 0.133403	 0.900307	 -0.864388
H	 -1.538209	 -0.616405	 1.227736
H	 -1.390196	 1.148241	 1.164092
H	 -0.246218	 0.172494	 2.101731

	symmetry c1
}
set optking {
	frozen_dihedral = ("
		4 3 2 1
	")
}

ee = optimize('scf')
oeprop('DIPOLE', 'QUADRUPOLE', 'MULLIKEN_CHARGES')
f=open( 'psi4out.xyz', 'w' )
f.write( "8  " )
f.write( str(ee) + "\n" )
f.write( MOL.save_string_xyz() )
f.close()
--------------------------------------------------------------------------

    Molecular point group: c1
  Charge       = 0
  Multiplicity = 1
  Basis Set: CC-PVTZ
  Basis Set:
  @DF-RHF Final Energy:  -227.88920641270596
    Total Energy =                       -227.8892064127060166
    Molecular point group: c1
  Basis Set: CC-PVTZ
  Basis Set:
  Basis Set: CC-PVTZ
  Basis Set:
  @DF-RHF Final Energy:  -227.88831009817173
    Total Energy =                       -227.8883100981716723
  Basis Set: CC-PVTZ
  Basis Set:
  Basis Set: CC-PVTZ
  Basis Set:
  @DF-RHF Final Energy:  -227.88997375974381
    Total Energy =                       -227.8899737597438673
  Basis Set: CC-PVTZ
  Basis Set:
  Basis Set: CC-PVTZ
  Basis Set:
  @DF-RHF Final Energy:  -227.89025912389175
    Total Energy =                       -227.8902591238918376
  Basis Set: CC-PVTZ
  Basis Set:
  @DF-RHF Final Energy:  -227.89029816837518
    Total Energy =                       -227.8902981683752103
  @DF-RHF Final Energy:  -227.86517737617413
    Total Energy =                       -227.8651773761742447
  Basis Set: CC-PVTZ
  Basis Set:
  @DF-RHF Final Energy:  -227.88949142957682
    Total Energy =                       -227.8894914295769922
  Basis Set: CC-PVTZ
  Basis Set:
  Basis Set: CC-PVTZ
  Basis Set:
  @DF-RHF Final Energy:  -227.89031404131157
    Total Energy =                       -227.8903140413115693
  Basis Set: CC-PVTZ
  Basis Set:
  Basis Set: CC-PVTZ
  Basis Set:
  @DF-RHF Final Energy:  -227.89031997362633
    Total Energy =                       -227.8903199736262764
  Basis Set: CC-PVTZ
  Basis Set:
  Charge       = 0
  Multiplicity = 1
  Basis Set: CC-PVTZ
  Basis Set:

    Orbital Energies (a.u.)
    -----------------------

    Doubly Occupied:

       1A    -20.593090     2A    -20.549773     3A    -11.379377
       4A    -11.240275     5A     -1.469583     6A     -1.372662
       7A     -1.025592     8A     -0.830246     9A     -0.709063
      10A     -0.679231    11A     -0.661940    12A     -0.585898
      13A     -0.581441    14A     -0.531587    15A     -0.495207
      16A     -0.453334

  @DF-RHF Final Energy:  -227.89032027636716

   => Energetics <=

    Nuclear Repulsion Energy =            122.2758959714978317
    One-Electron Energy =                -554.0158355388048221
    Two-Electron Energy =                 203.8496192909398985
    DFT Exchange-Correlation Energy =       0.0000000000000000
    Empirical Dispersion Energy =           0.0000000000000000
    PCM Polarization Energy =               0.0000000000000000
    EFP Energy =                            0.0000000000000000
    Total Energy =                       -227.8903202763670777
    Molecular point group: c1
  Basis Set: CC-PVTZ
  Basis Set:

  -Total Gradient:
     Atom            X                  Y                   Z
    ------   -----------------  -----------------  -----------------
       1       -0.000103725763    -0.000463744945     0.010688930623
       2        0.002233246387     0.001574341993    -0.011848454435
       3       -0.006838908893    -0.003736968361    -0.002217499676
       4        0.004960706707     0.002754622508     0.003478549964
       5       -0.000242714292    -0.000116774376    -0.000100701398
       6       -0.000009664427     0.000001026896    -0.000019907142
       7        0.000000743023     0.000008380686     0.000025327923
       8        0.000000317261    -0.000020884401    -0.000006245861

  **** Optimization is complete! (in 10 steps) ****
    Final optimized geometry and variables:
    Molecular point group: c1

    Geometry (in Angstrom), charge = 0, multiplicity = 1:

    H            1.586257382250    -0.944827877450    -0.118869505132
    O            0.655347110837    -1.096581137313    -0.135252609877
    C           -0.016695276156     0.075180527711    -0.091461058984
    C           -0.916663301087     0.179297865146     1.104056489184
    O            0.156198469131     0.928025384583    -0.882585084682
    H           -1.532635955892    -0.705505407146     1.194549865054
    H           -1.529213050758     1.063494461345     1.034101831827
    H           -0.290884974112     0.231910309531     1.987240334228

  Mulliken Charges: (a.u.)
   Center  Symbol    Alpha    Beta     Spin     Total
       1     H     0.38015  0.38015  0.00000  0.23970
       2     O     4.17655  4.17655  0.00000 -0.35310
       3     C     2.80453  2.80453  0.00000  0.39094
       4     C     3.13552  3.13552  0.00000 -0.27105
       5     O     4.17099  4.17099  0.00000 -0.34198
       6     H     0.44362  0.44362  0.00000  0.11276
       7     H     0.43881  0.43881  0.00000  0.12238
       8     H     0.44983  0.44983  0.00000  0.10035

   Total alpha = 16.00000, Total beta = 16.00000, Total charge = -0.00000
