  ==> Input File <==

--------------------------------------------------------------------------
set {
	reference rhf
	basis cc-pvtz
}

set_num_threads( 4 )
memory 2 gb

molecule MOL {
0 1

H	 -2.644180	 -0.653737	 1.272255
C	 -2.092774	 -0.380414	 0.391915
O	 -0.808934	 -0.154049	 0.752536
F	 -2.163230	 -1.351640	 -0.507133
F	 -2.627232	 0.691260	 -0.169301
C	 0.085006	 0.250800	 -0.215074
C	 1.370439	 -0.548013	 -0.012993
Cl	 0.421658	 1.987697	 -0.091007
H	 -0.272219	 0.063284	 -1.212508
F	 1.506833	 -0.886270	 1.243989
F	 2.395349	 0.201481	 -0.343345
F	 1.401495	 -1.628735	 -0.743285

	symmetry c1
}
set optking {
	frozen_dihedral = ("
		10 7 6 9
	")
}

ee = optimize('scf')
oeprop('DIPOLE', 'QUADRUPOLE', 'MULLIKEN_CHARGES')
f=open( 'psi4out.xyz', 'w' )
f.write( "12  " )
f.write( str(ee) + "\n" )
f.write( MOL.save_string_xyz() )
f.close()
--------------------------------------------------------------------------

    Molecular point group: c1
  Charge       = 0
  Multiplicity = 1
  Basis Set: CC-PVTZ
  Basis Set:
  @DF-RHF Final Energy: -1146.61238687246305
    Total Energy =                      -1146.6123868724625936
    Molecular point group: c1
  Basis Set: CC-PVTZ
  Basis Set:
  Basis Set: CC-PVTZ
  Basis Set:
  @DF-RHF Final Energy: -1146.61415204466812
    Total Energy =                      -1146.6141520446683444
  Basis Set: CC-PVTZ
  Basis Set:
  Basis Set: CC-PVTZ
  Basis Set:
  @DF-RHF Final Energy: -1146.61571083917988
    Total Energy =                      -1146.6157108391807924
  Basis Set: CC-PVTZ
  Basis Set:
  Basis Set: CC-PVTZ
  Basis Set:
  @DF-RHF Final Energy: -1146.61587162960041
    Total Energy =                      -1146.6158716296004059
  Basis Set: CC-PVTZ
  Basis Set:
  Basis Set: CC-PVTZ
  Basis Set:
  @DF-RHF Final Energy: -1146.61588542170921
    Total Energy =                      -1146.6158854217092085
  Basis Set: CC-PVTZ
  Basis Set:
  Basis Set: CC-PVTZ
  Basis Set:
  @DF-RHF Final Energy: -1146.61588816679591
    Total Energy =                      -1146.6158881667961396
  Basis Set: CC-PVTZ
  Basis Set:
  Basis Set: CC-PVTZ
  Basis Set:
  @DF-RHF Final Energy: -1146.61588926718878
    Total Energy =                      -1146.6158892671890044
  Basis Set: CC-PVTZ
  Basis Set:
  Charge       = 0
  Multiplicity = 1
  Basis Set: CC-PVTZ
  Basis Set:

    Orbital Energies (a.u.)
    -----------------------

    Doubly Occupied:

       1A   -104.857333     2A    -26.356552     3A    -26.352831
       4A    -26.351396     5A    -26.342635     6A    -26.342408
       7A    -20.639515     8A    -11.521432     9A    -11.482877
      10A    -11.401570    11A    -10.582903    12A     -8.049704
      13A     -8.047705    14A     -8.047643    15A     -1.768255
      16A     -1.723913    17A     -1.664891    18A     -1.658489
      19A     -1.644049    20A     -1.485463    21A     -1.177469
      22A     -1.052571    23A     -0.989817    24A     -0.924128
      25A     -0.863149    26A     -0.858032    27A     -0.852326
      28A     -0.829343    29A     -0.817477    30A     -0.794822
      31A     -0.732822    32A     -0.730062    33A     -0.711386
      34A     -0.708353    35A     -0.684839    36A     -0.680453
      37A     -0.664926    38A     -0.663399    39A     -0.650320
      40A     -0.636641    41A     -0.598287    42A     -0.581191
      43A     -0.525230    44A     -0.477949    45A     -0.470587

  @DF-RHF Final Energy: -1146.61588984612013

   => Energetics <=

    Nuclear Repulsion Energy =            737.2121882671176536
    One-Electron Energy =               -3057.6618747254451591
    Two-Electron Energy =                1173.8337966122073794
    DFT Exchange-Correlation Energy =       0.0000000000000000
    Empirical Dispersion Energy =           0.0000000000000000
    PCM Polarization Energy =               0.0000000000000000
    EFP Energy =                            0.0000000000000000
    Total Energy =                      -1146.6158898461201261
    Molecular point group: c1
  Basis Set: CC-PVTZ
  Basis Set:

  -Total Gradient:
     Atom            X                  Y                   Z
    ------   -----------------  -----------------  -----------------
       1       -0.000003470934    -0.000011386144    -0.000007403947
       2        0.000125728456    -0.000017336185    -0.000006151118
       3       -0.000089410111     0.000017793050     0.000079856836
       4       -0.000026815710    -0.000047810067    -0.000006388182
       5       -0.000026841918     0.000052805357    -0.000001351025
       6        0.003686193948     0.005011767532    -0.003521530510
       7        0.003311018322     0.005810480046     0.001785834639
       8       -0.000004380441     0.000047879750    -0.000038037285
       9       -0.003859881936    -0.005530337148     0.002679413259
      10       -0.003106789446    -0.005231762197    -0.001017093000
      11        0.000064770005     0.000058388370     0.000098845953
      12       -0.000070120214    -0.000160482364    -0.000045995627

  **** Optimization is complete! (in 8 steps) ****
    Final optimized geometry and variables:
    Molecular point group: c1

    Geometry (in Angstrom), charge = 0, multiplicity = 1:

    H           -2.641756741965    -0.704371419872     1.229490592131
    C           -2.083672881697    -0.404017985093     0.362137230511
    O           -0.806750607921    -0.175034517349     0.741864159404
    F           -2.135261025556    -1.355187621206    -0.560583389613
    F           -2.625447542024     0.674321359940    -0.179554016626
    C            0.094256009002     0.270063341670    -0.208306628879
    C            1.391706503883    -0.533160103313    -0.002681677863
    CL           0.364506343356     2.011029149597    -0.056322744043
    H           -0.272326872073     0.051220817268    -1.195145875260
    F            1.577586551961    -0.853037544345     1.247889194341
    F            2.445674829994     0.093353160506    -0.444987441394
    F            1.277858355288    -1.657608749091    -0.680969601223

  Mulliken Charges: (a.u.)
   Center  Symbol    Alpha    Beta     Spin     Total
       1     H     0.45208  0.45208  0.00000  0.09584
       2     C     2.74014  2.74014  0.00000  0.51972
       3     O     4.15393  4.15393  0.00000 -0.30786
       4     F     4.61855  4.61855  0.00000 -0.23710
       5     F     4.61519  4.61519  0.00000 -0.23039
       6     C     2.94792  2.94792  0.00000  0.10416
       7     C     2.66816  2.66816  0.00000  0.66368
       8    CL     8.57017  8.57017  0.00000 -0.14034
       9     H     0.43090  0.43090  0.00000  0.13820
      10     F     4.59799  4.59799  0.00000 -0.19597
      11     F     4.59661  4.59661  0.00000 -0.19322
      12     F     4.60836  4.60836  0.00000 -0.21672

   Total alpha = 45.00000, Total beta = 45.00000, Total charge =  0.00000
