  ==> Input File <==

--------------------------------------------------------------------------
set {
	reference rhf
	basis 6-31G*
}

set_num_threads( 4 )
memory 2 gb

molecule MOL {
0 1

O	 0.749854	 1.307668	 -0.000040
C	 0.576249	 0.131685	 -0.000108
C	 -0.766779	 -0.556801	 -0.000461
O	 1.568443	 -0.749345	 -0.000005
C	 -1.945214	 0.412366	 0.000161
H	 -0.796911	 -1.211249	 -0.867467
H	 -0.796854	 -1.212390	 0.865687
C	 -3.286274	 -0.315263	 0.081895
H	 -1.908484	 1.021207	 -0.896815
H	 -1.844586	 1.097692	 0.834892
H	 -3.424802	 -0.985814	 -0.761683
H	 -4.110304	 0.390693	 0.080542
H	 -3.360654	 -0.907553	 0.989713
C	 2.886820	 -0.232538	 0.000322
H	 3.059106	 0.369571	 -0.880203
H	 3.540187	 -1.091012	 0.000050
H	 3.059019	 0.368956	 0.881266

	symmetry c1
}
set optking {
	frozen_dihedral = ("
		9 5 3 6
	")
}

ee = optimize('scf')
oeprop('DIPOLE', 'QUADRUPOLE', 'MULLIKEN_CHARGES')
f=open( 'psi4out.xyz', 'w' )
f.write( "17  " )
f.write( str(ee) + "\n" )
f.write( MOL.save_string_xyz() )
f.close()
--------------------------------------------------------------------------

    Molecular point group: c1
  Charge       = 0
  Multiplicity = 1
  Basis Set: 6-31G*
  Basis Set:
  @DF-RHF Final Energy:  -344.90682236399010
    Total Energy =                       -344.9068223639898179
    Molecular point group: c1
  Basis Set: 6-31G*
  Basis Set:
  Basis Set: 6-31G*
  Basis Set:
  @DF-RHF Final Energy:  -344.90682681206897
    Total Energy =                       -344.9068268120688572
  Basis Set: 6-31G*
  Basis Set:
  Charge       = 0
  Multiplicity = 1
  Basis Set: 6-31G*
  Basis Set:

    Orbital Energies (a.u.)
    -----------------------

    Doubly Occupied:

       1A    -20.604019     2A    -20.545848     3A    -11.372642
       4A    -11.281132     5A    -11.236130     6A    -11.222011
       7A    -11.214528     8A     -1.469735     9A     -1.363186
      10A     -1.080637    11A     -1.001495    12A     -0.939777
      13A     -0.827219    14A     -0.767323    15A     -0.700223
      16A     -0.683670    17A     -0.672303    18A     -0.637240
      19A     -0.595158    20A     -0.574705    21A     -0.569126
      22A     -0.527351    23A     -0.522015    24A     -0.498425
      25A     -0.487090    26A     -0.479152    27A     -0.456360
      28A     -0.438158

  @DF-RHF Final Energy:  -344.90682613611318

   => Energetics <=

    Nuclear Repulsion Energy =            312.4835844234120259
    One-Electron Energy =               -1089.2475043747831478
    Two-Electron Energy =                 431.8570938152581107
    DFT Exchange-Correlation Energy =       0.0000000000000000
    Empirical Dispersion Energy =           0.0000000000000000
    PCM Polarization Energy =               0.0000000000000000
    EFP Energy =                            0.0000000000000000
    Total Energy =                       -344.9068261361130112
    Molecular point group: c1
  Basis Set: 6-31G*
  Basis Set:

  -Total Gradient:
     Atom            X                  Y                   Z
    ------   -----------------  -----------------  -----------------
       1        0.000007389793     0.000006532941    -0.000363969232
       2       -0.000018623672    -0.000057407541     0.000969008617
       3       -0.000542837897    -0.000621347078     0.000079272229
       4       -0.000010316229     0.000021830625    -0.000289937708
       5        0.000523622650     0.000644678550     0.000359656686
       6        0.000311664245     0.000406133599    -0.000342181059
       7        0.000073448326     0.000022590165     0.000027898766
       8        0.000027957911     0.000023511731    -0.000053438370
       9       -0.000371837900    -0.000423958767    -0.000357497815
      10       -0.000003592561    -0.000015708839    -0.000005445810
      11       -0.000027368333     0.000002673777    -0.000005233437
      12        0.000000171505    -0.000005817109     0.000008198135
      13        0.000025060422    -0.000003937285    -0.000009758382
      14        0.000002879470     0.000002943907    -0.000011543153
      15        0.000010242514     0.000001311363     0.000001467316
      16        0.000003258744    -0.000001295954    -0.000005291942
      17       -0.000011118988    -0.000002734086    -0.000001204841

  **** Optimization is complete! (in 3 steps) ****
    Final optimized geometry and variables:
    Molecular point group: c1

    Geometry (in Angstrom), charge = 0, multiplicity = 1:

    O            0.749832991603     1.307282922668    -0.012055131786
    C            0.575965873364     0.131343473877    -0.006915156868
    C           -0.767254251774    -0.557305715499    -0.003120945285
    O            1.568125413459    -0.749752424113    -0.011703610155
    C           -1.944988312437     0.412859543940    -0.007248004096
    H           -0.795472279012    -1.211880693317    -0.870032706823
    H           -0.796491561803    -1.209995453466     0.865153762195
    C           -3.286693204321    -0.315396891242     0.060961568878
    H           -1.903907522650     1.020858083779    -0.904864751860
    H           -1.850972688820     1.096330058284     0.829337268832
    H           -3.417612231391    -0.984838648455    -0.784739773843
    H           -4.110942075719     0.390247067293     0.053155039053
    H           -3.368904922513    -0.909004165774     0.967206751691
    C            2.886534928833    -0.233036170227    -0.019607653831
    H            3.053902153001     0.367795503112    -0.901921741102
    H            3.539919881694    -1.091536343550    -0.022297111403
    H            3.063695869383     0.369721074105     0.859476649372

  Mulliken Charges: (a.u.)
   Center  Symbol    Alpha    Beta     Spin     Total
       1     O     4.28582  4.28582  0.00000 -0.57165
       2     C     2.60633  2.60633  0.00000  0.78733
       3     C     3.20588  3.20588  0.00000 -0.41175
       4     O     4.30698  4.30698  0.00000 -0.61397
       5     C     3.15190  3.15190  0.00000 -0.30380
       6     H     0.40079  0.40079  0.00000  0.19841
       7     H     0.40102  0.40102  0.00000  0.19797
       8     C     3.24279  3.24279  0.00000 -0.48558
       9     H     0.41172  0.41172  0.00000  0.17655
      10     H     0.40996  0.40996  0.00000  0.18008
      11     H     0.42143  0.42143  0.00000  0.15713
      12     H     0.41516  0.41516  0.00000  0.16968
      13     H     0.42133  0.42133  0.00000  0.15735
      14     C     3.09247  3.09247  0.00000 -0.18495
      15     H     0.40898  0.40898  0.00000  0.18204
      16     H     0.40838  0.40838  0.00000  0.18325
      17     H     0.40904  0.40904  0.00000  0.18191

   Total alpha = 28.00000, Total beta = 28.00000, Total charge = -0.00000
