  ==> Input File <==

--------------------------------------------------------------------------
set {
	reference rhf
	basis cc-pvtz
}

set_num_threads( 4 )
memory 2 gb

molecule MOL {
0 1

H	 -0.000105	 1.988529	 0.748933
O	 -0.000098	 1.879786	 -0.188206
C	 -0.000014	 0.545691	 -0.532416
C	 0.159699	 -0.322124	 0.717050
C	 1.039342	 0.281740	 -1.623216
H	 -0.965874	 0.312080	 -0.955737
F	 -0.830832	 -0.082239	 1.540556
F	 0.150496	 -1.601321	 0.439052
F	 1.280254	 -0.048302	 1.350100
F	 0.754531	 1.006085	 -2.677286
F	 1.064713	 -0.973733	 -1.993158
F	 2.247780	 0.615910	 -1.223987

	symmetry c1
}
set optking {
	frozen_dihedral = ("
		6 3 2 1
	")
}

ee = optimize('scf')
oeprop('DIPOLE', 'QUADRUPOLE', 'MULLIKEN_CHARGES')
f=open( 'psi4out.xyz', 'w' )
f.write( "12  " )
f.write( str(ee) + "\n" )
f.write( MOL.save_string_xyz() )
f.close()
--------------------------------------------------------------------------

    Molecular point group: c1
  Charge       = 0
  Multiplicity = 1
  Basis Set: CC-PVTZ
  Basis Set:
  @DF-RHF Final Energy:  -786.58416530061811
    Total Energy =                       -786.5841653006183378
    Molecular point group: c1
  Basis Set: CC-PVTZ
  Basis Set:
  Basis Set: CC-PVTZ
  Basis Set:
  @DF-RHF Final Energy:  -786.58531330118467
    Total Energy =                       -786.5853133011845557
  Basis Set: CC-PVTZ
  Basis Set:
  Basis Set: CC-PVTZ
  Basis Set:
  @DF-RHF Final Energy:  -786.58553039418871
    Total Energy =                       -786.5855303941895045
  Basis Set: CC-PVTZ
  Basis Set:
  Basis Set: CC-PVTZ
  Basis Set:
  @DF-RHF Final Energy:  -786.58558031298844
    Total Energy =                       -786.5855803129882133
  Basis Set: CC-PVTZ
  Basis Set:
  Basis Set: CC-PVTZ
  Basis Set:
  @DF-RHF Final Energy:  -786.58559071201546
    Total Energy =                       -786.5855907120156871
  Basis Set: CC-PVTZ
  Basis Set:
  Basis Set: CC-PVTZ
  Basis Set:
  @DF-RHF Final Energy:  -786.58559307683959
    Total Energy =                       -786.5855930768390181
  Basis Set: CC-PVTZ
  Basis Set:
  Charge       = 0
  Multiplicity = 1
  Basis Set: CC-PVTZ
  Basis Set:

    Orbital Energies (a.u.)
    -----------------------

    Doubly Occupied:

       1A    -26.364749     2A    -26.363412     3A    -26.362355
       4A    -26.351381     5A    -26.348671     6A    -26.347726
       7A    -20.607369     8A    -11.527354     9A    -11.514357
      10A    -11.351857    11A     -1.776942    12A     -1.762029
      13A     -1.672365    14A     -1.669718    15A     -1.657472
      16A     -1.655720    17A     -1.436817    18A     -1.105281
      19A     -1.003198    20A     -0.943951    21A     -0.876469
      22A     -0.869059    23A     -0.863565    24A     -0.849367
      25A     -0.838887    26A     -0.803618    27A     -0.754099
      28A     -0.740867    29A     -0.726350    30A     -0.724645
      31A     -0.710878    32A     -0.696207    33A     -0.692052
      34A     -0.676811    35A     -0.674894    36A     -0.671676
      37A     -0.659355    38A     -0.655697    39A     -0.621040
      40A     -0.550217    41A     -0.507241

  @DF-RHF Final Energy:  -786.58559358869206

   => Energetics <=

    Nuclear Repulsion Energy =            671.1159143878899158
    One-Electron Energy =               -2429.4315719049577638
    Two-Electron Energy =                 971.7300639283757846
    DFT Exchange-Correlation Energy =       0.0000000000000000
    Empirical Dispersion Energy =           0.0000000000000000
    PCM Polarization Energy =               0.0000000000000000
    EFP Energy =                            0.0000000000000000
    Total Energy =                       -786.5855935886920633
    Molecular point group: c1
  Basis Set: CC-PVTZ
  Basis Set:

  -Total Gradient:
     Atom            X                  Y                   Z
    ------   -----------------  -----------------  -----------------
       1        0.000746915613    -0.000010744115     0.000018711419
       2       -0.000879724187     0.000022814224    -0.000213816256
       3       -0.000137510165    -0.000146329216     0.000714049411
       4        0.000078141583    -0.000015155394    -0.000006245947
       5        0.000055048725     0.000021681802     0.000026710140
       6        0.000248209528     0.000146008648    -0.000562605537
       7       -0.000007192572     0.000006772971     0.000047456647
       8        0.000004870286    -0.000001946592     0.000005370209
       9       -0.000066492872    -0.000015891572     0.000003973685
      10       -0.000014181399     0.000050302707    -0.000036833141
      11       -0.000010331993    -0.000056086059     0.000002728681
      12       -0.000017752540    -0.000001427399     0.000000500699

  **** Optimization is complete! (in 7 steps) ****
    Final optimized geometry and variables:
    Molecular point group: c1

    Geometry (in Angstrom), charge = 0, multiplicity = 1:

    H           -0.656492904857     1.925989089256     1.109354710220
    O           -0.636330840682     1.766476639615     0.182615670195
    C           -0.625780726645     0.419171071926    -0.123427378741
    C           -0.440413538132    -0.447334119530     1.120512325633
    C            0.442025082198     0.198017649042    -1.194787804915
    H           -1.567960986630     0.118631109461    -0.566624727701
    F           -1.367630976791    -0.120977805833     2.000696048163
    F           -0.572693985200    -1.718385819311     0.851157393781
    F            0.721485487767    -0.262829013286     1.697799707136
    F            0.153594258163     0.927217695250    -2.244892544027
    F            0.474036853845    -1.058657769800    -1.575787487638
    F            1.639188433869     0.530672875712    -0.786633995848

  Mulliken Charges: (a.u.)
   Center  Symbol    Alpha    Beta     Spin     Total
       1     H     0.38224  0.38224  0.00000  0.23552
       2     O     4.18948  4.18948  0.00000 -0.37895
       3     C     2.99475  2.99475  0.00000  0.01049
       4     C     2.68730  2.68730  0.00000  0.62540
       5     C     2.67948  2.67948  0.00000  0.64104
       6     H     0.44057  0.44057  0.00000  0.11885
       7     F     4.61097  4.61097  0.00000 -0.22194
       8     F     4.59890  4.59890  0.00000 -0.19779
       9     F     4.60363  4.60363  0.00000 -0.20726
      10     F     4.60272  4.60272  0.00000 -0.20543
      11     F     4.60650  4.60650  0.00000 -0.21301
      12     F     4.60346  4.60346  0.00000 -0.20692

   Total alpha = 41.00000, Total beta = 41.00000, Total charge =  0.00000
