  ==> Input File <==

--------------------------------------------------------------------------
set {
	reference rhf
	basis cc-pvtz
}

set_num_threads( 4 )
memory 2 gb

molecule MOL {
0 1

H	 -2.498963	 -0.741158	 -0.729149
O	 -2.346257	 -0.289210	 0.080372
C	 -1.183935	 0.486039	 -0.009831
C	 0.062853	 -0.375310	 0.027457
H	 -1.178881	 1.094526	 -0.908634
H	 -1.184406	 1.155156	 0.838676
O	 0.583217	 -0.446589	 -1.259241
H	 -0.184473	 -1.372312	 0.395851
H	 0.783521	 0.058047	 0.717684
C	 1.754865	 -1.185605	 -1.370222
H	 1.603064	 -2.219160	 -1.066914
H	 2.060334	 -1.168318	 -2.406116
H	 2.550872	 -0.761927	 -0.762447

	symmetry c1
}
set optking {
	frozen_dihedral = ("
		8 4 3 5
	")
}

ee = optimize('scf')
oeprop('DIPOLE', 'QUADRUPOLE', 'MULLIKEN_CHARGES')
f=open( 'psi4out.xyz', 'w' )
f.write( "13  " )
f.write( str(ee) + "\n" )
f.write( MOL.save_string_xyz() )
f.close()
--------------------------------------------------------------------------

    Molecular point group: c1
  Charge       = 0
  Multiplicity = 1
  Basis Set: CC-PVTZ
  Basis Set:
  @DF-RHF Final Energy:  -268.05842579031446
    Total Energy =                       -268.0584257903143452
    Molecular point group: c1
  Basis Set: CC-PVTZ
  Basis Set:
  Basis Set: CC-PVTZ
  Basis Set:
  @DF-RHF Final Energy:  -268.05920209497003
    Total Energy =                       -268.0592020949701464
  Basis Set: CC-PVTZ
  Basis Set:
  Basis Set: CC-PVTZ
  Basis Set:
  @DF-RHF Final Energy:  -268.05942701288654
    Total Energy =                       -268.0594270128863741
  Basis Set: CC-PVTZ
  Basis Set:
  Basis Set: CC-PVTZ
  Basis Set:
  @DF-RHF Final Energy:  -268.05943738618203
    Total Energy =                       -268.0594373861819690
  Basis Set: CC-PVTZ
  Basis Set:
  Charge       = 0
  Multiplicity = 1
  Basis Set: CC-PVTZ
  Basis Set:

    Orbital Energies (a.u.)
    -----------------------

    Doubly Occupied:

       1A    -20.555696     2A    -20.546915     3A    -11.269429
       4A    -11.267770     5A    -11.267738     6A     -1.390713
       7A     -1.362714     8A     -1.018081     9A     -0.916243
      10A     -0.840387    11A     -0.706628    12A     -0.682047
      13A     -0.658499    14A     -0.633092    15A     -0.603468
      16A     -0.568469    17A     -0.538018    18A     -0.493991
      19A     -0.487574    20A     -0.440425    21A     -0.423506

  @DF-RHF Final Energy:  -268.05943819385396

   => Energetics <=

    Nuclear Repulsion Energy =            191.8176342606425919
    One-Electron Energy =                -746.4113406787166696
    Two-Electron Energy =                 286.5342682242198862
    DFT Exchange-Correlation Energy =       0.0000000000000000
    Empirical Dispersion Energy =           0.0000000000000000
    PCM Polarization Energy =               0.0000000000000000
    EFP Energy =                            0.0000000000000000
    Total Energy =                       -268.0594381938542483
    Molecular point group: c1
  Basis Set: CC-PVTZ
  Basis Set:

  -Total Gradient:
     Atom            X                  Y                   Z
    ------   -----------------  -----------------  -----------------
       1       -0.000020416677    -0.000020453786     0.000001212761
       2        0.000003841630     0.000013483876    -0.000042405578
       3        0.002865003773     0.004678892377     0.002266540523
       4        0.000693109076     0.001100638624     0.005874764043
       5       -0.002587250349    -0.004121164940    -0.002825135179
       6        0.000032636278    -0.000010995690    -0.000003761127
       7       -0.000032032360     0.000007998194     0.000003227358
       8       -0.000957221836    -0.001645028995    -0.005292047080
       9       -0.000007459043     0.000005341998     0.000002173423
      10        0.000022746761    -0.000025467547     0.000014323219
      11       -0.000000933255    -0.000001739231    -0.000002758572
      12       -0.000019046357     0.000016302174     0.000007937453
      13        0.000007022361     0.000002192946    -0.000004071243

  **** Optimization is complete! (in 5 steps) ****
    Final optimized geometry and variables:
    Molecular point group: c1

    Geometry (in Angstrom), charge = 0, multiplicity = 1:

    H           -2.183531318330    -0.389347492417    -0.271820821336
    O           -2.105916004210     0.066353337034     0.546996264295
    C           -0.948710868919     0.861235091969     0.534790461650
    C            0.332437015086     0.037020793136     0.563166117189
    H           -0.937965724317     1.470218999234    -0.361633261425
    H           -1.013317254561     1.499366313131     1.403731924158
    O            0.835389283199    -0.053531537060    -0.739492891482
    H            0.097440842951    -0.962731412277     0.918281605801
    H            1.075982525095     0.485152329598     1.218281312045
    C            1.981038447424    -0.830350931261    -0.858279425594
    H            1.801195508165    -1.857023569643    -0.546919450581
    H            2.277010350704    -0.828284084092    -1.897262010095
    H            2.797347921804    -0.429375005876    -0.261392936822

  Mulliken Charges: (a.u.)
   Center  Symbol    Alpha    Beta     Spin     Total
       1     H     0.39050  0.39050  0.00000  0.21900
       2     O     4.20614  4.20614  0.00000 -0.41228
       3     C     2.96584  2.96584  0.00000  0.06833
       4     C     2.98125  2.98125  0.00000  0.03750
       5     H     0.46397  0.46397  0.00000  0.07206
       6     H     0.45599  0.45599  0.00000  0.08803
       7     O     4.17759  4.17759  0.00000 -0.35519
       8     H     0.46812  0.46812  0.00000  0.06376
       9     H     0.47260  0.47260  0.00000  0.05479
      10     C     3.02877  3.02877  0.00000 -0.05755
      11     H     0.47129  0.47129  0.00000  0.05743
      12     H     0.44679  0.44679  0.00000  0.10642
      13     H     0.47115  0.47115  0.00000  0.05770

   Total alpha = 21.00000, Total beta = 21.00000, Total charge = -0.00000
