                              Psi4 1.0.54 Driver

  ==> Input File <==

--------------------------------------------------------------------------
set {
	reference rhf
	basis cc-pvtz
}

set_num_threads( 4 )
memory 2 gb

molecule MOL {
0 1

H	 1.227733	 -2.309373	 -0.746559
C	 0.500940	 -2.574540	 0.032615
C	 -0.788593	 -1.802360	 -0.007909
O	 0.763043	 -3.411247	 0.825620
C	 -0.554654	 -0.292621	 0.086567
H	 -1.424119	 -2.153737	 0.794261
H	 -1.276804	 -2.033496	 -0.952422
C	 -1.846385	 0.513195	 -0.016346
H	 -0.061927	 -0.066023	 1.027743
H	 0.126695	 0.019399	 -0.700885
C	 -3.089953	 -0.365049	 -0.098564
H	 -1.798267	 1.154820	 -0.891143
H	 -1.925398	 1.173265	 0.842889
H	 -3.055079	 -1.012299	 -0.968245
H	 -3.988403	 0.236438	 -0.170014
H	 -3.183055	 -0.995885	 0.779079

	symmetry c1
}
set optking {
	frozen_dihedral = ("
		9 5 8 12
	")
}

ee,wfn = optimize('scf', return_wfn=True)
oeprop( wfn, 'DIPOLE', 'QUADRUPOLE', 'MULLIKEN_CHARGES')
f=open( 'psi4out.xyz', 'w' )
f.write( "16  " )
f.write( str(ee) + "\n" )
f.write( MOL.save_string_xyz() )
f.close()
--------------------------------------------------------------------------

    Molecular point group: c1
  Charge       = 0
  Multiplicity = 1
  Basis Set: CC-PVTZ
  Basis Set:
  @DF-RHF Final Energy:  -270.10494955640729
    Total Energy =                       -270.1049495564072345
    Molecular point group: c1
  Basis Set: CC-PVTZ
  Basis Set:
  Basis Set: CC-PVTZ
  Basis Set:
  @DF-RHF Final Energy:  -270.10383026154705
    Total Energy =                       -270.1038302615472730
  Basis Set: CC-PVTZ
  Basis Set:
  Basis Set: CC-PVTZ
  Basis Set:
  @DF-RHF Final Energy:  -270.10893569247833
    Total Energy =                       -270.1089356924782692
  Basis Set: CC-PVTZ
  Basis Set:
  Basis Set: CC-PVTZ
  Basis Set:
  @DF-RHF Final Energy:  -270.10900202824450
    Total Energy =                       -270.1090020282446176
  Basis Set: CC-PVTZ
  Basis Set:
  Basis Set: CC-PVTZ
  Basis Set:
  @DF-RHF Final Energy:  -270.10933041601243
    Total Energy =                       -270.1093304160124262
  Basis Set: CC-PVTZ
  Basis Set:
  Basis Set: CC-PVTZ
  Basis Set:
  @DF-RHF Final Energy:  -270.10946353569341
    Total Energy =                       -270.1094635356935783
  Basis Set: CC-PVTZ
  Basis Set:
  Basis Set: CC-PVTZ
  Basis Set:
  @DF-RHF Final Energy:  -270.10946580790988
    Total Energy =                       -270.1094658079098281
  Basis Set: CC-PVTZ
  Basis Set:
  Charge       = 0
  Multiplicity = 1
  Basis Set: CC-PVTZ
  Basis Set:

    Orbital Energies (a.u.)
    -----------------------

    Doubly Occupied:

       1A    -20.551809     2A    -11.320882     3A    -11.234962
       4A    -11.233554     5A    -11.227864     6A    -11.217172
       7A     -1.406654     8A     -1.093464     9A     -1.016028
      10A     -0.916555    11A     -0.811481    12A     -0.785677
      13A     -0.680860    14A     -0.647219    15A     -0.640151
      16A     -0.590250    17A     -0.578714    18A     -0.565248
      19A     -0.536763    20A     -0.518726    21A     -0.486823
      22A     -0.477694    23A     -0.463622    24A     -0.411987

  @DF-RHF Final Energy:  -270.10946534534924

   => Energetics <=

    Nuclear Repulsion Energy =            232.5077312854090223
    One-Electron Energy =                -826.4060816483510052
    Two-Electron Energy =                 323.7888850175929747
    DFT Exchange-Correlation Energy =       0.0000000000000000
    Empirical Dispersion Energy =           0.0000000000000000
    PCM Polarization Energy =               0.0000000000000000
    EFP Energy =                            0.0000000000000000
    Total Energy =                       -270.1094653453490082
    Molecular point group: c1
  Basis Set: CC-PVTZ
  Basis Set:

  -Total Gradient:
     Atom            X                  Y                   Z
    ------   -----------------  -----------------  -----------------
       1       -0.000045988996    -0.000024493554     0.000045961010
       2        0.000078886110    -0.000055418900     0.000052843852
       3        0.000040673860     0.000028336598     0.000092970805
       4       -0.000071360748     0.000095707346    -0.000131411439
       5       -0.001252924077    -0.001778152533     0.001505545247
       6        0.000074280847     0.000001611096    -0.000021380084
       7       -0.000056775190     0.000011843091    -0.000018183103
       8       -0.000941926373    -0.001634187597    -0.001836426560
       9        0.001173035769     0.001729353988    -0.001009126953
      10       -0.000008319197    -0.000021920876     0.000025180237
      11       -0.000098213440     0.000057653242    -0.000022730404
      12        0.000960072361     0.001656958156     0.001326395208
      13        0.000003035986    -0.000036937087    -0.000020013422
      14        0.000032290287     0.000008662641     0.000026569899
      15        0.000113034088    -0.000086127376     0.000001754546
      16        0.000000198714     0.000047111761    -0.000017948839

  **** Optimization is complete! (in 8 steps) ****
    Final optimized geometry and variables:
    Molecular point group: c1

    Geometry (in Angstrom), charge = 0, multiplicity = 1:

    H            2.140176513558    -0.901422150206    -0.891365658837
    C            1.427347429851    -1.219964380614    -0.119474210273
    C            0.085110022428    -0.543431571633    -0.170362201655
    O            1.741577244573    -2.037523619203     0.674470777860
    C            0.235423970451     0.976046935941    -0.039081291669
    H           -0.532856596997    -0.961661383763     0.610906144571
    H           -0.362449946282    -0.792052682160    -1.129037698080
    C           -1.061954755201     1.818159352015    -0.161286877690
    H            0.715874684524     1.196886901906     0.907526921933
    H            0.935269068943     1.311905663410    -0.797922000537
    C           -2.386562333529     1.060418496067    -0.212984684478
    H           -0.985463496747     2.454733706812    -1.035464569075
    H           -1.099744064215     2.499721956176     0.680976511349
    H           -2.450121461253     0.403933381707    -1.072325191904
    H           -3.207974005760     1.763572441277    -0.281047315659
    H           -2.543627870163     0.461457157695     0.676166279898

  Mulliken Charges: (a.u.)
   Center  Symbol    Alpha    Beta     Spin     Total
       1     H     0.46545  0.46545  0.00000  0.06910
       2     C     2.91148  2.91148  0.00000  0.17704
       3     C     3.07738  3.07738  0.00000 -0.15475
       4     O     4.16380  4.16380  0.00000 -0.32759
       5     C     3.11187  3.11187  0.00000 -0.22374
       6     H     0.44100  0.44100  0.00000  0.11799
       7     H     0.44902  0.44902  0.00000  0.10195
       8     C     3.08781  3.08781  0.00000 -0.17563
       9     H     0.44251  0.44251  0.00000  0.11497
      10     H     0.44901  0.44901  0.00000  0.10197
      11     C     3.15594  3.15594  0.00000 -0.31189
      12     H     0.44961  0.44961  0.00000  0.10077
      13     H     0.44865  0.44865  0.00000  0.10269
      14     H     0.45366  0.45366  0.00000  0.09267
      15     H     0.44243  0.44243  0.00000  0.11514
      16     H     0.45035  0.45035  0.00000  0.09929

   Total alpha = 24.00000, Total beta = 24.00000, Total charge =  0.00000

*** Psi4 exiting successfully. Buy a developer a beer!
