  ==> Input File <==

--------------------------------------------------------------------------
set {
	reference rhf
	basis 6-31G*
}

set_num_threads( 4 )
memory 2 gb

molecule MOL {
0 1

O	 3.225979	 0.970355	 -0.599647
C	 2.701189	 0.057885	 -0.047330
C	 1.245376	 -0.013843	 0.345420
O	 3.347903	 -1.046386	 0.304773
C	 0.455112	 1.231400	 -0.050772
H	 0.838542	 -0.913825	 -0.103701
H	 1.208210	 -0.175333	 1.419774
C	 -0.998893	 1.219485	 0.433193
H	 0.482531	 1.345121	 -1.130325
H	 0.957290	 2.103070	 0.354729
C	 -1.883438	 0.145884	 -0.207175
H	 -1.431207	 2.195402	 0.224832
H	 -1.019646	 1.105716	 1.516076
C	 -3.347647	 0.245583	 0.225435
H	 -1.822183	 0.231698	 -1.291012
H	 -1.510341	 -0.844814	 0.042401
C	 -3.622226	 1.417330	 1.169757
H	 -3.643377	 -0.682942	 0.710842
H	 -3.978188	 0.341228	 -0.657158
C	 -5.085922	 1.507530	 1.600058
H	 -2.992226	 1.323859	 2.051804
H	 -3.331313	 2.346753	 0.684657
H	 -5.248827	 2.347380	 2.268429
H	 -5.398012	 0.606018	 2.119740
H	 -5.739665	 1.636171	 0.741952
C	 4.728119	 -1.109107	 -0.004993
H	 4.882018	 -1.033965	 -1.071845
H	 5.068212	 -2.067527	 0.355250
H	 5.265056	 -0.311663	 0.488280

	symmetry c1
}
set optking {
	frozen_dihedral = ("
		17 14 11 15
	")
}

ee = optimize('scf')
oeprop('DIPOLE', 'QUADRUPOLE', 'MULLIKEN_CHARGES')
f=open( 'psi4out.xyz', 'w' )
f.write( "29  " )
f.write( str(ee) + "\n" )
f.write( MOL.save_string_xyz() )
f.close()
--------------------------------------------------------------------------

    Molecular point group: c1
  Charge       = 0
  Multiplicity = 1
  Basis Set: 6-31G*
  Basis Set:
  @DF-RHF Final Energy:  -501.02850311447230
    Total Energy =                       -501.0285031144725281
    Molecular point group: c1
  Basis Set: 6-31G*
  Basis Set:
  Basis Set: 6-31G*
  Basis Set:
  @DF-RHF Final Energy:  -501.02804486059426
    Total Energy =                       -501.0280448605940364
  Basis Set: 6-31G*
  Basis Set:
  Basis Set: 6-31G*
  Basis Set:
  @DF-RHF Final Energy:  -501.03286744549905
    Total Energy =                       -501.0328674454983684
  Basis Set: 6-31G*
  Basis Set:
  Basis Set: 6-31G*
  Basis Set:
  @DF-RHF Final Energy:  -501.03368502298576
    Total Energy =                       -501.0336850229853098
  Basis Set: 6-31G*
  Basis Set:
  @DF-RHF Final Energy:  -501.03368802562568
    Total Energy =                       -501.0336880256254517
  @DF-RHF Final Energy:  -501.03302373881388
    Total Energy =                       -501.0330237388141086
  Basis Set: 6-31G*
  Basis Set:
  @DF-RHF Final Energy:  -501.03382313690167
    Total Energy =                       -501.0338231369025834
  Basis Set: 6-31G*
  Basis Set:
  Basis Set: 6-31G*
  Basis Set:
  @DF-RHF Final Energy:  -501.03375573184508
    Total Energy =                       -501.0337557318455310
  Basis Set: 6-31G*
  Basis Set:
  Basis Set: 6-31G*
  Basis Set:
  @DF-RHF Final Energy:  -501.03383243642213
    Total Energy =                       -501.0338324364220171
  Basis Set: 6-31G*
  Basis Set:
  Charge       = 0
  Multiplicity = 1
  Basis Set: 6-31G*
  Basis Set:

    Orbital Energies (a.u.)
    -----------------------

    Doubly Occupied:

       1A    -20.603319     2A    -20.545143     3A    -11.371959
       4A    -11.280625     5A    -11.234644     6A    -11.218935
       7A    -11.217279     8A    -11.216456     9A    -11.215579
      10A    -11.214984    11A    -11.208801    12A     -1.469018
      13A     -1.362457    14A     -1.095995    15A     -1.064235
      16A     -1.017250    17A     -0.975595    18A     -0.928857
      19A     -0.863049    20A     -0.820332    21A     -0.773081
      22A     -0.756903    23A     -0.700910    24A     -0.682067
      25A     -0.672055    26A     -0.647602    27A     -0.627587
      28A     -0.605388    29A     -0.593229    30A     -0.581566
      31A     -0.564144    32A     -0.551883    33A     -0.548737
      34A     -0.523922    35A     -0.519463    36A     -0.499260
      37A     -0.491191    38A     -0.484793    39A     -0.483052
      40A     -0.456766    41A     -0.449710    42A     -0.445349
      43A     -0.441291    44A     -0.437078

  @DF-RHF Final Energy:  -501.03383209746823

   => Energetics <=

    Nuclear Repulsion Energy =            614.3854191131337075
    One-Electron Energy =               -1899.9154262260126416
    Two-Electron Energy =                 784.4961750154113815
    DFT Exchange-Correlation Energy =       0.0000000000000000
    Empirical Dispersion Energy =           0.0000000000000000
    PCM Polarization Energy =               0.0000000000000000
    EFP Energy =                            0.0000000000000000
    Total Energy =                       -501.0338320974676662
    Molecular point group: c1
  Basis Set: 6-31G*
  Basis Set:

  -Total Gradient:
     Atom            X                  Y                   Z
    ------   -----------------  -----------------  -----------------
       1       -0.000003680360    -0.000009368642    -0.000014776219
       2        0.000010692277     0.000032524007     0.000059378601
       3        0.000030474796    -0.000008874870    -0.000009162468
       4       -0.000005502229    -0.000002069281    -0.000008301008
       5       -0.000022758730    -0.000014699790    -0.000035243121
       6        0.000009689791     0.000018994264     0.000001896782
       7        0.000016827300    -0.000006336964    -0.000003847608
       8        0.000024185245    -0.000005605378     0.000012979767
       9       -0.000003732265    -0.000015704587    -0.000004894181
      10       -0.000012560984     0.000011537198    -0.000006247434
      11        0.000151405806     0.001092309129     0.000411510586
      12        0.000034932291    -0.000011572222     0.000010077228
      13       -0.000010856819    -0.000023359465     0.000026006881
      14       -0.000269109263     0.000438415360    -0.000976835205
      15       -0.000061827100    -0.001110048162    -0.000083870733
      16       -0.000039204844     0.000043098883     0.000025824723
      17        0.000113040927    -0.000354903307     0.000513929454
      18       -0.000015617498    -0.000000121263    -0.000016735176
      19        0.000013063699     0.000024617467     0.000002213587
      20        0.000017788395    -0.000046664312     0.000046286916
      21        0.000065997581    -0.000010541852     0.000016395537
      22       -0.000044974796    -0.000026844530     0.000016294181
      23        0.000009277388    -0.000013059786     0.000020644162
      24       -0.000024008615    -0.000014157640    -0.000006964293
      25        0.000017080019     0.000012391772     0.000005502795
      26       -0.000000950930     0.000001645922     0.000001893026
      27        0.000002300037    -0.000000867910    -0.000001510810
      28        0.000000214806    -0.000000852576    -0.000001884531
      29       -0.000002185935     0.000000118540    -0.000000561436

  **** Optimization is complete! (in 10 steps) ****
    Final optimized geometry and variables:
    Molecular point group: c1

    Geometry (in Angstrom), charge = 0, multiplicity = 1:

    O            3.162137094689     0.487246587903    -0.958750329259
    C            2.622953581242    -0.390107309910    -0.364956658181
    C            1.176319554781    -0.402314156029     0.066383348687
    O            3.242973795730    -1.503763720969     0.005242935231
    C            0.416465658257     0.855566194841    -0.349809491432
    H            0.730794753863    -1.303000133686    -0.342332027492
    H            1.162844299360    -0.527950176384     1.146098237078
    C           -1.020080686405     0.921407141222     0.183013351129
    H            0.411581742204     0.929830919613    -1.433194787779
    H            0.964072190655     1.721328236643     0.006547507478
    C           -1.954152726898    -0.135903051833    -0.419274151441
    H           -1.405977366008     1.912514816973    -0.033762764090
    H           -1.002236901657     0.831874299615     1.266880071117
    C           -3.451952158113    -0.082921278442    -0.001494551710
    H           -1.888321012542    -0.066891149761    -1.502307526662
    H           -1.570719672327    -1.120953328835    -0.171692324891
    C           -3.894246473126     1.059372207977     0.920620457122
    H           -3.710551782658    -1.018657353247     0.487570269453
    H           -4.064277010765    -0.046202278000    -0.898575584371
    C           -5.380238038864     0.965410030034     1.268004234242
    H           -3.314370728685     1.045459005901     1.839022664237
    H           -3.702020856638     2.019193577813     0.449391769517
    H           -5.682072888822     1.777264554915     1.922584351085
    H           -5.607437826506     0.030998474307     1.773620834401
    H           -5.996406615377     1.014467743836     0.374577595345
    C            4.611894757620    -1.621165426814    -0.337004552942
    H            4.740203416553    -1.583670677296    -1.409221734335
    H            4.930399094923    -2.578809332442     0.044403412914
    H            5.186807776457    -0.827115490065     0.117415725232

  Mulliken Charges: (a.u.)
   Center  Symbol    Alpha    Beta     Spin     Total
       1     O     4.28597  4.28597  0.00000 -0.57194
       2     C     2.60471  2.60471  0.00000  0.79058
       3     C     3.20991  3.20991  0.00000 -0.41982
       4     O     4.30750  4.30750  0.00000 -0.61500
       5     C     3.15405  3.15405  0.00000 -0.30810
       6     H     0.39882  0.39882  0.00000  0.20236
       7     H     0.40135  0.40135  0.00000  0.19730
       8     C     3.15902  3.15902  0.00000 -0.31805
       9     H     0.41331  0.41331  0.00000  0.17338
      10     H     0.40845  0.40845  0.00000  0.18311
      11     C     3.15926  3.15926  0.00000 -0.31852
      12     H     0.41652  0.41652  0.00000  0.16696
      13     H     0.42300  0.42300  0.00000  0.15400
      14     C     3.15459  3.15459  0.00000 -0.30918
      15     H     0.42043  0.42043  0.00000  0.15913
      16     H     0.42127  0.42127  0.00000  0.15746
      17     C     3.15449  3.15449  0.00000 -0.30897
      18     H     0.42193  0.42193  0.00000  0.15615
      19     H     0.42073  0.42073  0.00000  0.15854
      20     C     3.23935  3.23935  0.00000 -0.47870
      21     H     0.42175  0.42175  0.00000  0.15650
      22     H     0.42160  0.42160  0.00000  0.15680
      23     H     0.41908  0.41908  0.00000  0.16184
      24     H     0.42203  0.42203  0.00000  0.15594
      25     H     0.42173  0.42173  0.00000  0.15654
      26     C     3.09239  3.09239  0.00000 -0.18478
      27     H     0.40908  0.40908  0.00000  0.18184
      28     H     0.40853  0.40853  0.00000  0.18295
      29     H     0.40914  0.40914  0.00000  0.18171

   Total alpha = 44.00000, Total beta = 44.00000, Total charge = -0.00000
