                              Psi4 1.0.54 Driver

  ==> Input File <==

--------------------------------------------------------------------------
set {
	reference rhf
	basis cc-pvtz
}

set_num_threads( 4 )
memory 2 gb

molecule MOL {
0 1

H	 -3.436473	 1.252944	 -1.023892
O	 -3.458596	 0.315260	 -0.960865
C	 -3.176635	 -0.080824	 0.355601
C	 -1.763371	 0.265266	 0.799691
H	 -3.321825	 -1.153438	 0.379502
H	 -3.895468	 0.357385	 1.043382
C	 -0.673390	 -0.426948	 -0.013392
H	 -1.631049	 1.344913	 0.747560
H	 -1.664587	 -0.001624	 1.849167
C	 0.737842	 -0.043159	 0.423759
H	 -0.806103	 -0.190518	 -1.063345
H	 -0.797221	 -1.503753	 0.074146
C	 1.824000	 -0.743224	 -0.390623
H	 0.850588	 1.033777	 0.343840
H	 0.868587	 -0.286314	 1.476203
C	 3.255957	 -0.453067	 0.062319
H	 1.718250	 -0.470599	 -1.438164
H	 1.658105	 -1.815850	 -0.339904
C	 3.388954	 0.690677	 1.064968
H	 3.851609	 -0.217128	 -0.814212
H	 3.687553	 -1.355874	 0.486683
H	 2.960075	 1.606165	 0.669972
H	 4.431438	 0.885723	 1.289524
H	 2.891052	 0.469610	 2.001359

	symmetry c1
}
set optking {
	frozen_dihedral = ("
		20 16 13 17
	")
}

ee,wfn = optimize('scf', return_wfn=True)
oeprop( wfn, 'DIPOLE', 'QUADRUPOLE', 'MULLIKEN_CHARGES')
f=open( 'psi4out.xyz', 'w' )
f.write( "24  " )
f.write( str(ee) + "\n" )
f.write( MOL.save_string_xyz() )
f.close()
--------------------------------------------------------------------------

    Molecular point group: c1
  Charge       = 0
  Multiplicity = 1
  Basis Set: CC-PVTZ
  Basis Set:
  @DF-RHF Final Energy:  -349.37083407309348
    Total Energy =                       -349.3708340730938176
    Molecular point group: c1
  Basis Set: CC-PVTZ
  Basis Set:
  Basis Set: CC-PVTZ
  Basis Set:
  @DF-RHF Final Energy:  -349.26769505621627
    Total Energy =                       -349.2676950562168372
  Basis Set: CC-PVTZ
  Basis Set:
  Basis Set: CC-PVTZ
  Basis Set:
  @DF-RHF Final Energy:  -349.35531530626542
    Total Energy =                       -349.3553153062653109
  Basis Set: CC-PVTZ
  Basis Set:
  Basis Set: CC-PVTZ
  Basis Set:
  @DF-RHF Final Energy:  -349.37201709581933
    Total Energy =                       -349.3720170958189328
  Basis Set: CC-PVTZ
  Basis Set:
  Basis Set: CC-PVTZ
  Basis Set:
  @DF-RHF Final Energy:  -349.37258848306783
    Total Energy =                       -349.3725884830675454
  Basis Set: CC-PVTZ
  Basis Set:
  Basis Set: CC-PVTZ
  Basis Set:
  @DF-RHF Final Energy:  -349.37267297266987
    Total Energy =                       -349.3726729726696476
  Basis Set: CC-PVTZ
  Basis Set:
  Charge       = 0
  Multiplicity = 1
  Basis Set: CC-PVTZ
  Basis Set:

    Orbital Energies (a.u.)
    -----------------------

    Doubly Occupied:

       1A    -20.546238     2A    -11.265450     3A    -11.215058
       4A    -11.212375     5A    -11.210308     6A    -11.209397
       7A    -11.208756     8A    -11.205006     9A     -1.364121
      10A     -1.088038    11A     -1.046718    12A     -0.986250
      13A     -0.915946    14A     -0.854915    15A     -0.802840
      16A     -0.769027    17A     -0.681829    18A     -0.657145
      19A     -0.629811    20A     -0.619024    21A     -0.592011
      22A     -0.587845    23A     -0.554976    24A     -0.544718
      25A     -0.514648    26A     -0.510646    27A     -0.502840
      28A     -0.473020    29A     -0.468873    30A     -0.459818
      31A     -0.452719    32A     -0.444707    33A     -0.421451

  @DF-RHF Final Energy:  -349.37267393189575

   => Energetics <=

    Nuclear Repulsion Energy =            385.4993837640697620
    One-Electron Energy =               -1237.7110729283572255
    Two-Electron Energy =                 502.8390152323916595
    DFT Exchange-Correlation Energy =       0.0000000000000000
    Empirical Dispersion Energy =           0.0000000000000000
    PCM Polarization Energy =               0.0000000000000000
    EFP Energy =                            0.0000000000000000
    Total Energy =                       -349.3726739318958039
    Molecular point group: c1
  Basis Set: CC-PVTZ
  Basis Set:

  -Total Gradient:
     Atom            X                  Y                   Z
    ------   -----------------  -----------------  -----------------
       1       -0.000001312817    -0.000002138581     0.000015060617
       2        0.000011653686    -0.000012704031     0.000056309710
       3       -0.000015705731     0.000023573435    -0.000061213650
       4        0.000014733155     0.000009377015    -0.000015248953
       5       -0.000000760649     0.000009460108    -0.000015657414
       6       -0.000008011066    -0.000007690083    -0.000002610409
       7       -0.000024504371    -0.000021556729     0.000024598248
       8        0.000003525637    -0.000008379084     0.000010411672
       9        0.000005408528    -0.000016765792    -0.000019028884
      10        0.000051377463     0.000014596454     0.000002800083
      11        0.000004839144     0.000003081324     0.000026471819
      12        0.000002161492     0.000014069131    -0.000001089922
      13       -0.001590103432     0.005574019832    -0.001292931028
      14        0.000023443616     0.000007566655     0.000004083603
      15       -0.000007218173     0.000003251258    -0.000003240890
      16        0.001432509277    -0.005402695005     0.001929542226
      17        0.001138197911    -0.003874196152     0.000760023328
      18        0.000022057513     0.000034196772    -0.000002289285
      19       -0.000033257900    -0.000027816432     0.000062738127
      20       -0.000937004464     0.003682604822    -0.001419649885
      21       -0.000040332644    -0.000009877443    -0.000008605804
      22       -0.000062146852     0.000010574425     0.000009537944
      23       -0.000030498231    -0.000010281960    -0.000043928966
      24        0.000040948907     0.000007730060    -0.000016082288

  **** Optimization is complete! (in 7 steps) ****
    Final optimized geometry and variables:
    Molecular point group: c1

    Geometry (in Angstrom), charge = 0, multiplicity = 1:

    H           -3.386320829988     0.571975464231    -1.690473274189
    O           -3.387036363572    -0.263688601324    -1.259973664700
    C           -3.167313081186    -0.091311106040     0.115170446960
    C           -1.789741417058     0.466422179833     0.440331077814
    H           -3.285831644149    -1.071851710870     0.558601763693
    H           -3.933880492389     0.550510091493     0.542082647657
    C           -0.639540526982    -0.440665109749     0.012951659197
    H           -1.683222979833     1.442073850022    -0.031434442422
    H           -1.741210069106     0.641508912030     1.512383930841
    C            0.735155388419     0.150296415477     0.315757044269
    H           -0.721893430306    -0.646144166284    -1.048538352504
    H           -0.739379461584    -1.398958648917     0.517090244650
    C            1.871270216983    -0.776406150644    -0.111939729032
    H            0.824798979205     1.109223804755    -0.184806174721
    H            0.808213092165     0.353988317933     1.380718694209
    C            3.322195454340    -0.304781302646     0.162623264329
    H            1.766588159908    -1.011497558662    -1.166585897572
    H            1.727818734795    -1.728484630456     0.391076701476
    C            3.509664219889     1.173521441072     0.508956359250
    H            3.916992813058    -0.494786124556    -0.724029625792
    H            3.750981432961    -0.899895168146     0.960667221766
    H            3.152678153393     1.820396204394    -0.284484249197
    H            4.562718946058     1.387473256693     0.653053494932
    H            2.993325882392     1.450979594066     1.419697659373

  Mulliken Charges: (a.u.)
   Center  Symbol    Alpha    Beta     Spin     Total
       1     H     0.39533  0.39533  0.00000  0.20934
       2     O     4.20374  4.20374  0.00000 -0.40747
       3     C     2.97778  2.97778  0.00000  0.04443
       4     C     3.10189  3.10189  0.00000 -0.20379
       5     H     0.45882  0.45882  0.00000  0.08236
       6     H     0.46029  0.46029  0.00000  0.07943
       7     C     3.08821  3.08821  0.00000 -0.17643
       8     H     0.45926  0.45926  0.00000  0.08147
       9     H     0.45354  0.45354  0.00000  0.09292
      10     C     3.08892  3.08892  0.00000 -0.17784
      11     H     0.44655  0.44655  0.00000  0.10691
      12     H     0.45530  0.45530  0.00000  0.08940
      13     C     3.09976  3.09976  0.00000 -0.19951
      14     H     0.45253  0.45253  0.00000  0.09495
      15     H     0.45456  0.45456  0.00000  0.09088
      16     C     3.08720  3.08720  0.00000 -0.17441
      17     H     0.45111  0.45111  0.00000  0.09778
      18     H     0.45236  0.45236  0.00000  0.09529
      19     C     3.15793  3.15793  0.00000 -0.31585
      20     H     0.45150  0.45150  0.00000  0.09700
      21     H     0.45158  0.45158  0.00000  0.09683
      22     H     0.45384  0.45384  0.00000  0.09231
      23     H     0.44484  0.44484  0.00000  0.11032
      24     H     0.45316  0.45316  0.00000  0.09368

   Total alpha = 33.00000, Total beta = 33.00000, Total charge = -0.00000

*** Psi4 exiting successfully. Buy a developer a beer!
