  ==> Input File <==

--------------------------------------------------------------------------
set {
	reference rhf
	basis 6-31G*
}

set_num_threads( 4 )
memory 2 gb

molecule MOL {
0 1

H	 -0.581611	 3.241368	 -1.528060
C	 0.093974	 3.118985	 -0.672356
C	 -0.524859	 2.472542	 0.540808
O	 1.221836	 3.485655	 -0.744678
C	 -1.220012	 1.144545	 0.209990
H	 0.247118	 2.342436	 1.290363
H	 -1.259757	 3.172600	 0.936407
C	 -0.252658	 0.041456	 -0.226725
H	 -1.769370	 0.816081	 1.087259
H	 -1.963565	 1.310035	 -0.568149
C	 1.180775	 0.282413	 0.250794
H	 -0.266029	 -0.034465	 -1.312038
H	 -0.597733	 -0.921000	 0.146291
C	 2.148627	 -0.814315	 -0.201312
H	 1.516199	 1.249228	 -0.115937
H	 1.192670	 0.346017	 1.338083
C	 3.580890	 -0.659131	 0.322722
H	 2.166869	 -0.852443	 -1.289387
H	 1.762857	 -1.776509	 0.128956
C	 4.324889	 0.564933	 -0.213704
H	 4.142010	 -1.551473	 0.056605
H	 3.564836	 -0.624694	 1.410140
H	 4.342616	 0.565491	 -1.300421
H	 3.866655	 1.493402	 0.110242
H	 5.353900	 0.572371	 0.132816

	symmetry c1
}
set optking {
	frozen_dihedral = ("
		3 5 8 12
	")
}

ee = optimize('scf')
oeprop('DIPOLE', 'QUADRUPOLE', 'MULLIKEN_CHARGES')
f=open( 'psi4out.xyz', 'w' )
f.write( "25  " )
f.write( str(ee) + "\n" )
f.write( MOL.save_string_xyz() )
f.close()
--------------------------------------------------------------------------

    Molecular point group: c1
  Charge       = 0
  Multiplicity = 1
  Basis Set: 6-31G*
  Basis Set:
  @DF-RHF Final Energy:  -387.11038992586526
    Total Energy =                       -387.1103899258647516
    Molecular point group: c1
  Basis Set: 6-31G*
  Basis Set:
  Basis Set: 6-31G*
  Basis Set:
  @DF-RHF Final Energy:  -387.11362004945079
    Total Energy =                       -387.1136200494506738
  Basis Set: 6-31G*
  Basis Set:
  Basis Set: 6-31G*
  Basis Set:
  @DF-RHF Final Energy:  -387.11501496887644
    Total Energy =                       -387.1150149688764941
  Basis Set: 6-31G*
  Basis Set:
  Basis Set: 6-31G*
  Basis Set:
  @DF-RHF Final Energy:  -387.11523833511154
    Total Energy =                       -387.1152383351120534
  Basis Set: 6-31G*
  Basis Set:
  @DF-RHF Final Energy:  -387.11542690225139
    Total Energy =                       -387.1154269022516701
  @DF-RHF Final Energy:  -387.11546087109417
    Total Energy =                       -387.1154608710937737
  @DF-RHF Final Energy:  -387.11550160548848
    Total Energy =                       -387.1155016054889302
  @DF-RHF Final Energy:  -387.11547298033196
    Total Energy =                       -387.1154729803319015
  Basis Set: 6-31G*
  Basis Set:
  @DF-RHF Final Energy:  -387.11552038861572
    Total Energy =                       -387.1155203886158915
  Basis Set: 6-31G*
  Basis Set:
  Basis Set: 6-31G*
  Basis Set:
  @DF-RHF Final Energy:  -387.11552236381340
    Total Energy =                       -387.1155223638140797
  Basis Set: 6-31G*
  Basis Set:
  Basis Set: 6-31G*
  Basis Set:
  @DF-RHF Final Energy:  -387.11552440147329
    Total Energy =                       -387.1155244014731807
  Basis Set: 6-31G*
  Basis Set:
  Charge       = 0
  Multiplicity = 1
  Basis Set: 6-31G*
  Basis Set:

    Orbital Energies (a.u.)
    -----------------------

    Doubly Occupied:

       1A    -20.563321     2A    -11.327062     3A    -11.236094
       4A    -11.234862     5A    -11.222910     6A    -11.214431
       7A    -11.213520     8A    -11.212917     9A    -11.203187
      10A     -1.402799    11A     -1.099965    12A     -1.064740
      13A     -1.007468    14A     -0.942209    15A     -0.878370
      16A     -0.818168    17A     -0.786289    18A     -0.769951
      19A     -0.667078    20A     -0.657809    21A     -0.632752
      22A     -0.618819    23A     -0.602166    24A     -0.596029
      25A     -0.564946    26A     -0.547491    27A     -0.536047
      28A     -0.522833    29A     -0.511374    30A     -0.499087
      31A     -0.474703    32A     -0.473026    33A     -0.459174
      34A     -0.451124    35A     -0.441767    36A     -0.409021

  @DF-RHF Final Energy:  -387.11552446595630

   => Energetics <=

    Nuclear Repulsion Energy =            456.1039919739085349
    One-Electron Energy =               -1428.7120204594853021
    Two-Electron Energy =                 585.4925040196196733
    DFT Exchange-Correlation Energy =       0.0000000000000000
    Empirical Dispersion Energy =           0.0000000000000000
    PCM Polarization Energy =               0.0000000000000000
    EFP Energy =                            0.0000000000000000
    Total Energy =                       -387.1155244659571508
    Molecular point group: c1
  Basis Set: 6-31G*
  Basis Set:

  -Total Gradient:
     Atom            X                  Y                   Z
    ------   -----------------  -----------------  -----------------
       1        0.000003215503     0.000000540046    -0.000007878220
       2       -0.000001566619     0.000011079032     0.000007192965
       3        0.000662417828    -0.001388379072     0.004699552873
       4       -0.000013039226    -0.000004029913    -0.000006734931
       5       -0.002062900491     0.000851600915    -0.006723083667
       6        0.000008609003     0.000000213530    -0.000007965180
       7        0.000000835351    -0.000008704458     0.000019329476
       8        0.006002004302     0.005296391772     0.001579551733
       9       -0.000005708605     0.000002549424    -0.000006183490
      10        0.000003178822     0.000018153186    -0.000004134082
      11        0.000028892518     0.000033051238    -0.000018256418
      12       -0.004594971875    -0.004788679306     0.000460242145
      13       -0.000012383363     0.000002986883    -0.000013860666
      14       -0.000020778720    -0.000014643746     0.000018108509
      15        0.000004827032    -0.000003287169     0.000010100034
      16       -0.000008283358    -0.000008461477    -0.000004239331
      17        0.000002867071     0.000007255458    -0.000012194553
      18       -0.000005841601     0.000005551868     0.000006605064
      19        0.000002799877    -0.000016580922    -0.000003324624
      20        0.000006116365    -0.000000692103     0.000009061818
      21        0.000001781564    -0.000000665661     0.000002739876
      22       -0.000001464060     0.000005010681    -0.000005544522
      23       -0.000006349365    -0.000001851854     0.000003435462
      24        0.000000571547     0.000000244160     0.000001557167
      25        0.000005170502     0.000001347480    -0.000004077435

  **** Optimization is complete! (in 12 steps) ****
    Final optimized geometry and variables:
    Molecular point group: c1

    Geometry (in Angstrom), charge = 0, multiplicity = 1:

    H           -2.084231956700     2.282200705589    -1.390807193238
    C           -1.347791452679     2.187388943626    -0.583105518534
    C           -1.830467934030     1.436805306538     0.631629744712
    O           -0.265275376146     2.663627666785    -0.705779027997
    C           -2.355639791613     0.030535996528     0.293843159056
    H           -1.037024578576     1.412130583249     1.366103420584
    H           -2.653823585625     2.013377781536     1.051222610539
    C           -1.310357117486    -1.016403246055    -0.159670690204
    H           -2.846042465553    -0.336554767864     1.190233190347
    H           -3.137216226202     0.109301669647    -0.457310010378
    C            0.122733142207    -0.832100200807     0.344749119396
    H           -1.326246173553    -1.105224507316    -1.243888574759
    H           -1.666020869391    -1.985442043766     0.184107380260
    C            1.035078794944    -1.981435801445    -0.093301808656
    H            0.524035675755     0.110699086544    -0.007623339612
    H            0.118183227426    -0.780047183542     1.432726703803
    C            2.469994381454    -1.891792101966     0.438985511792
    H            1.059688289871    -2.026380808714    -1.180996604474
    H            0.600106199901    -2.921687896102     0.239781459900
    C            3.279293136482    -0.716181799929    -0.111843406153
    H            2.985903717077    -2.816660501463     0.192480229931
    H            2.447251607407    -1.838608440594     1.525711492815
    H            3.313562375952    -0.741953707751    -1.197642965425
    H            2.861576645789     0.240627754433     0.181865451268
    H            4.302148109984    -0.750599715263     0.250758786148

  Mulliken Charges: (a.u.)
   Center  Symbol    Alpha    Beta     Spin     Total
       1     H     0.43108  0.43108  0.00000  0.13783
       2     C     2.82966  2.82966  0.00000  0.34067
       3     C     3.21240  3.21240  0.00000 -0.42481
       4     O     4.23964  4.23964  0.00000 -0.47928
       5     C     3.16638  3.16638  0.00000 -0.33276
       6     H     0.39693  0.39693  0.00000  0.20613
       7     H     0.40703  0.40703  0.00000  0.18594
       8     C     3.15830  3.15830  0.00000 -0.31659
       9     H     0.41249  0.41249  0.00000  0.17502
      10     H     0.41665  0.41665  0.00000  0.16669
      11     C     3.16482  3.16482  0.00000 -0.32963
      12     H     0.41955  0.41955  0.00000  0.16091
      13     H     0.41886  0.41886  0.00000  0.16228
      14     C     3.15237  3.15237  0.00000 -0.30475
      15     H     0.40529  0.40529  0.00000  0.18942
      16     H     0.42463  0.42463  0.00000  0.15073
      17     C     3.15245  3.15245  0.00000 -0.30489
      18     H     0.42337  0.42337  0.00000  0.15326
      19     H     0.42345  0.42345  0.00000  0.15311
      20     C     3.24251  3.24251  0.00000 -0.48502
      21     H     0.42147  0.42147  0.00000  0.15705
      22     H     0.42405  0.42405  0.00000  0.15190
      23     H     0.42181  0.42181  0.00000  0.15637
      24     H     0.41477  0.41477  0.00000  0.17047
      25     H     0.42003  0.42003  0.00000  0.15994

   Total alpha = 36.00000, Total beta = 36.00000, Total charge = -0.00000
