  ==> Input File <==

--------------------------------------------------------------------------
set {
	reference rhf
	basis 6-31G*
}

set_num_threads( 1 )
memory 2 gb

molecule MOL {
0 1

O	 3.236203	 0.743362	 -0.966478
C	 2.843464	 0.164689	 -0.000222
C	 1.546494	 -0.624492	 -0.000609
C	 3.621242	 0.181142	 1.299757
C	 0.291004	 0.242674	 0.000989
H	 1.557904	 -1.283758	 -0.867573
H	 1.558622	 -1.285963	 0.864672
C	 -0.994322	 -0.586602	 0.000262
H	 0.309117	 0.896430	 -0.865270
H	 0.309661	 0.894078	 0.869017
C	 -2.259874	 0.272531	 0.000494
H	 -1.004862	 -1.240012	 -0.870939
H	 -1.005220	 -1.241071	 0.870675
C	 -3.549786	 -0.549746	 -0.000374
H	 -2.250389	 0.926680	 -0.869574
H	 -2.250838	 0.925513	 0.871430
C	 -4.809590	 0.315458	 -0.000369
H	 -3.560515	 -1.202009	 -0.871156
H	 -3.561123	 -1.202955	 0.869711
H	 -4.844746	 0.956611	 -0.876632
H	 -5.706986	 -0.295590	 -0.001609
H	 -4.845960	 0.954827	 0.877144
H	 3.885437	 -0.829778	 1.596169
H	 4.520739	 0.768704	 1.179301
H	 3.016769	 0.603138	 2.097357

	symmetry c1
}
set optking {
	frozen_dihedral = ("
		9 5 8 12,
		15 11 8 12,
		15 11 14 18,
		9 5 3 6
	")
}

ee = energy('scf')
oeprop('DIPOLE', 'QUADRUPOLE', 'MULLIKEN_CHARGES')
f=open( 'psi4out.xyz', 'w' )
f.write( "25  " )
f.write( str(ee) + "\n" )
f.write( MOL.save_string_xyz() )
f.close()
--------------------------------------------------------------------------

    Molecular point group: c1

    Geometry (in Angstrom), charge = 0, multiplicity = 1:

       Center              X                  Y                   Z               Mass
    ------------   -----------------  -----------------  -----------------  -----------------
           O          3.251458740428     0.718309313487    -1.005903933366    15.994914619560
           C          2.858719740428     0.139636313487    -0.039647933366    12.000000000000
           C          1.561749740428    -0.649544686513    -0.040034933366    12.000000000000
           C          3.636497740428     0.156089313487     1.260331066634    12.000000000000
           C          0.306259740428     0.217621313487    -0.038436933366    12.000000000000
           H          1.573159740428    -1.308810686513    -0.906998933366     1.007825032070
           H          1.573877740428    -1.311015686513     0.825246066634     1.007825032070
           C         -0.979066259572    -0.611654686513    -0.039163933366    12.000000000000
           H          0.324372740428     0.871377313487    -0.904695933366     1.007825032070
           H          0.324916740428     0.869025313487     0.829591066634     1.007825032070
           C         -2.244618259572     0.247478313487    -0.038931933366    12.000000000000
           H         -0.989606259572    -1.265064686513    -0.910364933366     1.007825032070
           H         -0.989964259572    -1.266123686513     0.831249066634     1.007825032070
           C         -3.534530259572    -0.574798686513    -0.039799933366    12.000000000000
           H         -2.235133259572     0.901627313487    -0.908999933366     1.007825032070
           H         -2.235582259572     0.900460313487     0.832004066634     1.007825032070
           C         -4.794334259572     0.290405313487    -0.039794933366    12.000000000000
           H         -3.545259259572    -1.227061686513    -0.910581933366     1.007825032070
           H         -3.545867259572    -1.228007686513     0.830285066634     1.007825032070
           H         -4.829490259572     0.931558313487    -0.916057933366     1.007825032070
           H         -5.691730259572    -0.320642686513    -0.041034933366     1.007825032070
           H         -4.830704259572     0.929774313487     0.837718066634     1.007825032070
           H          3.900692740428    -0.854830686513     1.556743066634     1.007825032070
           H          4.535994740428     0.743651313487     1.139875066634     1.007825032070
           H          3.032024740428     0.578085313487     2.057931066634     1.007825032070

  Charge       = 0
  Multiplicity = 1
  Basis Set: 6-31G*
  Basis Set:

    Orbital Energies (a.u.)
    -----------------------

    Doubly Occupied:

       1A    -20.548230     2A    -11.324803     3A    -11.229722
       4A    -11.228811     5A    -11.227348     6A    -11.222362
       7A    -11.218650     8A    -11.217871     9A    -11.210961
      10A     -1.393555    11A     -1.099222    12A     -1.059638
      13A     -1.013569    14A     -0.970455    15A     -0.894183
      16A     -0.819311    17A     -0.795500    18A     -0.731976
      19A     -0.666146    20A     -0.647230    21A     -0.637407
      22A     -0.611461    23A     -0.603393    24A     -0.586787
      25A     -0.568981    26A     -0.558027    27A     -0.542373
      28A     -0.539537    29A     -0.508268    30A     -0.499030
      31A     -0.489301    32A     -0.475039    33A     -0.468301
      34A     -0.466620    35A     -0.454307    36A     -0.395641

  @DF-RHF Final Energy:  -387.13361775034213

   => Energetics <=

    Nuclear Repulsion Energy =            438.1692988936590041
    One-Electron Energy =               -1392.7578735632207554
    Two-Electron Energy =                 567.4549569192181480
    DFT Exchange-Correlation Energy =       0.0000000000000000
    Empirical Dispersion Energy =           0.0000000000000000
    PCM Polarization Energy =               0.0000000000000000
    EFP Energy =                            0.0000000000000000
    Total Energy =                       -387.1336177503435465

  Mulliken Charges: (a.u.)
   Center  Symbol    Alpha    Beta     Spin     Total
       1     O     4.26096  4.26096  0.00000 -0.52193
       2     C     2.73637  2.73637  0.00000  0.52726
       3     C     3.20194  3.20194  0.00000 -0.40389
       4     C     3.29048  3.29048  0.00000 -0.58096
       5     C     3.15779  3.15779  0.00000 -0.31557
       6     H     0.40223  0.40223  0.00000  0.19553
       7     H     0.41811  0.41811  0.00000  0.16378
       8     C     3.15312  3.15312  0.00000 -0.30624
       9     H     0.40605  0.40605  0.00000  0.18791
      10     H     0.42017  0.42017  0.00000  0.15966
      11     C     3.15164  3.15164  0.00000 -0.30327
      12     H     0.42026  0.42026  0.00000  0.15947
      13     H     0.42306  0.42306  0.00000  0.15387
      14     C     3.15192  3.15192  0.00000 -0.30384
      15     H     0.42144  0.42144  0.00000  0.15713
      16     H     0.42355  0.42355  0.00000  0.15290
      17     C     3.23952  3.23952  0.00000 -0.47903
      18     H     0.42229  0.42229  0.00000  0.15542
      19     H     0.42319  0.42319  0.00000  0.15362
      20     H     0.42091  0.42091  0.00000  0.15819
      21     H     0.41878  0.41878  0.00000  0.16243
      22     H     0.42163  0.42163  0.00000  0.15674
      23     H     0.40830  0.40830  0.00000  0.18341
      24     H     0.39758  0.39758  0.00000  0.20485
      25     H     0.40871  0.40871  0.00000  0.18257

   Total alpha = 36.00000, Total beta = 36.00000, Total charge = -0.00000
