  ==> Input File <==

--------------------------------------------------------------------------
set {
	reference rhf
	basis 6-31G*
}

set_num_threads( 4 )
memory 2 gb

molecule MOL {
0 1

O	 2.832563	 1.403548	 0.449503
C	 2.797388	 0.236238	 0.692212
C	 1.500876	 -0.553653	 0.684066
C	 4.055636	 -0.538323	 1.026908
C	 0.268195	 0.278095	 0.342120
H	 1.616870	 -1.377155	 -0.019338
H	 1.390114	 -1.022463	 1.660975
C	 -1.017287	 -0.550939	 0.343432
H	 0.408954	 0.739566	 -0.630177
H	 0.181755	 1.094532	 1.052124
C	 -2.259874	 0.272531	 0.000494
H	 -0.922413	 -1.369882	 -0.368170
H	 -1.151450	 -1.012154	 1.320851
C	 -3.549786	 -0.549746	 -0.000374
H	 -2.127161	 0.733485	 -0.976710
H	 -2.356211	 1.090980	 0.711730
C	 -4.809590	 0.315458	 -0.000369
H	 -3.560515	 -1.202009	 -0.871156
H	 -3.561123	 -1.202955	 0.869711
H	 -4.844746	 0.956611	 -0.876632
H	 -5.706986	 -0.295590	 -0.001609
H	 -4.845960	 0.954827	 0.877144
H	 4.202294	 -1.347801	 0.317785
H	 4.909696	 0.124027	 1.000307
H	 3.974073	 -0.985135	 2.013488

	symmetry c1
}
set optking {
	frozen_dihedral = ("
		15 11 14 18
	")
}

ee = optimize('scf')
oeprop('DIPOLE', 'QUADRUPOLE', 'MULLIKEN_CHARGES')
f=open( 'psi4out.xyz', 'w' )
f.write( "25  " )
f.write( str(ee) + "\n" )
f.write( MOL.save_string_xyz() )
f.close()
--------------------------------------------------------------------------

    Molecular point group: c1
  Charge       = 0
  Multiplicity = 1
  Basis Set: 6-31G*
  Basis Set:
  @DF-RHF Final Energy:  -387.13578481430028
    Total Energy =                       -387.1357848143004503
    Molecular point group: c1
  Basis Set: 6-31G*
  Basis Set:
  Basis Set: 6-31G*
  Basis Set:
  @DF-RHF Final Energy:  -387.13584973565213
    Total Energy =                       -387.1358497356524140
  Basis Set: 6-31G*
  Basis Set:
  Basis Set: 6-31G*
  Basis Set:
  @DF-RHF Final Energy:  -387.13589551984461
    Total Energy =                       -387.1358955198443255
  Basis Set: 6-31G*
  Basis Set:
  Basis Set: 6-31G*
  Basis Set:
  @DF-RHF Final Energy:  -387.13589019409153
    Total Energy =                       -387.1358901940916439
  Basis Set: 6-31G*
  Basis Set:
  Basis Set: 6-31G*
  Basis Set:
  @DF-RHF Final Energy:  -387.13586665007352
    Total Energy =                       -387.1358666500738082
  Basis Set: 6-31G*
  Basis Set:
  Basis Set: 6-31G*
  Basis Set:
  @DF-RHF Final Energy:  -387.13590034391621
    Total Energy =                       -387.1359003439164326
  Basis Set: 6-31G*
  Basis Set:
  Charge       = 0
  Multiplicity = 1
  Basis Set: 6-31G*
  Basis Set:

    Orbital Energies (a.u.)
    -----------------------

    Doubly Occupied:

       1A    -20.550455     2A    -11.326290     3A    -11.231864
       4A    -11.228338     5A    -11.216995     6A    -11.216403
       7A    -11.215419     8A    -11.213577     9A    -11.208155
      10A     -1.395757    11A     -1.093475    12A     -1.056141
      13A     -1.014436    14A     -0.969176    15A     -0.890442
      16A     -0.813997    17A     -0.790540    18A     -0.729881
      19A     -0.661565    20A     -0.651916    21A     -0.631999
      22A     -0.624036    23A     -0.596406    24A     -0.584334
      25A     -0.566656    26A     -0.559993    27A     -0.539132
      28A     -0.526084    29A     -0.513279    30A     -0.489451
      31A     -0.487653    32A     -0.473807    33A     -0.463291
      34A     -0.462464    35A     -0.450168    36A     -0.399334

  @DF-RHF Final Energy:  -387.13590081317005

   => Energetics <=

    Nuclear Repulsion Energy =            438.3529520021784833
    One-Electron Energy =               -1393.2918882222329557
    Two-Electron Energy =                 567.8030354068841916
    DFT Exchange-Correlation Energy =       0.0000000000000000
    Empirical Dispersion Energy =           0.0000000000000000
    PCM Polarization Energy =               0.0000000000000000
    EFP Energy =                            0.0000000000000000
    Total Energy =                       -387.1359008131703376
    Molecular point group: c1
  Basis Set: 6-31G*
  Basis Set:

  -Total Gradient:
     Atom            X                  Y                   Z
    ------   -----------------  -----------------  -----------------
       1        0.000001900122    -0.000005253609    -0.000019161465
       2       -0.000006568365     0.000012640280     0.000052599252
       3        0.000003181872    -0.000008736928    -0.000029089166
       4        0.000001110402    -0.000004264065    -0.000017726652
       5       -0.000003787932     0.000012404062     0.000033206784
       6       -0.000001417406    -0.000006410750     0.000002227565
       7        0.000002956973     0.000006037037     0.000001014476
       8       -0.000003320093     0.000009940371    -0.000062838081
       9       -0.000005458313    -0.000000930090     0.000000646938
      10        0.000001312140     0.000000182523     0.000000390932
      11       -0.001943173973     0.003006558288     0.000703772352
      12        0.000008179408    -0.000013825881    -0.000000503016
      13       -0.000020867328     0.000019591783    -0.000010362648
      14        0.001751915159    -0.002792165975     0.001559314903
      15        0.001390782407    -0.002084488069    -0.000797099698
      16        0.000016006453     0.000023194096     0.000006879548
      17        0.000013980636    -0.000026482138    -0.000034038239
      18       -0.001206244073     0.001880563050    -0.001390490317
      19       -0.000015036737    -0.000020987406     0.000009334241
      20       -0.000006672487     0.000004074528    -0.000005363629
      21        0.000000021527    -0.000000200478     0.000002183626
      22        0.000021723202    -0.000011207272    -0.000003391486
      23        0.000002542880    -0.000001863142     0.000000110214
      24       -0.000000486570     0.000000179135    -0.000000621111
      25       -0.000002579912     0.000001450649    -0.000000995323

  **** Optimization is complete! (in 7 steps) ****
    Final optimized geometry and variables:
    Molecular point group: c1

    Geometry (in Angstrom), charge = 0, multiplicity = 1:

    O            2.863126831614     1.358102028308     0.032578303394
    C            2.826542123363     0.192904967920     0.285017048468
    C            1.527480112385    -0.592756814783     0.295836503418
    C            4.085548508763    -0.583231485549     0.613154459613
    C            0.293985232855     0.240543262466    -0.039347163431
    H            1.633598482032    -1.421522155377    -0.402958494366
    H            1.425294255538    -1.054391164476     1.277069094898
    C           -0.993764395956    -0.584630717534    -0.021568280555
    H            0.427246831254     0.696289186099    -1.015374917885
    H            0.216323246403     1.061245189622     0.666855499406
    C           -2.239143349254     0.242467901735    -0.349941428722
    H           -0.910079762290    -1.404755749228    -0.733532615534
    H           -1.117582533576    -1.044501645260     0.957721333898
    C           -3.522847572280    -0.591992863901    -0.381789512850
    H           -2.095878192758     0.712007581753    -1.321138270382
    H           -2.339216456061     1.045405553883     0.377442078774
    C           -4.787317955941     0.266920071613    -0.427966814511
    H           -3.508693157789    -1.234611591149    -1.259229932284
    H           -3.561336567951    -1.244004457277     0.487760148077
    H           -4.784322992619     0.921710453108    -1.294977177305
    H           -5.680135767942    -0.348518909347    -0.482071153298
    H           -4.869017527027     0.892297893762     0.456451187459
    H            4.222316025557    -1.398817962325    -0.090928389531
    H            4.941488731167     0.075966718437     0.572601274500
    H            4.012535976542    -1.021906201051     1.604052439620

  Mulliken Charges: (a.u.)
   Center  Symbol    Alpha    Beta     Spin     Total
       1     O     4.26116  4.26116  0.00000 -0.52233
       2     C     2.73570  2.73570  0.00000  0.52859
       3     C     3.21083  3.21083  0.00000 -0.42165
       4     C     3.28663  3.28663  0.00000 -0.57325
       5     C     3.14807  3.14807  0.00000 -0.29614
       6     H     0.40998  0.40998  0.00000  0.18004
       7     H     0.41002  0.41002  0.00000  0.17995
       8     C     3.15432  3.15432  0.00000 -0.30865
       9     H     0.41219  0.41219  0.00000  0.17562
      10     H     0.41227  0.41227  0.00000  0.17546
      11     C     3.15092  3.15092  0.00000 -0.30183
      12     H     0.42495  0.42495  0.00000  0.15009
      13     H     0.42494  0.42494  0.00000  0.15012
      14     C     3.15176  3.15176  0.00000 -0.30353
      15     H     0.42185  0.42185  0.00000  0.15630
      16     H     0.42213  0.42213  0.00000  0.15573
      17     C     3.23946  3.23946  0.00000 -0.47893
      18     H     0.42278  0.42278  0.00000  0.15445
      19     H     0.42331  0.42331  0.00000  0.15337
      20     H     0.42137  0.42137  0.00000  0.15725
      21     H     0.41984  0.41984  0.00000  0.16032
      22     H     0.42160  0.42160  0.00000  0.15680
      23     H     0.40874  0.40874  0.00000  0.18252
      24     H     0.39646  0.39646  0.00000  0.20707
      25     H     0.40870  0.40870  0.00000  0.18260

   Total alpha = 36.00000, Total beta = 36.00000, Total charge = -0.00000
