  ==> Input File <==

--------------------------------------------------------------------------
set {
	reference rhf
	basis 6-31G*
}

set_num_threads( 4 )
memory 2 gb

molecule MOL {
0 1

O	 -2.821601	 1.309235	 -0.001213
C	 -2.668563	 0.129746	 -0.000350
C	 -3.801572	 -0.864014	 -0.000442
O	 -1.481751	 -0.454642	 0.000584
H	 -4.417280	 -0.689587	 -0.874708
H	 -3.443784	 -1.883046	 -0.000565
H	 -4.417179	 -0.689832	 0.873954
C	 -0.334255	 0.388708	 0.000906
C	 0.891947	 -0.504646	 0.000751
H	 -0.365390	 1.025305	 -0.873475
H	 -0.365484	 1.024911	 0.875569
C	 1.234583	 -1.012100	 -1.401234
H	 0.714910	 -1.344040	 0.667472
H	 1.730929	 0.050523	 0.411063
C	 2.468668	 -1.915923	 -1.422764
H	 0.384827	 -1.557113	 -1.808617
H	 1.400025	 -0.164828	 -2.064439
C	 2.810057	 -2.423823	 -2.822891
H	 2.304907	 -2.763318	 -0.760813
H	 3.319320	 -1.372106	 -1.018134
H	 1.990508	 -3.001049	 -3.241416
H	 3.688420	 -3.061333	 -2.805685
H	 3.012872	 -1.599427	 -3.500570

	symmetry c1
}
set optking {
	frozen_dihedral = ("
		13 9 8 10
	")
}

ee = optimize('scf')
oeprop('DIPOLE', 'QUADRUPOLE', 'MULLIKEN_CHARGES')
f=open( 'psi4out.xyz', 'w' )
f.write( "23  " )
f.write( str(ee) + "\n" )
f.write( MOL.save_string_xyz() )
f.close()
--------------------------------------------------------------------------

    Molecular point group: c1
  Charge       = 0
  Multiplicity = 1
  Basis Set: 6-31G*
  Basis Set:
  @DF-RHF Final Energy:  -422.97805095800783
    Total Energy =                       -422.9780509580075432
    Molecular point group: c1
  Basis Set: 6-31G*
  Basis Set:
  Basis Set: 6-31G*
  Basis Set:
  @DF-RHF Final Energy:  -422.97824932628009
    Total Energy =                       -422.9782493262799790
  Basis Set: 6-31G*
  Basis Set:
  Basis Set: 6-31G*
  Basis Set:
  @DF-RHF Final Energy:  -422.97823556612815
    Total Energy =                       -422.9782355661287738
  Basis Set: 6-31G*
  Basis Set:
  Basis Set: 6-31G*
  Basis Set:
  @DF-RHF Final Energy:  -422.97831553699785
    Total Energy =                       -422.9783155369975702
  Basis Set: 6-31G*
  Basis Set:
  Basis Set: 6-31G*
  Basis Set:
  @DF-RHF Final Energy:  -422.97834547922662
    Total Energy =                       -422.9783454792267321
  Basis Set: 6-31G*
  Basis Set:
  Basis Set: 6-31G*
  Basis Set:
  @DF-RHF Final Energy:  -422.97835084232884
    Total Energy =                       -422.9783508423290641
  Basis Set: 6-31G*
  Basis Set:
  Charge       = 0
  Multiplicity = 1
  Basis Set: 6-31G*
  Basis Set:

    Orbital Energies (a.u.)
    -----------------------

    Doubly Occupied:

       1A    -20.602970     2A    -20.540578     3A    -11.374144
       4A    -11.282365     5A    -11.232665     6A    -11.225017
       7A    -11.219823     8A    -11.219150     9A    -11.211720
      10A     -1.467632    11A     -1.360524    12A     -1.092000
      13A     -1.041236    14A     -1.002574    15A     -0.930463
      16A     -0.842363    17A     -0.799498    18A     -0.778887
      19A     -0.687927    20A     -0.682159    21A     -0.666120
      22A     -0.643795    23A     -0.607928    24A     -0.583964
      25A     -0.577412    26A     -0.574993    27A     -0.558657
      28A     -0.533172    29A     -0.527778    30A     -0.506772
      31A     -0.497363    32A     -0.473235    33A     -0.469998
      34A     -0.461581    35A     -0.445953    36A     -0.436776

  @DF-RHF Final Energy:  -422.97835104492111

   => Energetics <=

    Nuclear Repulsion Energy =            457.0943324545178825
    One-Electron Energy =               -1481.8269826301682315
    Two-Electron Energy =                 601.7542991307290094
    DFT Exchange-Correlation Energy =       0.0000000000000000
    Empirical Dispersion Energy =           0.0000000000000000
    PCM Polarization Energy =               0.0000000000000000
    EFP Energy =                            0.0000000000000000
    Total Energy =                       -422.9783510449213964
    Molecular point group: c1
  Basis Set: 6-31G*
  Basis Set:

  -Total Gradient:
     Atom            X                  Y                   Z
    ------   -----------------  -----------------  -----------------
       1       -0.000008862311    -0.000009518311    -0.000047800925
       2       -0.000023215287     0.000034210928     0.000167992077
       3        0.000003019633     0.000000327387    -0.000060343804
       4        0.000067896149     0.000059338238    -0.000043342244
       5       -0.000013064939    -0.000011309451    -0.000003178199
       6        0.000001408636     0.000001130636    -0.000002908191
       7        0.000012208622     0.000010974791    -0.000002521152
       8        0.002096548968     0.002924464569     0.001720577791
       9        0.001247849765     0.001646080796     0.002861122702
      10       -0.001969249673    -0.002710013142    -0.001830354171
      11       -0.000073120539     0.000026850074     0.000033521810
      12        0.000027116073    -0.000052365830     0.000048477781
      13       -0.001422258733    -0.001916616948    -0.002825826251
      14        0.000013589725    -0.000006347297    -0.000012738185
      15        0.000033813623     0.000009271924    -0.000035520236
      16       -0.000011845803     0.000018118558    -0.000014998675
      17        0.000003827555     0.000009828227     0.000051404920
      18       -0.000002827119    -0.000047007983     0.000011078876
      19        0.000011686050     0.000010274908     0.000006562344
      20        0.000007927653     0.000009512984    -0.000013761777
      21       -0.000004862043     0.000005244657    -0.000011640975
      22       -0.000006994214    -0.000014680792    -0.000007285994
      23        0.000009408216     0.000002231079     0.000011482476

  **** Optimization is complete! (in 7 steps) ****
    Final optimized geometry and variables:
    Molecular point group: c1

    Geometry (in Angstrom), charge = 0, multiplicity = 1:

    O           -2.403075981694     1.884704137173     0.635380839516
    C           -2.229878629741     0.707907836934     0.624530836620
    C           -3.346479801000    -0.303965471750     0.593978028773
    O           -1.033932274915     0.143425615607     0.638428106356
    H           -3.951545419893    -0.128003235257    -0.287386387508
    H           -2.972379327617    -1.317127508272     0.586402940807
    H           -3.978146697718    -0.151246300492     1.460890972848
    C            0.102693649856     1.008333069984     0.663427989935
    C            1.342090885409     0.128077987362     0.628102149467
    H            0.043549441074     1.654454824342    -0.201833906335
    H            0.056245716880     1.616012216089     1.556217693524
    C            1.667250346016    -0.399086517043    -0.772042624684
    H            1.178049115628    -0.715735209621     1.291590772290
    H            2.185453962546     0.694342611270     1.014507160969
    C            2.877646751302    -1.333703935642    -0.793438359541
    H            0.799438301743    -0.922317712982    -1.166150241573
    H            1.850593167258     0.441519411362    -1.439262904565
    C            3.201802479537    -1.856966201296    -2.192177902989
    H            2.694599245144    -2.174138047234    -0.127431749078
    H            3.744383297255    -0.811073887443    -0.393857254871
    H            2.364693382252    -2.411505552315    -2.606609897113
    H            4.061319356790    -2.519745009661    -2.174557964874
    H            3.426879508280    -1.041434373205    -2.873595383553

  Mulliken Charges: (a.u.)
   Center  Symbol    Alpha    Beta     Spin     Total
       1     O     4.28422  4.28422  0.00000 -0.56843
       2     C     2.61482  2.61482  0.00000  0.77035
       3     C     3.28760  3.28760  0.00000 -0.57521
       4     O     4.31144  4.31144  0.00000 -0.62289
       5     H     0.39750  0.39750  0.00000  0.20501
       6     H     0.40032  0.40032  0.00000  0.19935
       7     H     0.39742  0.39742  0.00000  0.20517
       8     C     3.00424  3.00424  0.00000 -0.00848
       9     C     3.16614  3.16614  0.00000 -0.33228
      10     H     0.40913  0.40913  0.00000  0.18174
      11     H     0.40725  0.40725  0.00000  0.18549
      12     C     3.15571  3.15571  0.00000 -0.31142
      13     H     0.41128  0.41128  0.00000  0.17744
      14     H     0.41709  0.41709  0.00000  0.16583
      15     C     3.15233  3.15233  0.00000 -0.30466
      16     H     0.41542  0.41542  0.00000  0.16917
      17     H     0.42314  0.42314  0.00000  0.15371
      18     C     3.23942  3.23942  0.00000 -0.47884
      19     H     0.42179  0.42179  0.00000  0.15643
      20     H     0.42295  0.42295  0.00000  0.15411
      21     H     0.42102  0.42102  0.00000  0.15796
      22     H     0.41857  0.41857  0.00000  0.16286
      23     H     0.42120  0.42120  0.00000  0.15760

   Total alpha = 36.00000, Total beta = 36.00000, Total charge = -0.00000
