                              Psi4 1.0.54 Driver

  ==> Input File <==

--------------------------------------------------------------------------
set {
	reference rhf
	basis cc-pvtz
}

set_num_threads( 4 )
memory 2 gb

molecule MOL {
0 1

H	 1.272699	 -1.440161	 -0.442549
C	 0.682315	 -0.528324	 -0.549558
N	 -0.537714	 -0.645117	 0.000000
O	 1.112380	 0.436066	 -1.098843
C	 -1.522613	 0.412524	 0.000000
H	 -0.763820	 -1.509437	 0.426391
H	 -2.150256	 0.356137	 -0.880771
H	 -1.005621	 1.357208	 0.000000
H	 -2.150256	 0.356137	 0.880771

	symmetry c1
}
set optking {
	frozen_dihedral = ("
		6 3 5 7
	")
}

ee,wfn = optimize('scf', return_wfn=True)
oeprop( wfn, 'DIPOLE', 'QUADRUPOLE', 'MULLIKEN_CHARGES')
f=open( 'psi4out.xyz', 'w' )
f.write( "9  " )
f.write( str(ee) + "\n" )
f.write( MOL.save_string_xyz() )
f.close()
--------------------------------------------------------------------------

    Molecular point group: c1
  Charge       = 0
  Multiplicity = 1
  Basis Set: CC-PVTZ
  Basis Set:
  @DF-RHF Final Energy:  -208.04340231619202
    Total Energy =                       -208.0434023161921004
    Molecular point group: c1
  Basis Set: CC-PVTZ
  Basis Set:
  Basis Set: CC-PVTZ
  Basis Set:
  @DF-RHF Final Energy:  -208.04357783760076
    Total Energy =                       -208.0435778376007931
  Basis Set: CC-PVTZ
  Basis Set:
  Basis Set: CC-PVTZ
  Basis Set:
  @DF-RHF Final Energy:  -208.04358752910272
    Total Energy =                       -208.0435875291026662
  Basis Set: CC-PVTZ
  Basis Set:
  Basis Set: CC-PVTZ
  Basis Set:
  @DF-RHF Final Energy:  -208.04362811672564
    Total Energy =                       -208.0436281167256425
  Basis Set: CC-PVTZ
  Basis Set:
  @DF-RHF Final Energy:  -208.04364033313266
    Total Energy =                       -208.0436403331326858
  @DF-RHF Final Energy:  -208.04366442966892
    Total Energy =                       -208.0436644296688655
  Basis Set: CC-PVTZ
  Basis Set:
  @DF-RHF Final Energy:  -208.04366864729354
    Total Energy =                       -208.0436686472934582
  Basis Set: CC-PVTZ
  Basis Set:
  Basis Set: CC-PVTZ
  Basis Set:
  @DF-RHF Final Energy:  -208.04367163928430
    Total Energy =                       -208.0436716392843266
  Basis Set: CC-PVTZ
  Basis Set:
  Basis Set: CC-PVTZ
  Basis Set:
  @DF-RHF Final Energy:  -208.04367369974489
    Total Energy =                       -208.0436736997447724
  Basis Set: CC-PVTZ
  Basis Set:
  Charge       = 0
  Multiplicity = 1
  Basis Set: CC-PVTZ
  Basis Set:

    Orbital Energies (a.u.)
    -----------------------

    Doubly Occupied:

       1A    -20.516736     2A    -15.584619     3A    -11.336667
       4A    -11.259992     5A     -1.394066     6A     -1.239577
       7A     -0.969919     8A     -0.808724     9A     -0.748882
      10A     -0.646167    11A     -0.629821    12A     -0.596343
      13A     -0.557939    14A     -0.538915    15A     -0.428567
      16A     -0.396593

  @DF-RHF Final Energy:  -208.04367407014931

   => Energetics <=

    Nuclear Repulsion Energy =            122.8439475182069316
    One-Electron Energy =                -526.4681910813674222
    Two-Electron Energy =                 195.5805694930112963
    DFT Exchange-Correlation Energy =       0.0000000000000000
    Empirical Dispersion Energy =           0.0000000000000000
    PCM Polarization Energy =               0.0000000000000000
    EFP Energy =                            0.0000000000000000
    Total Energy =                       -208.0436740701491658
    Molecular point group: c1
  Basis Set: CC-PVTZ
  Basis Set:

  -Total Gradient:
     Atom            X                  Y                   Z
    ------   -----------------  -----------------  -----------------
       1       -0.000001129394    -0.000001641532    -0.000002964586
       2        0.000021563583     0.000020995214     0.000045830894
       3       -0.000037470055    -0.000028666099    -0.000055628830
       4       -0.000000026724     0.000000329060     0.000002423481
       5        0.000030712945     0.000021190119     0.000006967385
       6        0.000001607915    -0.000001627188    -0.000005345868
       7       -0.000024134632    -0.000021693536     0.000015597357
       8        0.000001009853     0.000001100029    -0.000015480205
       9        0.000007866510     0.000010013935     0.000008600370

  **** Optimization is complete! (in 10 steps) ****
    Final optimized geometry and variables:
    Molecular point group: c1

    Geometry (in Angstrom), charge = 0, multiplicity = 1:

    H            1.378006072042    -1.346428890157    -0.060581975453
    C            0.761984349006    -0.450479118940    -0.158273316220
    N           -0.418597111833    -0.563529752409     0.471444039265
    O            1.133896498930     0.509115196106    -0.756097046795
    C           -1.423228546990     0.475539265146     0.437996472046
    H           -0.646725469668    -1.441059391176     0.868040984185
    H           -2.012421865447     0.440043513008    -0.470948287905
    H           -0.943476127681     1.439790043236     0.495057169755
    H           -2.081686619072     0.359120006026     1.287216619413

  Mulliken Charges: (a.u.)
   Center  Symbol    Alpha    Beta     Spin     Total
       1     H     0.46385  0.46385  0.00000  0.07230
       2     C     2.88041  2.88041  0.00000  0.23918
       3     N     3.60633  3.60633  0.00000 -0.21265
       4     O     4.21408  4.21408  0.00000 -0.42816
       5     C     3.07750  3.07750  0.00000 -0.15500
       6     H     0.41033  0.41033  0.00000  0.17933
       7     H     0.45475  0.45475  0.00000  0.09051
       8     H     0.43877  0.43877  0.00000  0.12246
       9     H     0.45398  0.45398  0.00000  0.09204

   Total alpha = 16.00000, Total beta = 16.00000, Total charge =  0.00000

*** Psi4 exiting successfully. Buy a developer a beer!
