  ==> Input File <==

--------------------------------------------------------------------------
set {
	reference rhf
	basis 6-31G*
}

set_num_threads( 4 )
memory 2 gb

molecule MOL {
0 1

H	 2.142014	 2.207914	 1.655362
O	 3.005385	 1.977295	 1.344756
C	 3.262118	 0.623821	 1.620892
C	 2.480133	 -0.331147	 0.725759
H	 4.324010	 0.487220	 1.461521
H	 3.061771	 0.404068	 2.668913
C	 0.962370	 -0.252421	 0.907602
H	 2.735102	 -0.120079	 -0.309523
H	 2.817357	 -1.344938	 0.935220
C	 0.209203	 -1.260529	 0.035090
H	 0.626241	 0.753549	 0.672213
H	 0.713394	 -0.429576	 1.954009
C	 -1.309753	 -1.282496	 0.241564
H	 0.427100	 -1.060451	 -1.012448
H	 0.598948	 -2.255288	 0.240646
C	 -2.037799	 -0.007733	 -0.193645
H	 -1.718304	 -2.122606	 -0.316216
H	 -1.527123	 -1.482090	 1.289777
C	 -3.489788	 0.042957	 0.286558
H	 -2.017067	 0.064384	 -1.280144
H	 -1.513726	 0.868678	 0.179924
C	 -4.216917	 1.317354	 -0.141063
H	 -4.025645	 -0.823308	 -0.095450
H	 -3.513059	 -0.038752	 1.371301
H	 -4.239342	 1.411634	 -1.223113
H	 -5.243387	 1.322503	 0.212445
H	 -3.726170	 2.201406	 0.256408

	symmetry c1
}
set optking {
	frozen_dihedral = ("
		10 13 16 20
	")
}

ee = optimize('scf')
oeprop('DIPOLE', 'QUADRUPOLE', 'MULLIKEN_CHARGES')
f=open( 'psi4out.xyz', 'w' )
f.write( "27  " )
f.write( str(ee) + "\n" )
f.write( MOL.save_string_xyz() )
f.close()
--------------------------------------------------------------------------

    Molecular point group: c1
  Charge       = 0
  Multiplicity = 1
  Basis Set: 6-31G*
  Basis Set:
  @DF-RHF Final Energy:  -388.28085264151156
    Total Energy =                       -388.2808526415117285
    Molecular point group: c1
  Basis Set: 6-31G*
  Basis Set:
  Basis Set: 6-31G*
  Basis Set:
  @DF-RHF Final Energy:  -388.28086045372663
    Total Energy =                       -388.2808604537268593
  Basis Set: 6-31G*
  Basis Set:
  Basis Set: 6-31G*
  Basis Set:
  @DF-RHF Final Energy:  -388.28104100907478
    Total Energy =                       -388.2810410090743289
  Basis Set: 6-31G*
  Basis Set:
  Basis Set: 6-31G*
  Basis Set:
  @DF-RHF Final Energy:  -388.28106207070897
    Total Energy =                       -388.2810620707087992
  Basis Set: 6-31G*
  Basis Set:
  Basis Set: 6-31G*
  Basis Set:
  @DF-RHF Final Energy:  -388.28106628785946
    Total Energy =                       -388.2810662878596304
  Basis Set: 6-31G*
  Basis Set:
  Basis Set: 6-31G*
  Basis Set:
  @DF-RHF Final Energy:  -388.28107114252936
    Total Energy =                       -388.2810711425299814
  Basis Set: 6-31G*
  Basis Set:
  Charge       = 0
  Multiplicity = 1
  Basis Set: 6-31G*
  Basis Set:

    Orbital Energies (a.u.)
    -----------------------

    Doubly Occupied:

       1A    -20.552456     2A    -11.267177     3A    -11.219997
       4A    -11.217353     5A    -11.216005     6A    -11.215683
       7A    -11.215330     8A    -11.214132     9A    -11.209283
      10A     -1.359198    11A     -1.095026    12A     -1.061605
      13A     -1.011405    14A     -0.948670    15A     -0.887651
      16A     -0.820078    17A     -0.799994    18A     -0.780130
      19A     -0.694005    20A     -0.648224    21A     -0.643066
      22A     -0.613939    23A     -0.599547    24A     -0.582361
      25A     -0.580681    26A     -0.552554    27A     -0.543404
      28A     -0.529320    29A     -0.505401    30A     -0.492953
      31A     -0.485815    32A     -0.475793    33A     -0.468645
      34A     -0.460911    35A     -0.451779    36A     -0.441356
      37A     -0.423297

  @DF-RHF Final Energy:  -388.28107106693068

   => Energetics <=

    Nuclear Repulsion Energy =            459.9771260242000039
    One-Electron Energy =               -1437.9479435028888474
    Two-Electron Energy =                 589.6897464117583922
    DFT Exchange-Correlation Energy =       0.0000000000000000
    Empirical Dispersion Energy =           0.0000000000000000
    PCM Polarization Energy =               0.0000000000000000
    EFP Energy =                            0.0000000000000000
    Total Energy =                       -388.2810710669303944
    Molecular point group: c1
  Basis Set: 6-31G*
  Basis Set:

  -Total Gradient:
     Atom            X                  Y                   Z
    ------   -----------------  -----------------  -----------------
       1       -0.000014852036     0.000005902592    -0.000003838352
       2       -0.000024382901    -0.000001281280     0.000014303102
       3        0.000026874839     0.000006387422    -0.000049767003
       4        0.000004884353    -0.000011588456     0.000020665655
       5        0.000003204576    -0.000007476224    -0.000001929143
       6       -0.000004254611    -0.000003735037    -0.000006396833
       7       -0.000001888066     0.000010417336     0.000001094116
       8        0.000016394389    -0.000002025673     0.000005178285
       9        0.000001627312    -0.000000908813     0.000010137787
      10        0.000233700235     0.000754631900     0.001598021243
      11        0.000007255999     0.000014077290     0.000018605711
      12        0.000001963451    -0.000012234422    -0.000001663772
      13       -0.000818157152    -0.001328892766    -0.002264794428
      14       -0.000002241898     0.000005281651     0.000006638322
      15       -0.000020858170    -0.000014086109     0.000000173899
      16        0.002629556413     0.001818848139     0.000672523372
      17        0.000005173249    -0.000010462820    -0.000004946623
      18        0.000014355257     0.000010509822    -0.000004462940
      19       -0.000004766355    -0.000007129315     0.000001029920
      20       -0.002049063724    -0.001223022931    -0.000015731625
      21       -0.000010308033    -0.000001732696     0.000000614023
      22        0.000007196423     0.000001500007     0.000006158489
      23        0.000000687465     0.000000682877    -0.000003766438
      24       -0.000004264440    -0.000001708843     0.000000793233
      25       -0.000001588747    -0.000003081811     0.000000347359
      26        0.000002563854    -0.000000618306     0.000002886312
      27        0.000001188315     0.000001746463    -0.000001873674

  **** Optimization is complete! (in 7 steps) ****
    Final optimized geometry and variables:
    Molecular point group: c1

    Geometry (in Angstrom), charge = 0, multiplicity = 1:

    H            2.258552709821     2.005972188270     1.259190081879
    O            3.106944955139     1.814166844035     0.886991383132
    C            3.396172938066     0.448576954387     1.046976768578
    C            2.582642532419    -0.450174472861     0.122305309926
    H            4.450299853152     0.343003626292     0.824921632180
    H            3.252667374369     0.147631639322     2.084076559113
    C            1.074665117284    -0.406192760143     0.381090525705
    H            2.785019451398    -0.161050705910    -0.905652401510
    H            2.940641711700    -1.471518023074     0.240998156016
    C            0.291852809100    -1.365820733516    -0.519658369999
    H            0.717004767658     0.608869480195     0.232917890451
    H            0.878808322380    -0.658247589065     1.423262194490
    C           -1.222337347984    -1.380620770376    -0.274966468239
    H            0.488574802457    -1.121989029901    -1.562334348060
    H            0.677984878687    -2.371356254619    -0.366972627266
    C           -1.963496200516    -0.128143101295    -0.754885604889
    H           -1.652414241716    -2.248241969740    -0.769702725379
    H           -1.402990303487    -1.521654724612     0.789797419810
    C           -3.413054705044    -0.072866043445    -0.265357088697
    H           -1.966006551971    -0.114144752073    -1.843505470687
    H           -1.446927130317     0.771332454158    -0.431136849752
    C           -4.175111296248     1.144188470685    -0.788371974080
    H           -3.930587277983    -0.980418612206    -0.569529880596
    H           -3.425274692425    -0.065959881270     0.822516553447
    H           -4.215159210624     1.145227257419    -1.873973231623
    H           -5.196281468066     1.157672477524    -0.420025699329
    H           -3.698843591044     2.069350906977    -0.475738352078

  Mulliken Charges: (a.u.)
   Center  Symbol    Alpha    Beta     Spin     Total
       1     H     0.27987  0.27987  0.00000  0.44026
       2     O     4.37091  4.37091  0.00000 -0.74183
       3     C     2.99749  2.99749  0.00000  0.00501
       4     C     3.16082  3.16082  0.00000 -0.32164
       5     H     0.41440  0.41440  0.00000  0.17121
       6     H     0.43200  0.43200  0.00000  0.13601
       7     C     3.16293  3.16293  0.00000 -0.32587
       8     H     0.41489  0.41489  0.00000  0.17022
       9     H     0.42428  0.42428  0.00000  0.15143
      10     C     3.15253  3.15253  0.00000 -0.30507
      11     H     0.42346  0.42346  0.00000  0.15307
      12     H     0.42527  0.42527  0.00000  0.14946
      13     C     3.15425  3.15425  0.00000 -0.30850
      14     H     0.42161  0.42161  0.00000  0.15678
      15     H     0.42139  0.42139  0.00000  0.15723
      16     C     3.15241  3.15241  0.00000 -0.30482
      17     H     0.42028  0.42028  0.00000  0.15944
      18     H     0.42477  0.42477  0.00000  0.15046
      19     C     3.15161  3.15161  0.00000 -0.30323
      20     H     0.42300  0.42300  0.00000  0.15401
      21     H     0.42306  0.42306  0.00000  0.15389
      22     C     3.23917  3.23917  0.00000 -0.47835
      23     H     0.42303  0.42303  0.00000  0.15395
      24     H     0.42359  0.42359  0.00000  0.15282
      25     H     0.42147  0.42147  0.00000  0.15707
      26     H     0.41928  0.41928  0.00000  0.16144
      27     H     0.42223  0.42223  0.00000  0.15554

   Total alpha = 37.00000, Total beta = 37.00000, Total charge =  0.00000
