  ==> Input File <==

--------------------------------------------------------------------------
set {
	reference rhf
	basis 6-31G*
}

set_num_threads( 4 )
memory 2 gb

molecule MOL {
0 1

H	 -2.273092	 1.173159	 0.000295
O	 -1.438904	 1.618192	 0.000114
C	 -0.409536	 0.736003	 0.000030
C	 0.868677	 1.272073	 -0.000233
C	 -0.609332	 -0.642773	 0.000222
H	 0.977786	 2.340757	 -0.000379
C	 1.967535	 0.434206	 -0.000274
C	 0.513624	 -1.461283	 0.000188
C	 -2.004755	 -1.225698	 0.000362
H	 2.956591	 0.856417	 -0.000470
C	 1.795532	 -0.940709	 -0.000059
H	 0.376171	 -2.528734	 0.000319
H	 -2.571249	 -0.925042	 -0.878633
H	 -1.967321	 -2.307629	 0.000606
H	 -2.571274	 -0.924580	 0.879215
H	 2.645631	 -1.598380	 -0.000096

	symmetry c1
}
set optking {
	frozen_dihedral = ("
		4 3 2 1
	")
}

ee = optimize('scf')
oeprop('DIPOLE', 'QUADRUPOLE', 'MULLIKEN_CHARGES')
f=open( 'psi4out.xyz', 'w' )
f.write( "16  " )
f.write( str(ee) + "\n" )
f.write( MOL.save_string_xyz() )
f.close()
--------------------------------------------------------------------------

    Molecular point group: c1
  Charge       = 0
  Multiplicity = 1
  Basis Set: 6-31G*
  Basis Set:

    Orbital Energies (a.u.)
    -----------------------

    Doubly Occupied:

       1A    -20.587717     2A    -11.292553     3A    -11.235066
       4A    -11.234223     5A    -11.231138     6A    -11.229700
       7A    -11.219155     8A    -11.219073     9A     -1.406357
      10A     -1.148673    11A     -1.048659    12A     -1.004106
      13A     -0.941674    14A     -0.825253    15A     -0.819467
      16A     -0.730015    17A     -0.676206    18A     -0.643457
      19A     -0.603804    20A     -0.603674    21A     -0.574695
      22A     -0.562922    23A     -0.561929    24A     -0.552460
      25A     -0.502724    26A     -0.482686    27A     -0.472889
      28A     -0.329372    29A     -0.304018

  @DF-RHF Final Energy:  -344.59374088193789

   => Energetics <=

    Nuclear Repulsion Energy =            350.1572089982001330
    One-Electron Energy =               -1161.4145748081130023
    Two-Electron Energy =                 466.6636249279750928
    DFT Exchange-Correlation Energy =       0.0000000000000000
    Empirical Dispersion Energy =           0.0000000000000000
    PCM Polarization Energy =               0.0000000000000000
    EFP Energy =                            0.0000000000000000
    Total Energy =                       -344.5937408819378334
    Molecular point group: c1
  Basis Set: 6-31G*
  Basis Set:

  -Total Gradient:
     Atom            X                  Y                   Z
    ------   -----------------  -----------------  -----------------
       1        0.000031752903    -0.000020978594     0.000000393575
       2        0.000035566739     0.000124454789     0.000003380699
       3        0.000020891074    -0.000156941698    -0.000003386258
       4        0.000025745221     0.000031275514    -0.000003059403
       5        0.000081865620     0.000189048599     0.000005066866
       6       -0.000030491264     0.000001747602     0.000000274921
       7       -0.000133217341     0.000095403151     0.000000363169
       8        0.000155495011    -0.000021361446     0.000003989444
       9       -0.000057255712    -0.000095521711    -0.000013530714
      10       -0.000000424547    -0.000008228510     0.000000279133
      11       -0.000114701504    -0.000105412355    -0.000000571882
      12        0.000038049103    -0.000014630809    -0.000001126875
      13        0.000002354575    -0.000016366580     0.000013006003
      14       -0.000009043262     0.000031695390    -0.000004708853
      15       -0.000005340214    -0.000003822260     0.000000176968
      16       -0.000041246398    -0.000030361088    -0.000000546793

  **** Optimization is complete! (in 1 steps) ****
    Final optimized geometry and variables:
    Molecular point group: c1

    Geometry (in Angstrom), charge = 0, multiplicity = 1:

    H           -2.273092434240     1.173158894018     0.000243924179
    O           -1.438904434240     1.618191894018     0.000062924179
    C           -0.409536434240     0.736002894018    -0.000021075821
    C            0.868676565760     1.272072894018    -0.000284075821
    C           -0.609332434240    -0.642773105982     0.000170924179
    H            0.977785565760     2.340756894018    -0.000430075821
    C            1.967534565760     0.434205894018    -0.000325075821
    C            0.513623565760    -1.461283105982     0.000136924179
    C           -2.004755434240    -1.225698105982     0.000310924179
    H            2.956590565760     0.856416894018    -0.000521075821
    C            1.795531565760    -0.940709105982    -0.000110075821
    H            0.376170565760    -2.528734105982     0.000267924179
    H           -2.571249434240    -0.925042105982    -0.878684075821
    H           -1.967321434240    -2.307629105982     0.000554924179
    H           -2.571274434240    -0.924580105982     0.879163924179
    H            2.645630565760    -1.598380105982    -0.000147075821

  Mulliken Charges: (a.u.)
   Center  Symbol    Alpha    Beta     Spin     Total
       1     H     0.26599  0.26599  0.00000  0.46802
       2     O     4.38228  4.38228  0.00000 -0.76456
       3     C     2.81753  2.81753  0.00000  0.36493
       4     C     3.11919  3.11919  0.00000 -0.23837
       5     C     3.00655  3.00655  0.00000 -0.01310
       6     H     0.39215  0.39215  0.00000  0.21569
       7     C     3.09530  3.09530  0.00000 -0.19060
       8     C     3.10652  3.10652  0.00000 -0.21304
       9     C     3.27579  3.27579  0.00000 -0.55157
      10     H     0.39898  0.39898  0.00000  0.20204
      11     C     3.10891  3.10891  0.00000 -0.21782
      12     H     0.40173  0.40173  0.00000  0.19654
      13     H     0.41202  0.41202  0.00000  0.17595
      14     H     0.40386  0.40386  0.00000  0.19228
      15     H     0.41204  0.41204  0.00000  0.17593
      16     H     0.40116  0.40116  0.00000  0.19767

   Total alpha = 29.00000, Total beta = 29.00000, Total charge = -0.00000
