  ==> Input File <==

--------------------------------------------------------------------------
set {
	reference rhf
	basis cc-pvtz
}

set_num_threads( 4 )
memory 2 gb

molecule MOL {
0 1

H	 -1.752232	 -2.214755	 -0.011938
C	 -1.343852	 -1.221619	 -0.018179
N	 -0.058800	 -1.097635	 -0.261688
C	 -2.148159	 -0.124236	 0.219734
C	 0.449026	 0.119242	 -0.273393
H	 -3.196988	 -0.237571	 0.417076
N	 -1.655094	 1.094230	 0.209506
C	 -0.370318	 1.215445	 -0.035100
C	 1.924033	 0.265863	 -0.538106
H	 0.033214	 2.210441	 -0.046812
C	 2.756968	 0.254410	 0.744680
H	 2.235473	 -0.552154	 -1.176554
H	 2.101601	 1.185108	 -1.083698
H	 3.812648	 0.327436	 0.511995
H	 2.592773	 -0.661352	 1.297309
H	 2.496020	 1.088079	 1.386901

	symmetry c1
}
set optking {
	frozen_dihedral = ("
		12 9 5 3
	")
}

ee = optimize('scf')
oeprop('DIPOLE', 'QUADRUPOLE', 'MULLIKEN_CHARGES')
f=open( 'psi4out.xyz', 'w' )
f.write( "16  " )
f.write( str(ee) + "\n" )
f.write( MOL.save_string_xyz() )
f.close()
--------------------------------------------------------------------------

    Molecular point group: c1
  Charge       = 0
  Multiplicity = 1
  Basis Set: CC-PVTZ
  Basis Set:
  @DF-RHF Final Energy:  -340.87198755651980
    Total Energy =                       -340.8719875565192297
    Molecular point group: c1
  Basis Set: CC-PVTZ
  Basis Set:
  Basis Set: CC-PVTZ
  Basis Set:
  @DF-RHF Final Energy:  -340.87201652581621
    Total Energy =                       -340.8720165258160364
  Basis Set: CC-PVTZ
  Basis Set:
  Basis Set: CC-PVTZ
  Basis Set:
  @DF-RHF Final Energy:  -340.87202902342250
    Total Energy =                       -340.8720290234226695
  Basis Set: CC-PVTZ
  Basis Set:
  Basis Set: CC-PVTZ
  Basis Set:
  @DF-RHF Final Energy:  -340.87203621445320
    Total Energy =                       -340.8720362144530895
  Basis Set: CC-PVTZ
  Basis Set:
  Basis Set: CC-PVTZ
  Basis Set:
  @DF-RHF Final Energy:  -340.87203801960584
    Total Energy =                       -340.8720380196058954
  Basis Set: CC-PVTZ
  Basis Set:
  Charge       = 0
  Multiplicity = 1
  Basis Set: CC-PVTZ
  Basis Set:

    Orbital Energies (a.u.)
    -----------------------

    Doubly Occupied:

       1A    -15.580659     2A    -15.576038     3A    -11.278502
       4A    -11.271773     5A    -11.268954     6A    -11.267424
       7A    -11.231383     8A    -11.219444     9A     -1.315984
      10A     -1.224039    11A     -1.086670    12A     -1.015919
      13A     -0.905542    14A     -0.896758    15A     -0.830561
      16A     -0.718596    17A     -0.713469    18A     -0.659512
      19A     -0.611378    20A     -0.606654    21A     -0.586208
      22A     -0.563903    23A     -0.524087    24A     -0.508849
      25A     -0.503717    26A     -0.487302    27A     -0.433531
      28A     -0.397850    29A     -0.346628

  @DF-RHF Final Energy:  -340.87203828748562

   => Energetics <=

    Nuclear Repulsion Energy =            350.5193028477193025
    One-Electron Energy =               -1155.5200153992984724
    Two-Electron Energy =                 464.1286742640930925
    DFT Exchange-Correlation Energy =       0.0000000000000000
    Empirical Dispersion Energy =           0.0000000000000000
    PCM Polarization Energy =               0.0000000000000000
    EFP Energy =                            0.0000000000000000
    Total Energy =                       -340.8720382874861343
    Molecular point group: c1
  Basis Set: CC-PVTZ
  Basis Set:

  -Total Gradient:
     Atom            X                  Y                   Z
    ------   -----------------  -----------------  -----------------
       1        0.000007131201    -0.000004960864     0.000056696139
       2       -0.000060809502     0.000004031233    -0.000134349909
       3       -0.000123199272     0.000073134656    -0.000773571882
       4        0.000000685414    -0.000028224617    -0.000004457360
       5        0.000272195366    -0.000213762877     0.001371584728
       6        0.000005300836    -0.000003160263     0.000022360338
       7        0.000024249676     0.000009154914    -0.000015135984
       8       -0.000000332930     0.000025428971     0.000042087558
       9       -0.000320842965     0.000671780130    -0.001276503721
      10       -0.000005596596    -0.000005522148    -0.000030391799
      11        0.000006743687    -0.000025351476     0.000060621034
      12        0.000186934871    -0.000497803289     0.000715308649
      13        0.000012461735    -0.000022930280    -0.000007030992
      14        0.000000036458     0.000001443783    -0.000008760608
      15        0.000000525002     0.000011973103    -0.000015533371
      16       -0.000005482982     0.000004769026    -0.000002922821

  **** Optimization is complete! (in 6 steps) ****
    Final optimized geometry and variables:
    Molecular point group: c1

    Geometry (in Angstrom), charge = 0, multiplicity = 1:

    H           -1.750184470822    -2.279942807813    -0.019095654908
    C           -1.341919848609    -1.287030287516    -0.028916224999
    N           -0.054831961878    -1.165238631153    -0.280353692847
    C           -2.142008338484    -0.190827943560     0.209899366662
    C            0.453015256923     0.048567903293    -0.294746092125
    H           -3.189864346441    -0.301338411011     0.412827773053
    N           -1.647375503773     1.030196485079     0.192399209689
    C           -0.366559273421     1.148583100241    -0.057901899984
    C            1.927810510082     0.201307443730    -0.556800813426
    H            0.038658854638     2.143190590365    -0.079086167221
    C            2.755487142286     0.185644583149     0.731145109916
    H            2.239142876180    -0.616802216818    -1.191993370803
    H            2.107552466740     1.125332765269    -1.094323085341
    H            3.811087039925     0.277981813583     0.505131523366
    H            2.604720361866    -0.741387833622     1.270439100468
    H            2.479850639332     1.004250354348     1.386266573035

  Mulliken Charges: (a.u.)
   Center  Symbol    Alpha    Beta     Spin     Total
       1     H     0.41358  0.41358  0.00000  0.17283
       2     C     3.04369  3.04369  0.00000 -0.08737
       3     N     3.59745  3.59745  0.00000 -0.19490
       4     C     3.04782  3.04782  0.00000 -0.09563
       5     C     2.93653  2.93653  0.00000  0.12694
       6     H     0.41356  0.41356  0.00000  0.17288
       7     N     3.58687  3.58687  0.00000 -0.17373
       8     C     3.07866  3.07866  0.00000 -0.15732
       9     C     3.08419  3.08419  0.00000 -0.16838
      10     H     0.41501  0.41501  0.00000  0.16998
      11     C     3.14412  3.14412  0.00000 -0.28824
      12     H     0.44205  0.44205  0.00000  0.11589
      13     H     0.44743  0.44743  0.00000  0.10513
      14     H     0.44847  0.44847  0.00000  0.10306
      15     H     0.44733  0.44733  0.00000  0.10534
      16     H     0.45325  0.45325  0.00000  0.09349

   Total alpha = 29.00000, Total beta = 29.00000, Total charge = -0.00000
