  ==> Input File <==

--------------------------------------------------------------------------
set {
	reference rhf
	basis 6-31G*
}

set_num_threads( 4 )
memory 2 gb

molecule MOL {
0 1

O	 0.391030	 1.298905	 0.000133
C	 0.503002	 0.111612	 0.000005
C	 -0.702327	 -0.811998	 -0.000075
C	 1.863306	 -0.554493	 0.000030
C	 -1.138543	 -1.246694	 1.393807
H	 -1.513081	 -0.302883	 -0.518004
H	 -0.461099	 -1.675747	 -0.616932
H	 -1.403121	 -0.390540	 2.002262
H	 -2.000536	 -1.902791	 1.332469
H	 -0.341813	 -1.775577	 1.902457
H	 1.974395	 -1.189404	 -0.874166
H	 2.638695	 0.198920	 -0.000196
H	 1.974487	 -1.188655	 0.874727

	symmetry c1
}
set optking {
	frozen_dihedral = ("
		6 3 2 1
	")
}

ee = optimize('scf')
oeprop('DIPOLE', 'QUADRUPOLE', 'MULLIKEN_CHARGES')
f=open( 'psi4out.xyz', 'w' )
f.write( "13  " )
f.write( str(ee) + "\n" )
f.write( MOL.save_string_xyz() )
f.close()
--------------------------------------------------------------------------

    Molecular point group: c1
  Charge       = 0
  Multiplicity = 1
  Basis Set: 6-31G*
  Basis Set:
  @DF-RHF Final Energy:  -230.99454805707151
    Total Energy =                       -230.9945480570715972
    Molecular point group: c1
  Basis Set: 6-31G*
  Basis Set:
  Basis Set: 6-31G*
  Basis Set:
  @DF-RHF Final Energy:  -230.99470174303394
    Total Energy =                       -230.9947017430339145
  Basis Set: 6-31G*
  Basis Set:
  Basis Set: 6-31G*
  Basis Set:
  @DF-RHF Final Energy:  -230.99518509390339
    Total Energy =                       -230.9951850939034443
  Basis Set: 6-31G*
  Basis Set:
  Basis Set: 6-31G*
  Basis Set:
  @DF-RHF Final Energy:  -230.99534797043094
    Total Energy =                       -230.9953479704309984
  Basis Set: 6-31G*
  Basis Set:
  Basis Set: 6-31G*
  Basis Set:
  @DF-RHF Final Energy:  -230.99537756928854
    Total Energy =                       -230.9953775692882800
  Basis Set: 6-31G*
  Basis Set:
  Basis Set: 6-31G*
  Basis Set:
  @DF-RHF Final Energy:  -230.99539542546128
    Total Energy =                       -230.9953954254613393
  Basis Set: 6-31G*
  Basis Set:
  Basis Set: 6-31G*
  Basis Set:
  @DF-RHF Final Energy:  -230.99539818555905
    Total Energy =                       -230.9953981855588268
  Basis Set: 6-31G*
  Basis Set:
  Charge       = 0
  Multiplicity = 1
  Basis Set: 6-31G*
  Basis Set:

    Orbital Energies (a.u.)
    -----------------------

    Doubly Occupied:

       1A    -20.548908     2A    -11.325575     3A    -11.233071
       4A    -11.229129     5A    -11.229065     6A     -1.394513
       7A     -1.066167     8A     -0.997182     9A     -0.883946
      10A     -0.733972    11A     -0.654777    12A     -0.647180
      13A     -0.608522    14A     -0.592932    15A     -0.565278
      16A     -0.539915    17A     -0.528786    18A     -0.503134
      19A     -0.480896    20A     -0.399715

  @DF-RHF Final Energy:  -230.99539824879096

   => Energetics <=

    Nuclear Repulsion Energy =            176.9457158746045309
    One-Electron Energy =                -663.5569042162840105
    Two-Electron Energy =                 255.6157900928886875
    DFT Exchange-Correlation Energy =       0.0000000000000000
    Empirical Dispersion Energy =           0.0000000000000000
    PCM Polarization Energy =               0.0000000000000000
    EFP Energy =                            0.0000000000000000
    Total Energy =                       -230.9953982487908206
    Molecular point group: c1
  Basis Set: 6-31G*
  Basis Set:

  -Total Gradient:
     Atom            X                  Y                   Z
    ------   -----------------  -----------------  -----------------
       1        0.000004264492    -0.000004855023    -0.000243187476
       2       -0.000018398604     0.000032477355     0.000385058492
       3        0.000101455092    -0.000110149411    -0.000367861194
       4       -0.000006318087    -0.000000232204     0.000006349768
       5       -0.000004444137    -0.000005839027     0.000013845786
       6       -0.000076055244     0.000089310266     0.000212974145
       7       -0.000001648886     0.000000363181     0.000001225875
       8        0.000007220935    -0.000000433628    -0.000004764602
       9       -0.000002233036    -0.000001569042    -0.000001405647
      10       -0.000002369788     0.000001342150     0.000000899164
      11       -0.000000437745     0.000000740352    -0.000003086243
      12        0.000000640088    -0.000002271807    -0.000001293410
      13       -0.000001675080     0.000001116839     0.000001245342

  **** Optimization is complete! (in 8 steps) ****
    Final optimized geometry and variables:
    Molecular point group: c1

    Geometry (in Angstrom), charge = 0, multiplicity = 1:

    O            0.175294052620     1.520686233603    -0.277454531220
    C            0.316791549156     0.336132572490    -0.297154396156
    C           -0.881902717876    -0.595807896482    -0.310135340862
    C            1.690825330932    -0.298221363567    -0.295301528814
    C           -1.313903784479    -0.955861728086     1.118674778556
    H           -1.690547166995    -0.082924055591    -0.816414299461
    H           -0.649318741135    -1.500808030667    -0.863757366754
    H           -1.567882480486    -0.061262856200     1.675699044912
    H           -2.185394032613    -1.600621606328     1.097908236247
    H           -0.529327463159    -1.478744004240     1.656799538252
    H            1.877549232140    -0.756671338996    -1.262988459822
    H            2.443660797642     0.454543989663    -0.107347242585
    H            1.759957624142    -1.083844036144     0.450635936074

  Mulliken Charges: (a.u.)
   Center  Symbol    Alpha    Beta     Spin     Total
       1     O     4.26047  4.26047  0.00000 -0.52094
       2     C     2.73798  2.73798  0.00000  0.52404
       3     C     3.19965  3.19965  0.00000 -0.39931
       4     C     3.28961  3.28961  0.00000 -0.57923
       5     C     3.24907  3.24907  0.00000 -0.49813
       6     H     0.39939  0.39939  0.00000  0.20122
       7     H     0.41576  0.41576  0.00000  0.16847
       8     H     0.40581  0.40581  0.00000  0.18837
       9     H     0.41114  0.41114  0.00000  0.17771
      10     H     0.41822  0.41822  0.00000  0.16356
      11     H     0.40622  0.40622  0.00000  0.18757
      12     H     0.39659  0.39659  0.00000  0.20682
      13     H     0.41008  0.41008  0.00000  0.17984

   Total alpha = 20.00000, Total beta = 20.00000, Total charge =  0.00000
