                              Psi4 1.0.54 Driver

  ==> Input File <==

--------------------------------------------------------------------------
set {
	reference rhf
	basis cc-pvtz
}

set_num_threads( 4 )
memory 2 gb

molecule MOL {
0 1

H	 1.166964	 -1.062386	 0.758429
O	 1.324748	 -0.612467	 -0.052206
C	 0.706474	 0.636793	 -0.025501
C	 -0.711929	 0.643785	 -0.521198
H	 1.305668	 1.288952	 -0.649966
H	 0.730470	 1.060026	 0.976995
C	 -1.345392	 -0.377287	 -1.054531
H	 -1.220175	 1.587981	 -0.414292
H	 -0.867918	 -1.328449	 -1.193392
H	 -2.363459	 -0.287973	 -1.382589

	symmetry c1
}
set optking {
	frozen_dihedral = ("
		5 3 2 1
	")
}

ee,wfn = optimize('scf', return_wfn=True)
oeprop( wfn, 'DIPOLE', 'QUADRUPOLE', 'MULLIKEN_CHARGES')
f=open( 'psi4out.xyz', 'w' )
f.write( "10  " )
f.write( str(ee) + "\n" )
f.write( MOL.save_string_xyz() )
f.close()
--------------------------------------------------------------------------

    Molecular point group: c1
  Charge       = 0
  Multiplicity = 1
  Basis Set: CC-PVTZ
  Basis Set:
  @DF-RHF Final Energy:  -191.99798174884120
    Total Energy =                       -191.9979817488412550
    Molecular point group: c1
  Basis Set: CC-PVTZ
  Basis Set:
  Basis Set: CC-PVTZ
  Basis Set:
  @DF-RHF Final Energy:  -191.99810807889921
    Total Energy =                       -191.9981080788992642
  Basis Set: CC-PVTZ
  Basis Set:
  Basis Set: CC-PVTZ
  Basis Set:
  @DF-RHF Final Energy:  -191.99812767738558
    Total Energy =                       -191.9981276773857246
  Basis Set: CC-PVTZ
  Basis Set:
  Charge       = 0
  Multiplicity = 1
  Basis Set: CC-PVTZ
  Basis Set:

    Orbital Energies (a.u.)
    -----------------------

    Doubly Occupied:

       1A    -20.554318     2A    -11.278390     3A    -11.226499
       4A    -11.212351     5A     -1.374247     6A     -1.059917
       7A     -0.930045     8A     -0.766917     9A     -0.699517
      10A     -0.660967    11A     -0.617227    12A     -0.576445
      13A     -0.526639    14A     -0.504548    15A     -0.450319
      16A     -0.365497

  @DF-RHF Final Energy:  -191.99812811826490

   => Energetics <=

    Nuclear Repulsion Energy =            119.4229897252891561
    One-Electron Energy =                -497.2345484675007583
    Two-Electron Energy =                 185.8134306239468856
    DFT Exchange-Correlation Energy =       0.0000000000000000
    Empirical Dispersion Energy =           0.0000000000000000
    PCM Polarization Energy =               0.0000000000000000
    EFP Energy =                            0.0000000000000000
    Total Energy =                       -191.9981281182647308
    Molecular point group: c1
  Basis Set: CC-PVTZ
  Basis Set:

  -Total Gradient:
     Atom            X                  Y                   Z
    ------   -----------------  -----------------  -----------------
       1        0.001399147599     0.000679668226     0.000700934115
       2       -0.001568413594    -0.000757080610    -0.000545758123
       3       -0.000610095907    -0.000263594200    -0.001338972685
       4       -0.000011541638     0.000020313107     0.000033342468
       5        0.000768357100     0.000379644346     0.001172247443
       6        0.000009771060    -0.000044907388    -0.000002253217
       7        0.000015945656    -0.000013511487    -0.000001219115
       8        0.000001640320    -0.000002153902    -0.000013092662
       9       -0.000003519248     0.000004164786    -0.000009962102
      10       -0.000001291346    -0.000002542877     0.000004733878

  **** Optimization is complete! (in 4 steps) ****
    Final optimized geometry and variables:
    Molecular point group: c1

    Geometry (in Angstrom), charge = 0, multiplicity = 1:

    H            1.097528238813    -1.110893771533     1.106978775735
    O            1.264979756362    -0.638908724737     0.312621327726
    C            0.636859517934     0.607667126774     0.353070820858
    C           -0.775345223873     0.602419374701    -0.158516827500
    H            1.236553153758     1.286289005065    -0.243175698859
    H            0.643392902969     1.011067834108     1.363539818922
    C           -1.408787033786    -0.440850050060    -0.645370838386
    H           -1.275464487411     1.555785830586    -0.107133558448
    H           -0.933489533115    -1.399543324250    -0.721619302842
    H           -2.421555542820    -0.361927112006    -0.992318427747

  Mulliken Charges: (a.u.)
   Center  Symbol    Alpha    Beta     Spin     Total
       1     H     0.39102  0.39102  0.00000  0.21795
       2     O     4.19880  4.19880  0.00000 -0.39761
       3     C     2.95186  2.95186  0.00000  0.09629
       4     C     3.08252  3.08252  0.00000 -0.16504
       5     H     0.45509  0.45509  0.00000  0.08983
       6     H     0.46939  0.46939  0.00000  0.06123
       7     C     3.17717  3.17717  0.00000 -0.35435
       8     H     0.42363  0.42363  0.00000  0.15274
       9     H     0.42189  0.42189  0.00000  0.15623
      10     H     0.42864  0.42864  0.00000  0.14273

   Total alpha = 16.00000, Total beta = 16.00000, Total charge = -0.00000

*** Psi4 exiting successfully. Buy a developer a beer!
