  ==> Input File <==

--------------------------------------------------------------------------
set {
	reference rhf
	basis cc-pvtz
}

set_num_threads( 4 )
memory 2 gb

molecule MOL {
0 1

H	 -2.644180	 -0.653737	 1.272255
C	 -2.092774	 -0.380414	 0.391915
O	 -0.808934	 -0.154049	 0.752536
F	 -2.163230	 -1.351640	 -0.507133
F	 -2.627232	 0.691260	 -0.169301
C	 0.085006	 0.250800	 -0.215074
C	 1.370439	 -0.548013	 -0.012993
Cl	 0.421658	 1.987697	 -0.091007
H	 -0.272219	 0.063284	 -1.212508
F	 1.553214	 -1.380827	 -1.005987
F	 1.267534	 -1.250738	 1.090141
F	 2.419999	 0.220446	 0.087729

	symmetry c1
}
set optking {
	frozen_dihedral = ("
		10 7 6 9
	")
}

ee = optimize('scf')
oeprop('DIPOLE', 'QUADRUPOLE', 'MULLIKEN_CHARGES')
f=open( 'psi4out.xyz', 'w' )
f.write( "12  " )
f.write( str(ee) + "\n" )
f.write( MOL.save_string_xyz() )
f.close()
--------------------------------------------------------------------------

    Molecular point group: c1
  Charge       = 0
  Multiplicity = 1
  Basis Set: CC-PVTZ
  Basis Set:
  @DF-RHF Final Energy: -1146.60873065160240
    Total Energy =                      -1146.6087306516024000
    Molecular point group: c1
  Basis Set: CC-PVTZ
  Basis Set:
  Basis Set: CC-PVTZ
  Basis Set:
  @DF-RHF Final Energy: -1146.60900594520399
    Total Energy =                      -1146.6090059452033074
  Basis Set: CC-PVTZ
  Basis Set:
  Basis Set: CC-PVTZ
  Basis Set:
  @DF-RHF Final Energy: -1146.61128067641084
    Total Energy =                      -1146.6112806764115248
  Basis Set: CC-PVTZ
  Basis Set:
  Basis Set: CC-PVTZ
  Basis Set:
  @DF-RHF Final Energy: -1146.61139269262821
    Total Energy =                      -1146.6113926926282147
  Basis Set: CC-PVTZ
  Basis Set:
  Basis Set: CC-PVTZ
  Basis Set:
  @DF-RHF Final Energy: -1146.61140477964364
    Total Energy =                      -1146.6114047796440900
  Basis Set: CC-PVTZ
  Basis Set:
  Basis Set: CC-PVTZ
  Basis Set:
  @DF-RHF Final Energy: -1146.61140667030077
    Total Energy =                      -1146.6114066703005392
  Basis Set: CC-PVTZ
  Basis Set:
  Charge       = 0
  Multiplicity = 1
  Basis Set: CC-PVTZ
  Basis Set:

    Orbital Energies (a.u.)
    -----------------------

    Doubly Occupied:

       1A   -104.855895     2A    -26.353877     3A    -26.353228
       4A    -26.352546     5A    -26.342976     6A    -26.342711
       7A    -20.638904     8A    -11.522672     9A    -11.483195
      10A    -11.402169    11A    -10.581508    12A     -8.048293
      13A     -8.046308    14A     -8.046232    15A     -1.768525
      16A     -1.724183    17A     -1.662719    18A     -1.660130
      19A     -1.644329    20A     -1.485609    21A     -1.175310
      22A     -1.049522    23A     -0.990339    24A     -0.923869
      25A     -0.862218    26A     -0.858097    27A     -0.851818
      28A     -0.830677    29A     -0.818691    30A     -0.795821
      31A     -0.732114    32A     -0.731100    33A     -0.711091
      34A     -0.708274    35A     -0.684077    36A     -0.680607
      37A     -0.665302    38A     -0.662644    39A     -0.650304
      40A     -0.634821    41A     -0.597852    42A     -0.579734
      43A     -0.523900    44A     -0.476646    45A     -0.469216

  @DF-RHF Final Energy: -1146.61140711986354

   => Energetics <=

    Nuclear Repulsion Energy =            735.5116915099586095
    One-Electron Energy =               -3054.2860892117132607
    Two-Electron Energy =                1172.1629905818913358
    DFT Exchange-Correlation Energy =       0.0000000000000000
    Empirical Dispersion Energy =           0.0000000000000000
    PCM Polarization Energy =               0.0000000000000000
    EFP Energy =                            0.0000000000000000
    Total Energy =                      -1146.6114071198630882
    Molecular point group: c1
  Basis Set: CC-PVTZ
  Basis Set:

  -Total Gradient:
     Atom            X                  Y                   Z
    ------   -----------------  -----------------  -----------------
       1        0.000004331259     0.000005039071     0.000005483150
       2       -0.000077486339     0.000003642339     0.000026800702
       3        0.000039489425    -0.000028486617    -0.000025950103
       4        0.000015961091     0.000040030552    -0.000006576790
       5        0.000067459747    -0.000036155825     0.000000631705
       6        0.002617357846     0.003696518566    -0.001838579311
       7       -0.002221446915    -0.003010861588     0.002150019277
       8       -0.000017450036     0.000033021238    -0.000003745908
       9       -0.001861419848    -0.002652990729     0.001197488439
      10        0.001433570450     0.001903941158    -0.001509796550
      11        0.000016791228     0.000041710296    -0.000031259679
      12       -0.000017157890     0.000004591594     0.000035485069

  **** Optimization is complete! (in 7 steps) ****
    Final optimized geometry and variables:
    Molecular point group: c1

    Geometry (in Angstrom), charge = 0, multiplicity = 1:

    H           -2.676004737691    -0.631800768677     1.238220570277
    C           -2.098331434445    -0.375208862965     0.369707817939
    O           -0.832015163070    -0.119616916440     0.765986536697
    F           -2.122565410903    -1.375113093461    -0.501883087662
    F           -2.631683759490     0.668988028070    -0.242577556578
    C            0.084781148988     0.281548948700    -0.185638368690
    C            1.382502721532    -0.556959928539    -0.001485439626
    CL           0.383086737032     2.021898514627    -0.057541112770
    H           -0.281452362219     0.085214123618    -1.176350909490
    F            1.484083535549    -1.384262797776    -1.020789643424
    F            1.355864446516    -1.262008854608     1.094496161790
    F            2.465141054397     0.171502702569     0.013167047651

  Mulliken Charges: (a.u.)
   Center  Symbol    Alpha    Beta     Spin     Total
       1     H     0.45190  0.45190  0.00000  0.09619
       2     C     2.73903  2.73903  0.00000  0.52194
       3     O     4.15072  4.15072  0.00000 -0.30143
       4     F     4.61897  4.61897  0.00000 -0.23794
       5     F     4.61537  4.61537  0.00000 -0.23074
       6     C     2.96262  2.96262  0.00000  0.07476
       7     C     2.66211  2.66211  0.00000  0.67577
       8    CL     8.56747  8.56747  0.00000 -0.13494
       9     H     0.43157  0.43157  0.00000  0.13687
      10     F     4.60717  4.60717  0.00000 -0.21433
      11     F     4.59654  4.59654  0.00000 -0.19307
      12     F     4.59654  4.59654  0.00000 -0.19307

   Total alpha = 45.00000, Total beta = 45.00000, Total charge = -0.00000
