  ==> Input File <==

--------------------------------------------------------------------------
set {
	reference rhf
	basis 6-31G*
}

set_num_threads( 1 )
memory 2 gb

molecule MOL {
0 1

O	 -2.439739	 -0.935931	 -0.423848
C	 -1.921153	 0.064240	 -0.045697
C	 -2.624470	 1.379923	 0.150949
O	 -0.632575	 0.154573	 0.251549
H	 -2.168117	 2.136577	 -0.476876
H	 -3.669540	 1.273223	 -0.098610
H	 -2.519365	 1.700893	 1.180846
C	 0.160891	 -1.019931	 0.106212
C	 1.589627	 -0.672828	 0.480843
H	 0.089836	 -1.367806	 -0.916050
H	 -0.238459	 -1.792301	 0.749618
C	 2.380193	 -1.844138	 1.066878
H	 1.549697	 0.139008	 1.204210
H	 2.098504	 -0.284576	 -0.397544
C	 3.804756	 -1.452827	 1.457385
H	 1.857837	 -2.227279	 1.941205
H	 2.410335	 -2.653715	 0.345051
H	 4.344423	 -2.299810	 1.868981
H	 3.805938	 -0.664853	 2.205297
H	 4.361881	 -1.092424	 0.597269

	symmetry c1
}
set optking {
	frozen_dihedral = ("
		16 12 9 8,
		2 4 8 10,
		1 2 4 8
	")
}

ee = energy('scf')
oeprop('DIPOLE', 'QUADRUPOLE', 'MULLIKEN_CHARGES')
f=open( 'psi4out.xyz', 'w' )
f.write( "20  " )
f.write( str(ee) + "\n" )
f.write( MOL.save_string_xyz() )
f.close()
--------------------------------------------------------------------------

    Molecular point group: c1

    Geometry (in Angstrom), charge = 0, multiplicity = 1:

       Center              X                  Y                   Z               Mass
    ------------   -----------------  -----------------  -----------------  -----------------
           O         -2.470346179143    -0.399823432250    -0.803836833866    15.994914619560
           C         -1.951760179143     0.600347567750    -0.425685833866    12.000000000000
           C         -2.655077179143     1.916030567750    -0.229039833866    12.000000000000
           O         -0.663182179143     0.690680567750    -0.128439833866    15.994914619560
           H         -2.198724179143     2.672684567750    -0.856864833866     1.007825032070
           H         -3.700147179143     1.809330567750    -0.478598833866     1.007825032070
           H         -2.549972179143     2.237000567750     0.800857166134     1.007825032070
           C          0.130283820857    -0.483823432250    -0.273776833866    12.000000000000
           C          1.559019820857    -0.136720432250     0.100854166134    12.000000000000
           H          0.059228820857    -0.831698432250    -1.296038833866     1.007825032070
           H         -0.269066179143    -1.256193432250     0.369629166134     1.007825032070
           C          2.349585820857    -1.308030432250     0.686889166134    12.000000000000
           H          1.519089820857     0.675115567750     0.824221166134     1.007825032070
           H          2.067896820857     0.251531567750    -0.777532833866     1.007825032070
           C          3.774148820857    -0.916719432250     1.077396166134    12.000000000000
           H          1.827229820857    -1.691171432250     1.561216166134     1.007825032070
           H          2.379727820857    -2.117607432250    -0.034937833866     1.007825032070
           H          4.313815820857    -1.763702432250     1.488992166134     1.007825032070
           H          3.775330820857    -0.128745432250     1.825308166134     1.007825032070
           H          4.331273820857    -0.556316432250     0.217280166134     1.007825032070

  Charge       = 0
  Multiplicity = 1
  Basis Set: 6-31G*
  Basis Set:

    Orbital Energies (a.u.)
    -----------------------

    Doubly Occupied:

       1A    -20.601366     2A    -20.543544     3A    -11.373912
       4A    -11.281226     5A    -11.232979     6A    -11.226211
       7A    -11.223351     8A    -11.215965     9A     -1.467383
      10A     -1.361641    11A     -1.087464    12A     -1.029675
      13A     -0.980983    14A     -0.881313    15A     -0.807834
      16A     -0.777523    17A     -0.691154    18A     -0.684715
      19A     -0.667929    20A     -0.637259    21A     -0.596589
      22A     -0.593782    23A     -0.570223    24A     -0.558256
      25A     -0.544777    26A     -0.520435    27A     -0.509055
      28A     -0.483749    29A     -0.481199    30A     -0.475530
      31A     -0.450426    32A     -0.436904

  @DF-RHF Final Energy:  -383.94255359987807

   => Energetics <=

    Nuclear Repulsion Energy =            378.9888248845502972
    One-Electron Energy =               -1273.8741272057100105
    Two-Electron Energy =                 510.9427487212798269
    DFT Exchange-Correlation Energy =       0.0000000000000000
    Empirical Dispersion Energy =           0.0000000000000000
    PCM Polarization Energy =               0.0000000000000000
    EFP Energy =                            0.0000000000000000
    Total Energy =                       -383.9425535998799432

  Mulliken Charges: (a.u.)
   Center  Symbol    Alpha    Beta     Spin     Total
       1     O     4.28331  4.28331  0.00000 -0.56662
       2     C     2.61995  2.61995  0.00000  0.76009
       3     C     3.28155  3.28155  0.00000 -0.56309
       4     O     4.31081  4.31081  0.00000 -0.62162
       5     H     0.40046  0.40046  0.00000  0.19908
       6     H     0.39700  0.39700  0.00000  0.20601
       7     H     0.40077  0.40077  0.00000  0.19845
       8     C     2.99649  2.99649  0.00000  0.00702
       9     C     3.16782  3.16782  0.00000 -0.33565
      10     H     0.40951  0.40951  0.00000  0.18097
      11     H     0.41084  0.41084  0.00000  0.17833
      12     C     3.15951  3.15951  0.00000 -0.31901
      13     H     0.40995  0.40995  0.00000  0.18011
      14     H     0.41628  0.41628  0.00000  0.16743
      15     C     3.24006  3.24006  0.00000 -0.48013
      16     H     0.41927  0.41927  0.00000  0.16145
      17     H     0.41983  0.41983  0.00000  0.16033
      18     H     0.41689  0.41689  0.00000  0.16622
      19     H     0.41962  0.41962  0.00000  0.16077
      20     H     0.42007  0.42007  0.00000  0.15985

   Total alpha = 32.00000, Total beta = 32.00000, Total charge =  0.00000
