                              Psi4 1.0.54 Driver

  ==> Input File <==

--------------------------------------------------------------------------
set {
	reference rhf
	basis cc-pvtz
}

set_num_threads( 4 )
memory 2 gb

molecule MOL {
0 1

H	 3.721907	 -0.933076	 -0.066039
O	 2.824271	 -1.154299	 0.131461
C	 2.076458	 -0.067370	 -0.038225
C	 0.626018	 -0.337582	 0.258241
O	 2.538288	 0.965419	 -0.381593
C	 -0.267326	 0.883135	 0.076490
H	 0.325620	 -1.161483	 -0.378003
H	 0.574537	 -0.713685	 1.275261
C	 -1.726822	 0.642622	 0.463839
H	 -0.210803	 1.217591	 -0.953497
H	 0.129920	 1.693110	 0.675679
C	 -2.720118	 0.682017	 -0.696269
H	 -2.011698	 1.400162	 1.187878
H	 -1.812790	 -0.312140	 0.978122
C	 -4.167783	 0.541011	 -0.237075
H	 -2.602745	 1.618966	 -1.234214
H	 -2.498459	 -0.108198	 -1.406470
H	 -4.851223	 0.574228	 -1.077604
H	 -4.441489	 1.339575	 0.444157
H	 -4.324271	 -0.400327	 0.279210

	symmetry c1
}
set optking {
	frozen_dihedral = ("
		12 9 6 10
	")
}

ee,wfn = optimize('scf', return_wfn=True)
oeprop( wfn, 'DIPOLE', 'QUADRUPOLE', 'MULLIKEN_CHARGES')
f=open( 'psi4out.xyz', 'w' )
f.write( "20  " )
f.write( str(ee) + "\n" )
f.write( MOL.save_string_xyz() )
f.close()
--------------------------------------------------------------------------

    Molecular point group: c1
  Charge       = 0
  Multiplicity = 1
  Basis Set: CC-PVTZ
  Basis Set:
  @DF-RHF Final Energy:  -384.09074931735097
    Total Energy =                       -384.0907493173509692
    Molecular point group: c1
  Basis Set: CC-PVTZ
  Basis Set:
  Basis Set: CC-PVTZ
  Basis Set:
  @DF-RHF Final Energy:  -384.09115095255873
    Total Energy =                       -384.0911509525588485
  Basis Set: CC-PVTZ
  Basis Set:
  Basis Set: CC-PVTZ
  Basis Set:
  @DF-RHF Final Energy:  -384.09141826594822
    Total Energy =                       -384.0914182659477092
  Basis Set: CC-PVTZ
  Basis Set:
  Basis Set: CC-PVTZ
  Basis Set:
  @DF-RHF Final Energy:  -384.09136772544218
    Total Energy =                       -384.0913677254420691
  Basis Set: CC-PVTZ
  Basis Set:
  Basis Set: CC-PVTZ
  Basis Set:
  @DF-RHF Final Energy:  -384.09141283766280
    Total Energy =                       -384.0914128376626309
  Basis Set: CC-PVTZ
  Basis Set:
  Basis Set: CC-PVTZ
  Basis Set:
  @DF-RHF Final Energy:  -384.09143049126294
    Total Energy =                       -384.0914304912632815
  Basis Set: CC-PVTZ
  Basis Set:
  Charge       = 0
  Multiplicity = 1
  Basis Set: CC-PVTZ
  Basis Set:

    Orbital Energies (a.u.)
    -----------------------

    Doubly Occupied:

       1A    -20.603931     2A    -20.540606     3A    -11.373248
       4A    -11.239471     5A    -11.220613     6A    -11.218245
       7A    -11.217612     8A    -11.209618     9A     -1.477465
      10A     -1.369004    11A     -1.095644    12A     -1.043440
      13A     -0.959681    14A     -0.870449    15A     -0.809256
      16A     -0.788551    17A     -0.703707    18A     -0.691912
      19A     -0.666569    20A     -0.635906    21A     -0.605037
      22A     -0.595646    23A     -0.572313    24A     -0.559365
      25A     -0.543332    26A     -0.502812    27A     -0.500313
      28A     -0.484387    29A     -0.473596    30A     -0.468322
      31A     -0.457627    32A     -0.444271

  @DF-RHF Final Energy:  -384.09143082201763

   => Energetics <=

    Nuclear Repulsion Energy =            373.9667095596589661
    One-Electron Energy =               -1264.2323873652326256
    Two-Electron Energy =                 506.1742469835562588
    DFT Exchange-Correlation Energy =       0.0000000000000000
    Empirical Dispersion Energy =           0.0000000000000000
    PCM Polarization Energy =               0.0000000000000000
    EFP Energy =                            0.0000000000000000
    Total Energy =                       -384.0914308220174007
    Molecular point group: c1
  Basis Set: CC-PVTZ
  Basis Set:

  -Total Gradient:
     Atom            X                  Y                   Z
    ------   -----------------  -----------------  -----------------
       1       -0.000012349224     0.000033841601    -0.000002830977
       2       -0.000066180150    -0.000068904777     0.000006835988
       3        0.000048798897     0.000010496941     0.000015542812
       4       -0.000008197845    -0.000009876612    -0.000034073576
       5       -0.000019182663     0.000058161333    -0.000018115108
       6       -0.000163221529     0.002540395122     0.000886997279
       7        0.000002486499    -0.000025912269     0.000004130365
       8        0.000019995816     0.000016090237     0.000028000715
       9        0.000213515424    -0.002150366998    -0.000472145816
      10        0.000113862628    -0.001636179247    -0.000595038427
      11        0.000015667919    -0.000005937090    -0.000012874154
      12       -0.000130301711     0.001230240051     0.000230916107
      13        0.000012317469     0.000005654658     0.000000296583
      14       -0.000011421284    -0.000011537706    -0.000006058354
      15       -0.000003294869     0.000014763655    -0.000013890635
      16       -0.000026960575     0.000011083521    -0.000004945915
      17       -0.000017640496    -0.000022272695    -0.000014640898
      18        0.000003593909     0.000001136352    -0.000011937095
      19        0.000006950959     0.000017942065     0.000017760756
      20        0.000021560822    -0.000008818141    -0.000003929649

  **** Optimization is complete! (in 7 steps) ****
    Final optimized geometry and variables:
    Molecular point group: c1

    Geometry (in Angstrom), charge = 0, multiplicity = 1:

    H            3.683509002373    -1.351903896048    -0.166300663578
    O            2.790895890893    -1.517187123646     0.097673916522
    C            2.098090503368    -0.389360236250    -0.033896985860
    C            0.659305239029    -0.568401424510     0.368723964648
    O            2.593248643138     0.611078105341    -0.423995309303
    C           -0.177574416478     0.698510339160     0.238687326622
    H            0.255406855454    -1.371792125226    -0.239251685055
    H            0.657030536211    -0.939844947426     1.388169627970
    C           -1.656721151843     0.469596541509     0.607135074990
    H           -0.100791481150     1.051682822362    -0.782150167009
    H            0.257397836263     1.470519836615     0.859244133874
    C           -2.603031602338     0.553478056165    -0.588896614666
    H           -1.965958029876     1.205443808591     1.342285327069
    H           -1.777244395633    -0.496874781977     1.088472401251
    C           -4.060615398316     0.304673302662    -0.218377828360
    H           -2.508024579077     1.533642707651    -1.046836258853
    H           -2.295140942257    -0.165221301682    -1.344457283710
    H           -4.704644307617     0.379246176323    -1.086936273815
    H           -4.406698228763     1.027513369028     0.513043144388
    H           -4.193415583630    -0.684209712712     0.207963592427

  Mulliken Charges: (a.u.)
   Center  Symbol    Alpha    Beta     Spin     Total
       1     H     0.38237  0.38237  0.00000  0.23525
       2     O     4.16022  4.16022  0.00000 -0.32044
       3     C     2.80674  2.80674  0.00000  0.38652
       4     C     3.10890  3.10890  0.00000 -0.21781
       5     O     4.19123  4.19123  0.00000 -0.38246
       6     C     3.09424  3.09424  0.00000 -0.18847
       7     H     0.43757  0.43757  0.00000  0.12487
       8     H     0.43681  0.43681  0.00000  0.12637
       9     C     3.09750  3.09750  0.00000 -0.19501
      10     H     0.44570  0.44570  0.00000  0.10860
      11     H     0.43967  0.43967  0.00000  0.12067
      12     C     3.08204  3.08204  0.00000 -0.16408
      13     H     0.44635  0.44635  0.00000  0.10730
      14     H     0.45609  0.45609  0.00000  0.08782
      15     C     3.15064  3.15064  0.00000 -0.30128
      16     H     0.45138  0.45138  0.00000  0.09724
      17     H     0.45505  0.45505  0.00000  0.08991
      18     H     0.44774  0.44774  0.00000  0.10451
      19     H     0.45454  0.45454  0.00000  0.09092
      20     H     0.45521  0.45521  0.00000  0.08959

   Total alpha = 32.00000, Total beta = 32.00000, Total charge =  0.00000

*** Psi4 exiting successfully. Buy a developer a beer!
