  ==> Input File <==

--------------------------------------------------------------------------
set {
	reference rhf
	basis 6-31G*
}

set_num_threads( 4 )
memory 2 gb

molecule MOL {
0 1

H	 -2.499100	 -0.730091	 -0.745082
O	 -2.347518	 -0.290803	 0.079804
C	 -1.184022	 0.487508	 -0.006784
C	 0.062599	 -0.378592	 0.031606
H	 -1.176523	 1.099369	 -0.904519
H	 -1.187323	 1.153111	 0.844927
O	 1.171513	 0.459272	 -0.058250
H	 0.050699	 -1.089204	 -0.797170
H	 0.078739	 -0.954914	 0.954740
C	 2.203853	 -0.032575	 -0.852922
H	 1.877546	 -0.184310	 -1.880117
H	 3.000545	 0.698234	 -0.842777
H	 2.585442	 -0.976387	 -0.468996

	symmetry c1
}
set optking {
	frozen_dihedral = ("
		10 7 4 8
	")
}

ee = optimize('scf')
oeprop('DIPOLE', 'QUADRUPOLE', 'MULLIKEN_CHARGES')
f=open( 'psi4out.xyz', 'w' )
f.write( "13  " )
f.write( str(ee) + "\n" )
f.write( MOL.save_string_xyz() )
f.close()
--------------------------------------------------------------------------

    Molecular point group: c1
  Charge       = 0
  Multiplicity = 1
  Basis Set: 6-31G*
  Basis Set:
  @DF-RHF Final Energy:  -267.94761480795330
    Total Energy =                       -267.9476148079530731
    Molecular point group: c1
  Basis Set: 6-31G*
  Basis Set:
  Basis Set: 6-31G*
  Basis Set:
  @DF-RHF Final Energy:  -267.94780960181890
    Total Energy =                       -267.9478096018189603
  Basis Set: 6-31G*
  Basis Set:
  Basis Set: 6-31G*
  Basis Set:
  @DF-RHF Final Energy:  -267.94788106208830
    Total Energy =                       -267.9478810620879017
  Basis Set: 6-31G*
  Basis Set:
  Charge       = 0
  Multiplicity = 1
  Basis Set: 6-31G*
  Basis Set:

    Orbital Energies (a.u.)
    -----------------------

    Doubly Occupied:

       1A    -20.560404     2A    -20.560371     3A    -11.271524
       4A    -11.270667     5A    -11.268862     6A     -1.385763
       7A     -1.365051     8A     -1.018075     9A     -0.915718
      10A     -0.841753    11A     -0.709544    12A     -0.668776
      13A     -0.661099    14A     -0.641566    15A     -0.589140
      16A     -0.570288    17A     -0.552408    18A     -0.488954
      19A     -0.475203    20A     -0.452376    21A     -0.411463

  @DF-RHF Final Energy:  -267.94788192540460

   => Energetics <=

    Nuclear Repulsion Energy =            190.2602949885950352
    One-Electron Energy =                -743.0583460089210348
    Two-Electron Energy =                 284.8501690949217391
    DFT Exchange-Correlation Energy =       0.0000000000000000
    Empirical Dispersion Energy =           0.0000000000000000
    PCM Polarization Energy =               0.0000000000000000
    EFP Energy =                            0.0000000000000000
    Total Energy =                       -267.9478819254043174
    Molecular point group: c1
  Basis Set: 6-31G*
  Basis Set:

  -Total Gradient:
     Atom            X                  Y                   Z
    ------   -----------------  -----------------  -----------------
       1        0.000014591536     0.000018634605     0.000003604163
       2       -0.000044865250    -0.000004595966     0.000040939350
       3        0.000004966394    -0.000069884628    -0.000041356952
       4       -0.001923428341     0.002570372172    -0.002413038587
       5        0.000019430620     0.000018095250     0.000005674890
       6       -0.000021696378    -0.000029587355    -0.000008078942
       7        0.001426838469    -0.001832802133     0.002674853059
       8        0.001243405393    -0.001639489031     0.001340166425
       9       -0.000020819126     0.000015537326     0.000002496033
      10       -0.000658631735     0.000943451539    -0.001627504197
      11       -0.000034517083     0.000002526048     0.000032181527
      12        0.000022377710    -0.000005832413    -0.000012488177
      13       -0.000027652208     0.000013574586     0.000002551406

  **** Optimization is complete! (in 4 steps) ****
    Final optimized geometry and variables:
    Molecular point group: c1

    Geometry (in Angstrom), charge = 0, multiplicity = 1:

    H           -2.499832348626    -0.768748483045    -0.508994922555
    O           -2.319432595044    -0.309040743797     0.298759938622
    C           -1.152083185787     0.455603336938     0.157745528979
    C            0.090540395755    -0.417856121507     0.173417987367
    H           -1.170477168218     1.051581962352    -0.751027435009
    H           -1.120626269577     1.137632034311     0.995798796687
    O            1.216909733504     0.407551724994     0.109070274729
    H            0.074580218095    -1.121242477016    -0.658569963547
    H            0.107488202642    -1.008555866773     1.085541155660
    C            2.272259298119    -0.064435820324    -0.668083933602
    H            1.969063636923    -0.212400126337    -1.702453631174
    H            3.056167590556     0.679644387428    -0.636325296750
    H            2.665679985659    -1.003575543924    -0.284876455982

  Mulliken Charges: (a.u.)
   Center  Symbol    Alpha    Beta     Spin     Total
       1     H     0.28166  0.28166  0.00000  0.43669
       2     O     4.37039  4.37039  0.00000 -0.74077
       3     C     3.00382  3.00382  0.00000 -0.00764
       4     C     2.99833  2.99833  0.00000  0.00333
       5     H     0.42585  0.42585  0.00000  0.14830
       6     H     0.40731  0.40731  0.00000  0.18539
       7     O     4.30905  4.30905  0.00000 -0.61809
       8     H     0.43703  0.43703  0.00000  0.12594
       9     H     0.41801  0.41801  0.00000  0.16398
      10     C     3.07968  3.07968  0.00000 -0.15935
      11     H     0.42990  0.42990  0.00000  0.14019
      12     H     0.41118  0.41118  0.00000  0.17764
      13     H     0.42780  0.42780  0.00000  0.14440

   Total alpha = 21.00000, Total beta = 21.00000, Total charge = -0.00000
