  ==> Input File <==

--------------------------------------------------------------------------
set {
	reference rhf
	basis 6-31G*
}

set_num_threads( 4 )
memory 2 gb

molecule MOL {
0 1

H	 -3.846121	 1.486311	 -1.021938
O	 -3.132066	 0.911229	 -1.257118
C	 -2.106962	 1.016470	 -0.302824
C	 -0.981358	 0.082476	 -0.710768
H	 -1.739923	 2.040375	 -0.246190
H	 -2.475068	 0.746916	 0.686206
C	 0.198102	 0.111031	 0.262842
H	 -0.650705	 0.360635	 -1.707776
H	 -1.382511	 -0.924549	 -0.784610
C	 1.331804	 -0.827780	 -0.158768
H	 0.571001	 1.129237	 0.342697
H	 -0.145032	 -0.169116	 1.257978
C	 2.723619	 -0.410569	 0.329459
H	 1.342964	 -0.912588	 -1.244120
H	 1.116806	 -1.824343	 0.220779
C	 3.243875	 0.895854	 -0.272975
H	 3.424222	 -1.207124	 0.091250
H	 2.714788	 -0.329854	 1.414619
H	 3.251977	 0.848779	 -1.358681
H	 2.637085	 1.747371	 0.016682
H	 4.259473	 1.094070	 0.055697

	symmetry c1
}
set optking {
	frozen_dihedral = ("
		4 7 10 14
	")
}

ee = optimize('scf')
oeprop('DIPOLE', 'QUADRUPOLE', 'MULLIKEN_CHARGES')
f=open( 'psi4out.xyz', 'w' )
f.write( "21  " )
f.write( str(ee) + "\n" )
f.write( MOL.save_string_xyz() )
f.close()
--------------------------------------------------------------------------

    Molecular point group: c1
  Charge       = 0
  Multiplicity = 1
  Basis Set: 6-31G*
  Basis Set:
  @DF-RHF Final Energy:  -310.20999758660577
    Total Energy =                       -310.2099975866053683
    Molecular point group: c1
  Basis Set: 6-31G*
  Basis Set:
  Basis Set: 6-31G*
  Basis Set:
  @DF-RHF Final Energy:  -310.21019247441171
    Total Energy =                       -310.2101924744115991
  Basis Set: 6-31G*
  Basis Set:
  Basis Set: 6-31G*
  Basis Set:
  @DF-RHF Final Energy:  -310.21043368829174
    Total Energy =                       -310.2104336882915732
  Basis Set: 6-31G*
  Basis Set:
  Basis Set: 6-31G*
  Basis Set:
  @DF-RHF Final Energy:  -310.21045830637416
    Total Energy =                       -310.2104583063741643
  Basis Set: 6-31G*
  Basis Set:
  Basis Set: 6-31G*
  Basis Set:
  @DF-RHF Final Energy:  -310.21046312502472
    Total Energy =                       -310.2104631250245461
  Basis Set: 6-31G*
  Basis Set:
  Charge       = 0
  Multiplicity = 1
  Basis Set: 6-31G*
  Basis Set:

    Orbital Energies (a.u.)
    -----------------------

    Doubly Occupied:

       1A    -20.551801     2A    -11.266934     3A    -11.215600
       4A    -11.215481     5A    -11.213354     6A    -11.210784
       7A    -11.208057     8A     -1.358618     9A     -1.085280
      10A     -1.033161    11A     -0.954285    12A     -0.875065
      13A     -0.806402    14A     -0.781275    15A     -0.692489
      16A     -0.660665    17A     -0.617602    18A     -0.612329
      19A     -0.586278    20A     -0.562932    21A     -0.543811
      22A     -0.520497    23A     -0.504388    24A     -0.488835
      25A     -0.480633    26A     -0.461492    27A     -0.452874
      28A     -0.442803    29A     -0.434031

  @DF-RHF Final Energy:  -310.21046358393914

   => Energetics <=

    Nuclear Repulsion Energy =            312.9609369785265471
    One-Electron Energy =               -1040.6672866342642010
    Two-Electron Energy =                 417.4958860717981679
    DFT Exchange-Correlation Energy =       0.0000000000000000
    Empirical Dispersion Energy =           0.0000000000000000
    PCM Polarization Energy =               0.0000000000000000
    EFP Energy =                            0.0000000000000000
    Total Energy =                       -310.2104635839394859
    Molecular point group: c1
  Basis Set: 6-31G*
  Basis Set:

  -Total Gradient:
     Atom            X                  Y                   Z
    ------   -----------------  -----------------  -----------------
       1        0.000010669898     0.000003315246     0.000005290624
       2        0.000014870824    -0.000014125024    -0.000002781076
       3        0.000000929801     0.000017717769     0.000000209095
       4        0.001137464044     0.002097611032    -0.001427832549
       5        0.000001890504    -0.000003834876     0.000006682994
       6       -0.000004970849    -0.000007756622    -0.000001819011
       7       -0.002147362493    -0.003629700127     0.001988167138
       8       -0.000003833377    -0.000005731022    -0.000008529508
       9        0.000001236393     0.000000821423     0.000010593509
      10        0.003357436536     0.004531892213    -0.000702931314
      11       -0.000002181674    -0.000001653624     0.000003616391
      12        0.000002670131    -0.000009135945     0.000006332844
      13       -0.000009926176    -0.000002672325     0.000008939969
      14       -0.002364016186    -0.002986289449     0.000119631922
      15       -0.000007221849    -0.000003045987    -0.000000277287
      16        0.000017904285     0.000005081696    -0.000006032658
      17       -0.000007988767    -0.000002530776     0.000008878066
      18        0.000004417459     0.000000938360    -0.000000893239
      19        0.000003582255     0.000000756965     0.000002306221
      20       -0.000000479759    -0.000000967964    -0.000005094879
      21       -0.000005090990     0.000009309038    -0.000004457247

  **** Optimization is complete! (in 6 steps) ****
    Final optimized geometry and variables:
    Molecular point group: c1

    Geometry (in Angstrom), charge = 0, multiplicity = 1:

    H           -4.012896042923     1.151670048573    -0.658045997957
    O           -3.274390482374     0.623376238124    -0.925288132456
    C           -2.267530739773     0.690689669911     0.051594318369
    C           -1.101929931110    -0.166391751900    -0.408622642330
    H           -1.940090836989     1.719799425731     0.194113163279
    H           -2.639022384230     0.331144097314     1.010211416399
    C            0.072357084440    -0.152222591885     0.571388535810
    H           -0.774527876603     0.192010246081    -1.380301454765
    H           -1.461081470458    -1.181859679694    -0.555402207413
    C            1.223004273228    -1.076131596452     0.141043834750
    H            0.431626745766     0.870330827272     0.661320499677
    H           -0.264175426288    -0.439628586332     1.565327842189
    C            2.601185651722    -0.680472274543     0.681704677095
    H            1.253278932881    -1.146064829633    -0.944548764939
    H            0.992885413976    -2.084239388919     0.479432800713
    C            3.207104589036     0.554498485740     0.012274423100
    H            3.282695959699    -1.516502664834     0.546583727550
    H            2.532473029805    -0.516760902828     1.755462531137
    H            3.327342172970     0.395878006509    -1.055767589499
    H            2.589755964188     1.436777160413     0.146633839598
    H            4.186317293651     0.777038684699     0.425148968709

  Mulliken Charges: (a.u.)
   Center  Symbol    Alpha    Beta     Spin     Total
       1     H     0.28119  0.28119  0.00000  0.43763
       2     O     4.37174  4.37174  0.00000 -0.74347
       3     C     2.99002  2.99002  0.00000  0.01995
       4     C     3.16022  3.16022  0.00000 -0.32044
       5     H     0.43302  0.43302  0.00000  0.13395
       6     H     0.43278  0.43278  0.00000  0.13443
       7     C     3.16199  3.16199  0.00000 -0.32399
       8     H     0.41418  0.41418  0.00000  0.17165
       9     H     0.41504  0.41504  0.00000  0.16992
      10     C     3.15391  3.15391  0.00000 -0.30781
      11     H     0.42231  0.42231  0.00000  0.15538
      12     H     0.42216  0.42216  0.00000  0.15568
      13     C     3.15365  3.15365  0.00000 -0.30729
      14     H     0.42122  0.42122  0.00000  0.15757
      15     H     0.42052  0.42052  0.00000  0.15897
      16     C     3.24020  3.24020  0.00000 -0.48039
      17     H     0.42067  0.42067  0.00000  0.15867
      18     H     0.42334  0.42334  0.00000  0.15331
      19     H     0.42132  0.42132  0.00000  0.15735
      20     H     0.42115  0.42115  0.00000  0.15769
      21     H     0.41937  0.41937  0.00000  0.16126

   Total alpha = 29.00000, Total beta = 29.00000, Total charge = -0.00000
