  ==> Input File <==

--------------------------------------------------------------------------
set {
	reference rhf
	basis cc-pvtz
}

set_num_threads( 4 )
memory 2 gb

molecule MOL {
0 1

H	 -3.512753	 -0.003713	 -0.727103
O	 -3.101481	 -0.255066	 0.080383
C	 -1.771634	 -0.090851	 0.022605
C	 -1.136527	 0.393628	 -1.114213
C	 -1.036116	 -0.423683	 1.147957
H	 -1.713961	 0.649681	 -1.983370
C	 0.230017	 0.542691	 -1.119816
H	 -1.545456	 -0.795566	 2.014153
C	 0.331539	 -0.268545	 1.126084
H	 0.731905	 0.915452	 -1.990602
C	 0.981121	 0.213562	 0.000000
H	 0.903155	 -0.526448	 1.998586
C	 2.447402	 0.371303	 0.000000
O	 3.227427	 -0.521847	 0.000000
H	 2.796538	 1.409525	 0.000000

	symmetry c1
}
set optking {
	frozen_dihedral = ("
		7 11 13 14
	")
}

ee = optimize('scf')
oeprop('DIPOLE', 'QUADRUPOLE', 'MULLIKEN_CHARGES')
f=open( 'psi4out.xyz', 'w' )
f.write( "15  " )
f.write( str(ee) + "\n" )
f.write( MOL.save_string_xyz() )
f.close()
--------------------------------------------------------------------------

    Molecular point group: c1
  Charge       = 0
  Multiplicity = 1
  Basis Set: CC-PVTZ
  Basis Set:
  @DF-RHF Final Energy:  -418.42833324468296
    Total Energy =                       -418.4283332446825625
    Molecular point group: c1
  Basis Set: CC-PVTZ
  Basis Set:
  Basis Set: CC-PVTZ
  Basis Set:
  @DF-RHF Final Energy:  -418.42845828153520
    Total Energy =                       -418.4284582815349722
  Basis Set: CC-PVTZ
  Basis Set:
  Basis Set: CC-PVTZ
  Basis Set:
  @DF-RHF Final Energy:  -418.42917199875637
    Total Energy =                       -418.4291719987556917
  Basis Set: CC-PVTZ
  Basis Set:
  Basis Set: CC-PVTZ
  Basis Set:
  @DF-RHF Final Energy:  -418.42929780678770
    Total Energy =                       -418.4292978067873037
  Basis Set: CC-PVTZ
  Basis Set:
  Basis Set: CC-PVTZ
  Basis Set:
  @DF-RHF Final Energy:  -418.42930147566125
    Total Energy =                       -418.4293014756610773
  Basis Set: CC-PVTZ
  Basis Set:
  Charge       = 0
  Multiplicity = 1
  Basis Set: CC-PVTZ
  Basis Set:

    Orbital Energies (a.u.)
    -----------------------

    Doubly Occupied:

       1A    -20.597472     2A    -20.559353     3A    -11.329594
       4A    -11.312844     5A    -11.254572     6A    -11.250408
       7A    -11.241253     8A    -11.240831     9A    -11.234282
      10A     -1.429392    11A     -1.413690    12A     -1.172672
      13A     -1.042201    14A     -1.038186    15A     -0.891923
      16A     -0.861249    17A     -0.805403    18A     -0.757377
      19A     -0.706194    20A     -0.685256    21A     -0.654796
      22A     -0.631081    23A     -0.608391    24A     -0.608053
      25A     -0.594210    26A     -0.564143    27A     -0.536927
      28A     -0.505912    29A     -0.496834    30A     -0.425119
      31A     -0.358471    32A     -0.328578

  @DF-RHF Final Energy:  -418.42930216333440

   => Energetics <=

    Nuclear Repulsion Energy =            401.6088243181476969
    One-Electron Energy =               -1365.8029197417561136
    Two-Electron Energy =                 545.7647932602742458
    DFT Exchange-Correlation Energy =       0.0000000000000000
    Empirical Dispersion Energy =           0.0000000000000000
    PCM Polarization Energy =               0.0000000000000000
    EFP Energy =                            0.0000000000000000
    Total Energy =                       -418.4293021633341141
    Molecular point group: c1
  Basis Set: CC-PVTZ
  Basis Set:

  -Total Gradient:
     Atom            X                  Y                   Z
    ------   -----------------  -----------------  -----------------
       1       -0.000012058322     0.000007170789     0.000001567670
       2       -0.000006840314     0.000035227543    -0.000013032203
       3        0.000037240917    -0.000168771991     0.000107241123
       4        0.000095666046     0.000065879596    -0.000049213470
       5       -0.000141557708     0.000035903309    -0.000011534263
       6       -0.000003787526    -0.000005291913     0.000011383786
       7        0.000191001918    -0.005110459009    -0.001724597823
       8        0.000001227607     0.000000465145    -0.000007259111
       9        0.000088485351     0.000085590724    -0.000064690197
      10        0.000020477834     0.000001241442     0.000032989048
      11       -0.000418031008     0.007305810351    -0.000428999715
      12       -0.000007575188     0.000001350203    -0.000002341854
      13        0.000254889386    -0.002039266614     0.008761098614
      14       -0.000132101341    -0.000203820520    -0.006611569654
      15        0.000032962341    -0.000011029053    -0.000001041951

  **** Optimization is complete! (in 6 steps) ****
    Final optimized geometry and variables:
    Molecular point group: c1

    Geometry (in Angstrom), charge = 0, multiplicity = 1:

    H           -3.511276624862    -0.027370219335    -0.765413532846
    O           -3.104387493051    -0.266830733591     0.047685766521
    C           -1.772651433374    -0.080676826474    -0.001136056699
    C           -1.132698041258     0.412403472390    -1.123386817518
    C           -1.038582364733    -0.406097128531     1.128043347553
    H           -1.697201158100     0.652608458444    -2.005546293200
    C            0.236963549710     0.592146117933    -1.107895507518
    H           -1.548001730518    -0.795329413431     1.987011538704
    C            0.327717377186    -0.241828734329     1.123203525713
    H            0.723284472038     0.978018298945    -1.984838261638
    C            0.977990869033     0.279189093122     0.014503108261
    H            0.896217744202    -0.522116757395     1.989214324743
    C            2.468531869893     0.385826562099    -0.021534652192
    O            3.196413855970    -0.545143737002     0.000838369341
    H            2.875458022980     1.396933761854    -0.131005259069

  Mulliken Charges: (a.u.)
   Center  Symbol    Alpha    Beta     Spin     Total
       1     H     0.38657  0.38657  0.00000  0.22687
       2     O     4.16979  4.16979  0.00000 -0.33958
       3     C     2.85468  2.85468  0.00000  0.29064
       4     C     3.12632  3.12632  0.00000 -0.25265
       5     C     3.09819  3.09819  0.00000 -0.19638
       6     H     0.43230  0.43230  0.00000  0.13540
       7     C     3.08315  3.08315  0.00000 -0.16630
       8     H     0.41714  0.41714  0.00000  0.16573
       9     C     3.07437  3.07437  0.00000 -0.14875
      10     H     0.42303  0.42303  0.00000  0.15395
      11     C     2.96578  2.96578  0.00000  0.06844
      12     H     0.41821  0.41821  0.00000  0.16359
      13     C     2.93533  2.93533  0.00000  0.12935
      14     O     4.15798  4.15798  0.00000 -0.31597
      15     H     0.45717  0.45717  0.00000  0.08567

   Total alpha = 32.00000, Total beta = 32.00000, Total charge =  0.00000
