  ==> Input File <==

--------------------------------------------------------------------------
set {
	reference rhf
	basis 6-31G*
}

set_num_threads( 1 )
memory 2 gb

molecule MOL {
0 1

H	 2.591676	 2.013956	 0.335017
O	 3.341076	 1.666752	 -0.126416
C	 3.569581	 0.339145	 0.272707
C	 2.539767	 -0.640285	 -0.279495
H	 4.553106	 0.084646	 -0.100901
H	 3.608576	 0.269204	 1.359154
C	 1.115811	 -0.397273	 0.226630
H	 2.556196	 -0.582511	 -1.364741
H	 2.852081	 -1.648031	 -0.010655
C	 0.080861	 -0.386742	 -0.901902
H	 1.082547	 0.549620	 0.758281
H	 0.850647	 -1.171111	 0.947188
C	 -1.373051	 -0.232161	 -0.440832
H	 0.322974	 0.410600	 -1.602240
H	 0.167962	 -1.316583	 -1.460034
C	 -1.707282	 1.120208	 0.194673
H	 -2.022051	 -0.380616	 -1.301399
H	 -1.614502	 -1.029712	 0.260202
C	 -3.190542	 1.265604	 0.541425
H	 -1.418955	 1.918577	 -0.487664
H	 -1.119782	 1.264602	 1.098164
C	 -3.525750	 2.612158	 1.181809
H	 -3.785236	 1.137291	 -0.360441
H	 -3.482804	 0.463041	 1.215488
H	 -3.275054	 3.435060	 0.518326
H	 -4.583783	 2.685312	 1.413863
H	 -2.974002	 2.755090	 2.106746

	symmetry c1
}
set optking {
	frozen_dihedral = ("
		14 10 7 4,
		14 10 13 16,
		8 4 3 2,
		10 13 16 20,
		20 16 19 22,
		4 3 2 1
	")
}

ee = energy('scf')
oeprop('DIPOLE', 'QUADRUPOLE', 'MULLIKEN_CHARGES')
f=open( 'psi4out.xyz', 'w' )
f.write( "27  " )
f.write( str(ee) + "\n" )
f.write( MOL.save_string_xyz() )
f.close()
--------------------------------------------------------------------------

    Molecular point group: c1

    Geometry (in Angstrom), charge = 0, multiplicity = 1:

       Center              X                  Y                   Z               Mass
    ------------   -----------------  -----------------  -----------------  -----------------
           H          2.454757192655     1.385606011736     0.251500112589     1.007825032070
           O          3.204157192655     1.038402011736    -0.209932887411    15.994914619560
           C          3.432662192655    -0.289204988264     0.189190112589    12.000000000000
           C          2.402848192655    -1.268634988264    -0.363011887411    12.000000000000
           H          4.416187192655    -0.543703988264    -0.184417887411     1.007825032070
           H          3.471657192655    -0.359145988264     1.275637112589     1.007825032070
           C          0.978892192655    -1.025622988264     0.143113112589    12.000000000000
           H          2.419277192655    -1.210860988264    -1.448257887411     1.007825032070
           H          2.715162192655    -2.276380988264    -0.094171887411     1.007825032070
           C         -0.056057807345    -1.015091988264    -0.985418887411    12.000000000000
           H          0.945628192655    -0.078729988264     0.674764112589     1.007825032070
           H          0.713728192655    -1.799460988264     0.863671112589     1.007825032070
           C         -1.509969807345    -0.860510988264    -0.524348887411    12.000000000000
           H          0.186055192655    -0.217749988264    -1.685756887411     1.007825032070
           H          0.031043192655    -1.944932988264    -1.543550887411     1.007825032070
           C         -1.844200807345     0.491858011736     0.111156112589    12.000000000000
           H         -2.158969807345    -1.008965988264    -1.384915887411     1.007825032070
           H         -1.751420807345    -1.658061988264     0.176685112589     1.007825032070
           C         -3.327460807345     0.637254011736     0.457908112589    12.000000000000
           H         -1.555873807345     1.290227011736    -0.571180887411     1.007825032070
           H         -1.256700807345     0.636252011736     1.014647112589     1.007825032070
           C         -3.662668807345     1.983808011736     1.098292112589    12.000000000000
           H         -3.922154807345     0.508941011736    -0.443957887411     1.007825032070
           H         -3.619722807345    -0.165308988264     1.131971112589     1.007825032070
           H         -3.411972807345     2.806710011736     0.434809112589     1.007825032070
           H         -4.720701807345     2.056962011736     1.330346112589     1.007825032070
           H         -3.110920807345     2.126740011736     2.023229112589     1.007825032070

  Charge       = 0
  Multiplicity = 1
  Basis Set: 6-31G*
  Basis Set:

    Orbital Energies (a.u.)
    -----------------------

    Doubly Occupied:

       1A    -20.552428     2A    -11.267025     3A    -11.219643
       4A    -11.216504     5A    -11.216393     6A    -11.215226
       7A    -11.214653     8A    -11.213994     9A    -11.209792
      10A     -1.359277    11A     -1.095219    12A     -1.061729
      13A     -1.011374    14A     -0.948481    15A     -0.888227
      16A     -0.820276    17A     -0.802003    18A     -0.778127
      19A     -0.693744    20A     -0.653171    21A     -0.641985
      22A     -0.611860    23A     -0.594216    24A     -0.583688
      25A     -0.578651    26A     -0.555419    27A     -0.541654
      28A     -0.534514    29A     -0.509473    30A     -0.493016
      31A     -0.487071    32A     -0.470476    33A     -0.466017
      34A     -0.458211    35A     -0.453946    36A     -0.441084
      37A     -0.423636

  @DF-RHF Final Energy:  -388.27657180671542

   => Energetics <=

    Nuclear Repulsion Energy =            464.0497761241085755
    One-Electron Energy =               -1446.0883219655704579
    Two-Electron Energy =                 593.7619740347469133
    DFT Exchange-Correlation Energy =       0.0000000000000000
    Empirical Dispersion Energy =           0.0000000000000000
    PCM Polarization Energy =               0.0000000000000000
    EFP Energy =                            0.0000000000000000
    Total Energy =                       -388.2765718067149692

  Mulliken Charges: (a.u.)
   Center  Symbol    Alpha    Beta     Spin     Total
       1     H     0.27896  0.27896  0.00000  0.44208
       2     O     4.37145  4.37145  0.00000 -0.74290
       3     C     3.00024  3.00024  0.00000 -0.00048
       4     C     3.16285  3.16285  0.00000 -0.32571
       5     H     0.41494  0.41494  0.00000  0.17012
       6     H     0.43189  0.43189  0.00000  0.13621
       7     C     3.15843  3.15843  0.00000 -0.31686
       8     H     0.41259  0.41259  0.00000  0.17482
       9     H     0.42191  0.42191  0.00000  0.15619
      10     C     3.15585  3.15585  0.00000 -0.31170
      11     H     0.43225  0.43225  0.00000  0.13550
      12     H     0.41946  0.41946  0.00000  0.16109
      13     C     3.15397  3.15397  0.00000 -0.30794
      14     H     0.41936  0.41936  0.00000  0.16127
      15     H     0.42021  0.42021  0.00000  0.15958
      16     C     3.15305  3.15305  0.00000 -0.30610
      17     H     0.42114  0.42114  0.00000  0.15773
      18     H     0.42413  0.42413  0.00000  0.15174
      19     C     3.15098  3.15098  0.00000 -0.30196
      20     H     0.42409  0.42409  0.00000  0.15182
      21     H     0.42436  0.42436  0.00000  0.15128
      22     C     3.23932  3.23932  0.00000 -0.47863
      23     H     0.42255  0.42255  0.00000  0.15491
      24     H     0.42299  0.42299  0.00000  0.15403
      25     H     0.42156  0.42156  0.00000  0.15689
      26     H     0.41901  0.41901  0.00000  0.16199
      27     H     0.42249  0.42249  0.00000  0.15503

   Total alpha = 37.00000, Total beta = 37.00000, Total charge =  0.00000
