                              Psi4 1.0.54 Driver

  ==> Input File <==

--------------------------------------------------------------------------
set {
	reference rhf
	basis cc-pvtz
}

set_num_threads( 4 )
memory 2 gb

molecule MOL {
0 1

O	 0.749630	 1.305591	 -0.000460
C	 0.576499	 0.134701	 -0.003900
C	 -0.765656	 -0.550508	 -0.002152
O	 1.564816	 -0.744612	 -0.000631
C	 -1.945526	 0.411052	 0.000603
H	 -0.794329	 -1.203792	 -0.868145
H	 -0.791555	 -1.205429	 0.862701
C	 -1.591894	 1.751855	 0.634728
H	 -2.774198	 -0.041720	 0.531351
H	 -2.285924	 0.561777	 -1.016643
H	 -1.277613	 1.630101	 1.666092
H	 -2.444635	 2.419860	 0.626687
H	 -0.784382	 2.240884	 0.099841
C	 2.884339	 -0.237801	 0.002883
H	 3.064150	 0.362814	 -0.876312
H	 3.533055	 -1.098529	 0.004958
H	 3.059365	 0.363432	 0.882614

	symmetry c1
}
set optking {
	frozen_dihedral = ("
		9 5 3 6
	")
}

ee,wfn = optimize('scf', return_wfn=True)
oeprop( wfn, 'DIPOLE', 'QUADRUPOLE', 'MULLIKEN_CHARGES')
f=open( 'psi4out.xyz', 'w' )
f.write( "17  " )
f.write( str(ee) + "\n" )
f.write( MOL.save_string_xyz() )
f.close()
--------------------------------------------------------------------------

    Molecular point group: c1
  Charge       = 0
  Multiplicity = 1
  Basis Set: CC-PVTZ
  Basis Set:
  @DF-RHF Final Energy:  -345.00738388456494
    Total Energy =                       -345.0073838845650016
    Molecular point group: c1
  Basis Set: CC-PVTZ
  Basis Set:
  Basis Set: CC-PVTZ
  Basis Set:
  @DF-RHF Final Energy:  -345.02218459776520
    Total Energy =                       -345.0221845977649764
  Basis Set: CC-PVTZ
  Basis Set:
  Basis Set: CC-PVTZ
  Basis Set:
  @DF-RHF Final Energy:  -345.02485740984076
    Total Energy =                       -345.0248574098407630
  Basis Set: CC-PVTZ
  Basis Set:
  Basis Set: CC-PVTZ
  Basis Set:
  @DF-RHF Final Energy:  -345.02250266081802
    Total Energy =                       -345.0225026608180769
  Basis Set: CC-PVTZ
  Basis Set:
  @DF-RHF Final Energy:  -345.02646888275785
    Total Energy =                       -345.0264688827579107
  @DF-RHF Final Energy:  -345.02720854277482
    Total Energy =                       -345.0272085427748721
  @DF-RHF Final Energy:  -345.02393353712370
    Total Energy =                       -345.0239335371237530
  @DF-RHF Final Energy:  -345.02830994863149
    Total Energy =                       -345.0283099486318292
  @DF-RHF Final Energy:  -345.02868696717496
    Total Energy =                       -345.0286869671749059
  @DF-RHF Final Energy:  -345.02891716199224
    Total Energy =                       -345.0289171619924673
  @DF-RHF Final Energy:  -345.02898826293779
    Total Energy =                       -345.0289882629376166
  @DF-RHF Final Energy:  -345.02905328960935
    Total Energy =                       -345.0290532896098625
  @DF-RHF Final Energy:  -345.02907295337491
    Total Energy =                       -345.0290729533745662
  @DF-RHF Final Energy:  -345.02913491078277
    Total Energy =                       -345.0291349107824317
  @DF-RHF Final Energy:  -345.02917706394226
    Total Energy =                       -345.0291770639421429
  Basis Set: CC-PVTZ
  Basis Set:
  @DF-RHF Final Energy:  -345.02918461462480
    Total Energy =                       -345.0291846146247394
  Basis Set: CC-PVTZ
  Basis Set:
  Basis Set: CC-PVTZ
  Basis Set:
  @DF-RHF Final Energy:  -345.02919327117695
    Total Energy =                       -345.0291932711770073
  Basis Set: CC-PVTZ
  Basis Set:
  Basis Set: CC-PVTZ
  Basis Set:
  @DF-RHF Final Energy:  -345.02919605600698
    Total Energy =                       -345.0291960560070379
  Basis Set: CC-PVTZ
  Basis Set:
  Charge       = 0
  Multiplicity = 1
  Basis Set: CC-PVTZ
  Basis Set:

    Orbital Energies (a.u.)
    -----------------------

    Doubly Occupied:

       1A    -20.598737     2A    -20.530793     3A    -11.363672
       4A    -11.278675     5A    -11.232832     6A    -11.229880
       7A    -11.212136     8A     -1.472489     9A     -1.364311
      10A     -1.080936    11A     -0.998103    12A     -0.943906
      13A     -0.834161    14A     -0.770445    15A     -0.695013
      16A     -0.683079    17A     -0.674643    18A     -0.633757
      19A     -0.609806    20A     -0.577894    21A     -0.557978
      22A     -0.540983    23A     -0.527620    24A     -0.498399
      25A     -0.484701    26A     -0.483088    27A     -0.458427
      28A     -0.435265

  @DF-RHF Final Energy:  -345.02919683868021

   => Energetics <=

    Nuclear Repulsion Energy =            322.5548849817191126
    One-Electron Energy =               -1109.6247025451530135
    Two-Electron Energy =                 442.0406207247535804
    DFT Exchange-Correlation Energy =       0.0000000000000000
    Empirical Dispersion Energy =           0.0000000000000000
    PCM Polarization Energy =               0.0000000000000000
    EFP Energy =                            0.0000000000000000
    Total Energy =                       -345.0291968386802637
    Molecular point group: c1
  Basis Set: CC-PVTZ
  Basis Set:

  -Total Gradient:
     Atom            X                  Y                   Z
    ------   -----------------  -----------------  -----------------
       1        0.000002509764    -0.000011353309     0.000022122558
       2       -0.000011583776     0.000033842333    -0.000066164275
       3       -0.003839872106    -0.005299989511     0.003342602291
       4        0.000013521236    -0.000023642247     0.000049722814
       5       -0.000953207282    -0.000282862549    -0.007084969100
       6        0.003363827715     0.004491019745    -0.001754612803
       7       -0.000000478784    -0.000001372947    -0.000007014718
       8        0.000002994803     0.000000318651     0.000009837845
       9        0.001436485547     0.001085492711     0.005518001634
      10       -0.000001037296     0.000001622037     0.000003225941
      11       -0.000001176605     0.000000679890    -0.000006078217
      12        0.000001199097    -0.000000296925    -0.000003056504
      13       -0.000001740908    -0.000000686294    -0.000001607797
      14       -0.000014965258     0.000009064602    -0.000029182635
      15        0.000007818301    -0.000005259155    -0.000001409905
      16       -0.000005851914    -0.000006416877     0.000002815684
      17        0.000001557470     0.000009839844     0.000005767191

  **** Optimization is complete! (in 19 steps) ****
    Final optimized geometry and variables:
    Molecular point group: c1

    Geometry (in Angstrom), charge = 0, multiplicity = 1:

    O            0.886467600277     0.474673203144    -1.191147036619
    C            0.436306966617    -0.259765461212    -0.377272497109
    C           -0.886314655972    -0.972955382770    -0.522989331724
    O            1.046475122124    -0.537394074601     0.761473273505
    C           -2.094197911158    -0.019166693563    -0.395645961540
    H           -0.860344225428    -1.383368059492    -1.523996530985
    H           -0.944064944895    -1.772344159357     0.199941808221
    C           -1.913063186967     1.115439506861     0.613074291432
    H           -2.938443346893    -0.610246157915    -0.060255666974
    H           -2.335284128194     0.394684799102    -1.365304261578
    H           -1.664476957180     0.732174236617     1.596825079550
    H           -2.830560569707     1.684684397896     0.702431283855
    H           -1.130999082975     1.800422339216     0.309892594905
    C            2.291824386529     0.088824126982     0.998023478880
    H            3.005211235900    -0.182814675411     0.234375202118
    H            2.623704330912    -0.263673682587     1.961070814520
    H            2.181629488167     1.162956369994     1.011341009618

  Mulliken Charges: (a.u.)
   Center  Symbol    Alpha    Beta     Spin     Total
       1     O     4.20771  4.20771  0.00000 -0.41542
       2     C     2.79352  2.79352  0.00000  0.41295
       3     C     3.09834  3.09834  0.00000 -0.19667
       4     O     4.14989  4.14989  0.00000 -0.29979
       5     C     3.08353  3.08353  0.00000 -0.16706
       6     H     0.43830  0.43830  0.00000  0.12341
       7     H     0.43929  0.43929  0.00000  0.12143
       8     C     3.15845  3.15845  0.00000 -0.31691
       9     H     0.45043  0.45043  0.00000  0.09914
      10     H     0.44628  0.44628  0.00000  0.10745
      11     H     0.45060  0.45060  0.00000  0.09880
      12     H     0.44657  0.44657  0.00000  0.10686
      13     H     0.44830  0.44830  0.00000  0.10340
      14     C     3.03748  3.03748  0.00000 -0.07497
      15     H     0.45204  0.45204  0.00000  0.09593
      16     H     0.44517  0.44517  0.00000  0.10965
      17     H     0.45410  0.45410  0.00000  0.09179

   Total alpha = 28.00000, Total beta = 28.00000, Total charge = -0.00000

*** Psi4 exiting successfully. Buy a developer a beer!
