  ==> Input File <==

--------------------------------------------------------------------------
set {
	reference rhf
	basis 6-31G*
}

set_num_threads( 1 )
memory 2 gb

molecule MOL {
0 1

H	 -3.261111	 -0.295142	 1.469456
C	 -3.306842	 -0.277400	 0.373456
C	 -2.660244	 0.921717	 -0.272021
O	 -3.838538	 -1.161155	 -0.216482
C	 -2.804519	 2.194671	 0.573572
H	 -1.619819	 0.687024	 -0.464747
H	 -3.152036	 1.072073	 -1.232328
C	 -2.030921	 2.141613	 1.893432
H	 -2.457440	 3.039199	 -0.014299
H	 -3.859140	 2.378111	 0.773277
C	 -2.174472	 3.420928	 2.720209
H	 -0.978822	 1.961727	 1.682302
H	 -2.368289	 1.292696	 2.485093
C	 -1.386602	 3.370724	 4.031959
H	 -1.845956	 4.266215	 2.120794
H	 -3.227486	 3.591831	 2.940072
C	 -1.565935	 4.597894	 4.933050
H	 -0.328393	 3.238945	 3.811681
H	 -1.692510	 2.486932	 4.587878
C	 -1.003928	 5.898048	 4.355670
H	 -1.077271	 4.399631	 5.883759
H	 -2.622582	 4.728802	 5.157284
H	 0.048620	 5.791481	 4.106564
H	 -1.527677	 6.203125	 3.455898
H	 -1.092486	 6.707955	 5.073446

	symmetry c1
}
set optking {
	frozen_dihedral = ("
		6 3 5 8,
		3 5 8 12,
		12 8 11 14,
		8 11 14 18,
		20 17 14 18
	")
}

ee = energy('scf')
oeprop('DIPOLE', 'QUADRUPOLE', 'MULLIKEN_CHARGES')
f=open( 'psi4out.xyz', 'w' )
f.write( "25  " )
f.write( str(ee) + "\n" )
f.write( MOL.save_string_xyz() )
f.close()
--------------------------------------------------------------------------

    Molecular point group: c1

    Geometry (in Angstrom), charge = 0, multiplicity = 1:

       Center              X                  Y                   Z               Mass
    ------------   -----------------  -----------------  -----------------  -----------------
           H         -0.951527485124    -2.641375881705    -0.575600013889     1.007825032070
           C         -0.997258485124    -2.623633881705    -1.671600013889    12.000000000000
           C         -0.350660485124    -1.424516881705    -2.317077013889    12.000000000000
           O         -1.528954485124    -3.507388881705    -2.261538013889    15.994914619560
           C         -0.494935485124    -0.151562881705    -1.471484013889    12.000000000000
           H          0.689764514876    -1.659209881705    -2.509803013889     1.007825032070
           H         -0.842452485124    -1.274160881705    -3.277384013889     1.007825032070
           C          0.278662514876    -0.204620881705    -0.151624013889    12.000000000000
           H         -0.147856485124     0.692965118295    -2.059355013889     1.007825032070
           H         -1.549556485124     0.031877118295    -1.271779013889     1.007825032070
           C          0.135111514876     1.074694118295     0.675152986111    12.000000000000
           H          1.330761514876    -0.384506881705    -0.362754013889     1.007825032070
           H         -0.058705485124    -1.053537881705     0.440036986111     1.007825032070
           C          0.922981514876     1.024490118295     1.986902986111    12.000000000000
           H          0.463627514876     1.919981118295     0.075737986111     1.007825032070
           H         -0.917902485124     1.245597118295     0.895015986111     1.007825032070
           C          0.743648514876     2.251660118295     2.887993986111    12.000000000000
           H          1.981190514876     0.892711118295     1.766624986111     1.007825032070
           H          0.617073514876     0.140698118295     2.542821986111     1.007825032070
           C          1.305655514876     3.551814118295     2.310613986111    12.000000000000
           H          1.232312514876     2.053397118295     3.838702986111     1.007825032070
           H         -0.312998485124     2.382568118295     3.112227986111     1.007825032070
           H          2.358203514876     3.445247118295     2.061507986111     1.007825032070
           H          0.781906514876     3.856891118295     1.410841986111     1.007825032070
           H          1.217097514876     4.361721118295     3.028389986111     1.007825032070

  Charge       = 0
  Multiplicity = 1
  Basis Set: 6-31G*
  Basis Set:

    Orbital Energies (a.u.)
    -----------------------

    Doubly Occupied:

       1A    -20.561089     2A    -11.325209     3A    -11.234905
       4A    -11.234315     5A    -11.227844     6A    -11.222497
       7A    -11.220346     8A    -11.219753     9A    -11.212482
      10A     -1.401171    11A     -1.106633    12A     -1.071566
      13A     -1.014605    14A     -0.943182    15A     -0.876416
      16A     -0.828738    17A     -0.784648    18A     -0.783341
      19A     -0.668672    20A     -0.662650    21A     -0.634167
      22A     -0.619701    23A     -0.610379    24A     -0.597281
      25A     -0.563285    26A     -0.560655    27A     -0.544071
      28A     -0.521094    29A     -0.507899    30A     -0.503851
      31A     -0.489980    32A     -0.481281    33A     -0.467516
      34A     -0.461968    35A     -0.443722    36A     -0.406036

  @DF-RHF Final Energy:  -387.11881015162038

   => Energetics <=

    Nuclear Repulsion Energy =            436.9578772769606871
    One-Electron Energy =               -1390.1274569389672706
    Two-Electron Energy =                 566.0507695103850665
    DFT Exchange-Correlation Energy =       0.0000000000000000
    Empirical Dispersion Energy =           0.0000000000000000
    PCM Polarization Energy =               0.0000000000000000
    EFP Energy =                            0.0000000000000000
    Total Energy =                       -387.1188101516214601

  Mulliken Charges: (a.u.)
   Center  Symbol    Alpha    Beta     Spin     Total
       1     H     0.43065  0.43065  0.00000  0.13869
       2     C     2.83073  2.83073  0.00000  0.33854
       3     C     3.20989  3.20989  0.00000 -0.41978
       4     O     4.24037  4.24037  0.00000 -0.48075
       5     C     3.16765  3.16765  0.00000 -0.33530
       6     H     0.40222  0.40222  0.00000  0.19555
       7     H     0.39828  0.39828  0.00000  0.20343
       8     C     3.15863  3.15863  0.00000 -0.31726
       9     H     0.41228  0.41228  0.00000  0.17543
      10     H     0.41588  0.41588  0.00000  0.16824
      11     C     3.15339  3.15339  0.00000 -0.30679
      12     H     0.42051  0.42051  0.00000  0.15899
      13     H     0.42113  0.42113  0.00000  0.15774
      14     C     3.15310  3.15310  0.00000 -0.30620
      15     H     0.42005  0.42005  0.00000  0.15990
      16     H     0.42247  0.42247  0.00000  0.15505
      17     C     3.15281  3.15281  0.00000 -0.30562
      18     H     0.42354  0.42354  0.00000  0.15293
      19     H     0.42174  0.42174  0.00000  0.15652
      20     C     3.24148  3.24148  0.00000 -0.48296
      21     H     0.41996  0.41996  0.00000  0.16008
      22     H     0.42270  0.42270  0.00000  0.15461
      23     H     0.42201  0.42201  0.00000  0.15598
      24     H     0.42028  0.42028  0.00000  0.15944
      25     H     0.41823  0.41823  0.00000  0.16353

   Total alpha = 36.00000, Total beta = 36.00000, Total charge = -0.00000
