                              Psi4 1.0.54 Driver

  ==> Input File <==

--------------------------------------------------------------------------
set {
	reference rhf
	basis cc-pvtz
}

set_num_threads( 4 )
memory 2 gb

molecule MOL {
0 1

H	 -2.261112	 1.243578	 1.161982
C	 -2.432592	 0.271150	 0.720168
C	 -1.167570	 -0.572450	 0.749690
H	 -2.769873	 0.429654	 -0.295377
H	 -3.225133	 -0.220607	 1.271491
C	 0.000000	 0.039916	 0.000014
H	 -1.349913	 -1.557049	 0.327535
H	 -0.845566	 -0.750245	 1.772233
C	 1.286532	 -0.763243	 0.000268
O	 -0.087966	 1.086430	 -0.554466
C	 2.547023	 0.087626	 -0.000114
H	 1.264245	 -1.421103	 -0.864380
H	 1.264290	 -1.420353	 0.865489
H	 2.584452	 0.725630	 -0.872909
H	 3.427035	 -0.544422	 0.000125
H	 2.584484	 0.726356	 0.872143

	symmetry c1
}
set optking {
	frozen_dihedral = ("
		3 6 9 12
	")
}

ee,wfn = optimize('scf', return_wfn=True)
oeprop( wfn, 'DIPOLE', 'QUADRUPOLE', 'MULLIKEN_CHARGES')
f=open( 'psi4out.xyz', 'w' )
f.write( "16  " )
f.write( str(ee) + "\n" )
f.write( MOL.save_string_xyz() )
f.close()
--------------------------------------------------------------------------

    Molecular point group: c1
  Charge       = 0
  Multiplicity = 1
  Basis Set: CC-PVTZ
  Basis Set:
  @DF-RHF Final Energy:  -270.13061217269637
    Total Energy =                       -270.1306121726964875
    Molecular point group: c1
  Basis Set: CC-PVTZ
  Basis Set:
  Basis Set: CC-PVTZ
  Basis Set:
  @DF-RHF Final Energy:  -270.13084467242055
    Total Energy =                       -270.1308446724206647
  Basis Set: CC-PVTZ
  Basis Set:
  Basis Set: CC-PVTZ
  Basis Set:
  @DF-RHF Final Energy:  -270.13105632446843
    Total Energy =                       -270.1310563244685454
  Basis Set: CC-PVTZ
  Basis Set:
  Basis Set: CC-PVTZ
  Basis Set:
  @DF-RHF Final Energy:  -270.13103236104848
    Total Energy =                       -270.1310323610483692
  Basis Set: CC-PVTZ
  Basis Set:
  Basis Set: CC-PVTZ
  Basis Set:
  @DF-RHF Final Energy:  -270.13110177410834
    Total Energy =                       -270.1311017741084584
  Basis Set: CC-PVTZ
  Basis Set:
  Charge       = 0
  Multiplicity = 1
  Basis Set: CC-PVTZ
  Basis Set:

    Orbital Energies (a.u.)
    -----------------------

    Doubly Occupied:

       1A    -20.538056     2A    -11.318065     3A    -11.232802
       4A    -11.231782     5A    -11.214002     6A    -11.211945
       7A     -1.398798     8A     -1.069597     9A     -1.037505
      10A     -0.916529    11A     -0.848011    12A     -0.726071
      13A     -0.668907    14A     -0.645676    15A     -0.623113
      16A     -0.606707    17A     -0.562102    18A     -0.533052
      19A     -0.526957    20A     -0.511743    21A     -0.503174
      22A     -0.495837    23A     -0.483635    24A     -0.399741

  @DF-RHF Final Energy:  -270.13110275259453

   => Energetics <=

    Nuclear Repulsion Energy =            240.3224016658197115
    One-Electron Energy =                -842.2993971334462913
    Two-Electron Energy =                 331.8458927150319369
    DFT Exchange-Correlation Energy =       0.0000000000000000
    Empirical Dispersion Energy =           0.0000000000000000
    PCM Polarization Energy =               0.0000000000000000
    EFP Energy =                            0.0000000000000000
    Total Energy =                       -270.1311027525946429
    Molecular point group: c1
  Basis Set: CC-PVTZ
  Basis Set:

  -Total Gradient:
     Atom            X                  Y                   Z
    ------   -----------------  -----------------  -----------------
       1       -0.000001198253     0.000010365487     0.000004546805
       2        0.000008852794    -0.000017726653    -0.000011054052
       3        0.000347784610     0.000446020066     0.000909016048
       4        0.000012164756    -0.000000983818     0.000009919407
       5        0.000004084605    -0.000000804600     0.000007109200
       6       -0.000339336607    -0.000390964510    -0.001338194048
       7       -0.000012054039    -0.000049920300    -0.000007670569
       8       -0.000020063815    -0.000013071085    -0.000024685230
       9       -0.000646699596    -0.000997757719     0.001153290189
      10        0.000021547710     0.000024527243    -0.000051429007
      11       -0.000006438039     0.000037781215    -0.000013408665
      12        0.000653107087     0.000963377985    -0.000662037041
      13       -0.000017732256    -0.000000191154     0.000012868365
      14        0.000003786659     0.000001241614     0.000006676241
      15       -0.000009158783    -0.000011687402     0.000002816753
      16        0.000001353170    -0.000000206366     0.000002235605

  **** Optimization is complete! (in 6 steps) ****
    Final optimized geometry and variables:
    Molecular point group: c1

    Geometry (in Angstrom), charge = 0, multiplicity = 1:

    H           -2.348100436065     1.238024449636     0.870834606643
    C           -2.489601257747     0.251811776883     0.450368574706
    C           -1.223151813000    -0.579765866395     0.575436543184
    H           -2.770775554281     0.377099791215    -0.587190026645
    H           -3.309314090265    -0.229307918151     0.970422442257
    C           -0.014288249949     0.022757636536    -0.108969076015
    H           -1.369551338751    -1.580790338571     0.177620359147
    H           -0.954300004877    -0.720948107020     1.619756720026
    C            1.230879070761    -0.844386464286    -0.163276546579
    O           -0.034744671659     1.111107417860    -0.584202032433
    C            2.527420524691    -0.043809702737    -0.155848666726
    H            1.159284594584    -1.415005482821    -1.086735955783
    H            1.210658518336    -1.565044643047     0.646151516828
    H            2.548021675417     0.660077523818    -0.975162955897
    H            3.380146185244    -0.705761797182    -0.246105165925
    H            2.633166680999     0.517096968606     0.765278220859

  Mulliken Charges: (a.u.)
   Center  Symbol    Alpha    Beta     Spin     Total
       1     H     0.44609  0.44609  0.00000  0.10781
       2     C     3.14115  3.14115  0.00000 -0.28229
       3     C     3.10081  3.10081  0.00000 -0.20162
       4     H     0.44943  0.44943  0.00000  0.10114
       5     H     0.45072  0.45072  0.00000  0.09856
       6     C     2.87075  2.87075  0.00000  0.25849
       7     H     0.44528  0.44528  0.00000  0.10945
       8     H     0.44572  0.44572  0.00000  0.10855
       9     C     3.09703  3.09703  0.00000 -0.19407
      10     O     4.17439  4.17439  0.00000 -0.34879
      11     C     3.14275  3.14275  0.00000 -0.28550
      12     H     0.44563  0.44563  0.00000  0.10874
      13     H     0.44523  0.44523  0.00000  0.10954
      14     H     0.44114  0.44114  0.00000  0.11772
      15     H     0.45010  0.45010  0.00000  0.09980
      16     H     0.45377  0.45377  0.00000  0.09247

   Total alpha = 24.00000, Total beta = 24.00000, Total charge =  0.00000

*** Psi4 exiting successfully. Buy a developer a beer!
