  ==> Input File <==

--------------------------------------------------------------------------
set {
	reference rhf
	basis cc-pvtz
}

set_num_threads( 4 )
memory 2 gb

molecule MOL {
0 1

H	 -2.427845	 2.335837	 0.927888
O	 -1.747024	 1.743134	 0.668310
C	 -2.302264	 0.528872	 0.237390
C	 -1.175688	 -0.398187	 -0.171891
H	 -2.886117	 0.073153	 1.034391
H	 -2.970809	 0.693693	 -0.605053
C	 0.196029	 0.106276	 0.266738
H	 -1.201873	 -0.515469	 -1.250677
H	 -1.365975	 -1.378728	 0.252664
C	 1.330220	 -0.826136	 -0.155230
H	 0.359542	 1.097229	 -0.145561
H	 0.212134	 0.218135	 1.348778
C	 2.719700	 -0.407669	 0.328325
H	 1.339388	 -0.911200	 -1.239363
H	 1.119001	 -1.821953	 0.224128
C	 3.241564	 0.893452	 -0.276737
H	 3.418299	 -1.204729	 0.093035
H	 2.711776	 -0.323368	 1.411960
H	 3.254204	 0.841071	 -1.360784
H	 2.634460	 1.745075	 0.005842
H	 4.254264	 1.092401	 0.054971

	symmetry c1
}
set optking {
	frozen_dihedral = ("
		2 3 4 8
	")
}

ee = optimize('scf')
oeprop('DIPOLE', 'QUADRUPOLE', 'MULLIKEN_CHARGES')
f=open( 'psi4out.xyz', 'w' )
f.write( "21  " )
f.write( str(ee) + "\n" )
f.write( MOL.save_string_xyz() )
f.close()
--------------------------------------------------------------------------

    Molecular point group: c1
  Charge       = 0
  Multiplicity = 1
  Basis Set: CC-PVTZ
  Basis Set:
  @DF-RHF Final Energy:  -310.32314889033830
    Total Energy =                       -310.3231488903383024
    Molecular point group: c1
  Basis Set: CC-PVTZ
  Basis Set:
  Basis Set: CC-PVTZ
  Basis Set:
  @DF-RHF Final Energy:  -310.32375839904472
    Total Energy =                       -310.3237583990446637
  Basis Set: CC-PVTZ
  Basis Set:
  Basis Set: CC-PVTZ
  Basis Set:
  @DF-RHF Final Energy:  -310.32514724869930
    Total Energy =                       -310.3251472486998637
  Basis Set: CC-PVTZ
  Basis Set:
  Basis Set: CC-PVTZ
  Basis Set:
  @DF-RHF Final Energy:  -310.32521464755524
    Total Energy =                       -310.3252146475550717
  Basis Set: CC-PVTZ
  Basis Set:
  Basis Set: CC-PVTZ
  Basis Set:
  @DF-RHF Final Energy:  -310.32521731159636
    Total Energy =                       -310.3252173115963615
  Basis Set: CC-PVTZ
  Basis Set:
  Basis Set: CC-PVTZ
  Basis Set:
  @DF-RHF Final Energy:  -310.32521997812546
    Total Energy =                       -310.3252199781254035
  Basis Set: CC-PVTZ
  Basis Set:
  Charge       = 0
  Multiplicity = 1
  Basis Set: CC-PVTZ
  Basis Set:

    Orbital Energies (a.u.)
    -----------------------

    Doubly Occupied:

       1A    -20.545840     2A    -11.266716     3A    -11.210955
       4A    -11.207561     5A    -11.205150     6A    -11.201774
       7A    -11.200156     8A     -1.363733     9A     -1.079497
      10A     -1.026983    11A     -0.952270    12A     -0.876360
      13A     -0.800549    14A     -0.772710    15A     -0.698647
      16A     -0.655845    17A     -0.618569    18A     -0.603522
      19A     -0.586117    20A     -0.563065    21A     -0.534695
      22A     -0.521469    23A     -0.496220    24A     -0.493635
      25A     -0.483164    26A     -0.457539    27A     -0.448520
      28A     -0.437232    29A     -0.425392

  @DF-RHF Final Energy:  -310.32522008945284

   => Energetics <=

    Nuclear Repulsion Energy =            318.4362255995290525
    One-Electron Energy =               -1052.0551239837170669
    Two-Electron Energy =                 423.2936782947351730
    DFT Exchange-Correlation Energy =       0.0000000000000000
    Empirical Dispersion Energy =           0.0000000000000000
    PCM Polarization Energy =               0.0000000000000000
    EFP Energy =                            0.0000000000000000
    Total Energy =                       -310.3252200894528414
    Molecular point group: c1
  Basis Set: CC-PVTZ
  Basis Set:

  -Total Gradient:
     Atom            X                  Y                   Z
    ------   -----------------  -----------------  -----------------
       1        0.000004232259    -0.000024549748    -0.000005738329
       2        0.000304512373    -0.001143192529     0.003125084059
       3       -0.000939141220     0.000747468981    -0.004028100279
       4        0.003066845895     0.003959422770     0.000467211516
       5        0.000004460411    -0.000024562474    -0.000012636411
       6        0.000003808848    -0.000025999597    -0.000009503862
       7       -0.000002917694    -0.000005998409     0.000029782025
       8       -0.002435528187    -0.003507702129     0.000449326057
       9       -0.000014980743     0.000006165243     0.000006926367
      10        0.000012092417     0.000012782349    -0.000028300317
      11       -0.000009539537    -0.000009706459     0.000001255689
      12       -0.000001704684     0.000003812065    -0.000000786163
      13       -0.000014780715     0.000018466231     0.000022715339
      14       -0.000004769324     0.000001362888    -0.000008792194
      15        0.000005467666     0.000001265342    -0.000005256928
      16        0.000013376271    -0.000003666961    -0.000007223461
      17       -0.000003960425     0.000000241557     0.000005906221
      18       -0.000002367418     0.000005348559     0.000004329301
      19       -0.000004615491     0.000004241868    -0.000004698449
      20        0.000016508634    -0.000011155504     0.000005549827
      21        0.000003000665    -0.000004044038    -0.000007050009

  **** Optimization is complete! (in 7 steps) ****
    Final optimized geometry and variables:
    Molecular point group: c1

    Geometry (in Angstrom), charge = 0, multiplicity = 1:

    H           -2.907656649839     2.027833867781     0.782414165808
    O           -2.167360428870     1.500705898497     0.545788398544
    C           -2.606435379323     0.239685263657     0.108225541136
    C           -1.416388276108    -0.636250405256    -0.320600074882
    H           -3.142949325476    -0.251323500627     0.915550871832
    H           -3.300067028877     0.348502246119    -0.719971841241
    C           -0.040832569682    -0.150324403088     0.129248497357
    H           -1.431437966779    -0.765135978924    -1.398240535828
    H           -1.580264133639    -1.632553946009     0.079831404870
    C            1.068692000153    -1.110522729649    -0.295557964484
    H            0.139033061674     0.836294578017    -0.274352149103
    H           -0.030407644751    -0.041950324546     1.209409440067
    C            2.467824655406    -0.719878761605     0.184280396703
    H            1.075948970287    -1.197515256077    -1.380137641522
    H            0.840465715103    -2.102749722496     0.085076668699
    C            3.016202016999     0.566434690056    -0.428745453368
    H            3.149641353866    -1.532946341935    -0.046568391871
    H            2.461974969054    -0.628356199844     1.267248158662
    H            3.026799272360     0.507044219287    -1.512555847489
    H            2.426296439730     1.431144545804    -0.150922837469
    H            4.033365643416     0.745976450090    -0.099110346685

  Mulliken Charges: (a.u.)
   Center  Symbol    Alpha    Beta     Spin     Total
       1     H     0.39977  0.39977  0.00000  0.20045
       2     O     4.18973  4.18973  0.00000 -0.37946
       3     C     2.96712  2.96712  0.00000  0.06577
       4     C     3.10597  3.10597  0.00000 -0.21194
       5     H     0.47272  0.47272  0.00000  0.05456
       6     H     0.46996  0.46996  0.00000  0.06007
       7     C     3.08469  3.08469  0.00000 -0.16937
       8     H     0.45316  0.45316  0.00000  0.09367
       9     H     0.45511  0.45511  0.00000  0.08978
      10     C     3.09588  3.09588  0.00000 -0.19176
      11     H     0.44377  0.44377  0.00000  0.11246
      12     H     0.45163  0.45163  0.00000  0.09675
      13     C     3.08941  3.08941  0.00000 -0.17883
      14     H     0.45599  0.45599  0.00000  0.08802
      15     H     0.45187  0.45187  0.00000  0.09627
      16     C     3.15249  3.15249  0.00000 -0.30499
      17     H     0.44997  0.44997  0.00000  0.10005
      18     H     0.45527  0.45527  0.00000  0.08945
      19     H     0.45603  0.45603  0.00000  0.08794
      20     H     0.45163  0.45163  0.00000  0.09674
      21     H     0.44782  0.44782  0.00000  0.10435

   Total alpha = 29.00000, Total beta = 29.00000, Total charge = -0.00000
