  ==> Input File <==

--------------------------------------------------------------------------
set {
	reference rhf
	basis 6-31G*
}

set_num_threads( 1 )
memory 2 gb

molecule MOL {
0 1

H	 -0.581611	 3.241368	 -1.528060
C	 0.093974	 3.118985	 -0.672356
C	 -0.524859	 2.472542	 0.540808
O	 1.221836	 3.485655	 -0.744678
C	 -1.220012	 1.144545	 0.209990
H	 0.247118	 2.342436	 1.290363
H	 -1.259757	 3.172600	 0.936407
C	 -0.252658	 0.041456	 -0.226725
H	 -1.769370	 0.816081	 1.087259
H	 -1.963565	 1.310035	 -0.568149
C	 1.180775	 0.282413	 0.250794
H	 -0.266029	 -0.034465	 -1.312038
H	 -0.597733	 -0.921000	 0.146291
C	 2.148627	 -0.814315	 -0.201312
H	 1.516199	 1.249228	 -0.115937
H	 1.192670	 0.346017	 1.338083
C	 3.580890	 -0.659131	 0.322722
H	 2.166869	 -0.852443	 -1.289387
H	 1.762857	 -1.776509	 0.128956
C	 4.324889	 0.564933	 -0.213704
H	 4.142010	 -1.551473	 0.056605
H	 3.564836	 -0.624694	 1.410140
H	 4.342616	 0.565491	 -1.300421
H	 3.866655	 1.493402	 0.110242
H	 5.353900	 0.572371	 0.132816

	symmetry c1
}
set optking {
	frozen_dihedral = ("
		6 3 5 8,
		6 3 2 4,
		12 8 11 14,
		8 11 14 18,
		20 17 14 18
	")
}

ee = energy('scf')
oeprop('DIPOLE', 'QUADRUPOLE', 'MULLIKEN_CHARGES')
f=open( 'psi4out.xyz', 'w' )
f.write( "25  " )
f.write( str(ee) + "\n" )
f.write( MOL.save_string_xyz() )
f.close()
--------------------------------------------------------------------------

    Molecular point group: c1

    Geometry (in Angstrom), charge = 0, multiplicity = 1:

       Center              X                  Y                   Z               Mass
    ------------   -----------------  -----------------  -----------------  -----------------
           H         -1.779005185646     2.156515033265    -1.440164409246     1.007825032070
           C         -1.103420185646     2.034132033265    -0.584460409246    12.000000000000
           C         -1.722253185646     1.387689033265     0.628703590754    12.000000000000
           O          0.024441814354     2.400802033265    -0.656782409246    15.994914619560
           C         -2.417406185646     0.059692033265     0.297885590754    12.000000000000
           H         -0.950276185646     1.257583033265     1.378258590754     1.007825032070
           H         -2.457151185646     2.087747033265     1.024302590754     1.007825032070
           C         -1.450052185646    -1.043396966735    -0.138829409246    12.000000000000
           H         -2.966764185646    -0.268771966735     1.175154590754     1.007825032070
           H         -3.160959185646     0.225182033265    -0.480253409246     1.007825032070
           C         -0.016619185646    -0.802439966735     0.338689590754    12.000000000000
           H         -1.463423185646    -1.119317966735    -1.224142409246     1.007825032070
           H         -1.795127185646    -2.005852966735     0.234186590754     1.007825032070
           C          0.951232814354    -1.899167966735    -0.113416409246    12.000000000000
           H          0.318804814354     0.164375033265    -0.028041409246     1.007825032070
           H         -0.004724185646    -0.738835966735     1.425978590754     1.007825032070
           C          2.383495814354    -1.743983966735     0.410617590754    12.000000000000
           H          0.969474814354    -1.937295966735    -1.201491409246     1.007825032070
           H          0.565462814354    -2.861361966735     0.216851590754     1.007825032070
           C          3.127494814354    -0.519919966735    -0.125808409246    12.000000000000
           H          2.944615814354    -2.636325966735     0.144500590754     1.007825032070
           H          2.367441814354    -1.709546966735     1.498035590754     1.007825032070
           H          3.145221814354    -0.519361966735    -1.212525409246     1.007825032070
           H          2.669260814354     0.408549033265     0.198137590754     1.007825032070
           H          4.156505814354    -0.512481966735     0.220711590754     1.007825032070

  Charge       = 0
  Multiplicity = 1
  Basis Set: 6-31G*
  Basis Set:

    Orbital Energies (a.u.)
    -----------------------

    Doubly Occupied:

       1A    -20.565378     2A    -11.329287     3A    -11.234684
       4A    -11.233874     5A    -11.220841     6A    -11.211029
       7A    -11.210448     8A    -11.210042     9A    -11.199808
      10A     -1.406569    11A     -1.105530    12A     -1.062565
      13A     -1.003729    14A     -0.941766    15A     -0.877554
      16A     -0.819061    17A     -0.786843    18A     -0.766633
      19A     -0.670866    20A     -0.661938    21A     -0.633358
      22A     -0.618660    23A     -0.599607    24A     -0.596639
      25A     -0.564656    26A     -0.545659    27A     -0.537799
      28A     -0.524121    29A     -0.510133    30A     -0.497063
      31A     -0.473651    32A     -0.471926    33A     -0.456339
      34A     -0.446164    35A     -0.439760    36A     -0.411440

  @DF-RHF Final Energy:  -387.11038987387616

   => Energetics <=

    Nuclear Repulsion Energy =            465.3469794943324018
    One-Electron Energy =               -1447.2240219046566381
    Two-Electron Energy =                 594.7666525364455765
    DFT Exchange-Correlation Energy =       0.0000000000000000
    Empirical Dispersion Energy =           0.0000000000000000
    PCM Polarization Energy =               0.0000000000000000
    EFP Energy =                            0.0000000000000000
    Total Energy =                       -387.1103898738787166

  Mulliken Charges: (a.u.)
   Center  Symbol    Alpha    Beta     Spin     Total
       1     H     0.42943  0.42943  0.00000  0.14115
       2     C     2.83084  2.83084  0.00000  0.33833
       3     C     3.21775  3.21775  0.00000 -0.43549
       4     O     4.23917  4.23917  0.00000 -0.47833
       5     C     3.16521  3.16521  0.00000 -0.33042
       6     H     0.39508  0.39508  0.00000  0.20985
       7     H     0.40392  0.40392  0.00000  0.19215
       8     C     3.15782  3.15782  0.00000 -0.31565
       9     H     0.41129  0.41129  0.00000  0.17742
      10     H     0.41722  0.41722  0.00000  0.16557
      11     C     3.17537  3.17537  0.00000 -0.35075
      12     H     0.42031  0.42031  0.00000  0.15938
      13     H     0.41708  0.41708  0.00000  0.16583
      14     C     3.14951  3.14951  0.00000 -0.29901
      15     H     0.39878  0.39878  0.00000  0.20245
      16     H     0.42477  0.42477  0.00000  0.15045
      17     C     3.15219  3.15219  0.00000 -0.30438
      18     H     0.42426  0.42426  0.00000  0.15148
      19     H     0.42469  0.42469  0.00000  0.15062
      20     C     3.24324  3.24324  0.00000 -0.48647
      21     H     0.42217  0.42217  0.00000  0.15566
      22     H     0.42467  0.42467  0.00000  0.15066
      23     H     0.42222  0.42222  0.00000  0.15556
      24     H     0.41200  0.41200  0.00000  0.17600
      25     H     0.42102  0.42102  0.00000  0.15797

   Total alpha = 36.00000, Total beta = 36.00000, Total charge =  0.00000
