  ==> Input File <==

--------------------------------------------------------------------------
set {
	reference rhf
	basis cc-pvtz
}

set_num_threads( 4 )
memory 2 gb

molecule MOL {
0 1

H	 2.828711	 -0.346904	 0.001083
C	 1.876752	 0.015931	 -0.363450
C	 0.776285	 -0.474665	 0.563092
H	 1.728113	 -0.357244	 -1.367440
H	 1.906171	 1.096574	 -0.386153
N	 -0.540022	 0.017605	 0.071630
H	 0.707111	 -1.548969	 0.573035
H	 0.886169	 -0.084184	 1.560432
O	 -1.382740	 0.212936	 0.881486
O	 -0.664751	 0.153480	 -1.099001

	symmetry c1
}
set optking {
	frozen_dihedral = ("
		9 6 3 2
	")
}

ee = optimize('scf')
oeprop('DIPOLE', 'QUADRUPOLE', 'MULLIKEN_CHARGES')
f=open( 'psi4out.xyz', 'w' )
f.write( "10  " )
f.write( str(ee) + "\n" )
f.write( MOL.save_string_xyz() )
f.close()
--------------------------------------------------------------------------

    Molecular point group: c1
  Charge       = 0
  Multiplicity = 1
  Basis Set: CC-PVTZ
  Basis Set:
  @DF-RHF Final Energy:  -282.81190709890745
    Total Energy =                       -282.8119070989075112
    Molecular point group: c1
  Basis Set: CC-PVTZ
  Basis Set:
  Basis Set: CC-PVTZ
  Basis Set:
  @DF-RHF Final Energy:  -282.81227075442564
    Total Energy =                       -282.8122707544258105
  Basis Set: CC-PVTZ
  Basis Set:
  Basis Set: CC-PVTZ
  Basis Set:
  @DF-RHF Final Energy:  -282.80809079779465
    Total Energy =                       -282.8080907977947049
  Basis Set: CC-PVTZ
  Basis Set:
  Basis Set: CC-PVTZ
  Basis Set:
  @DF-RHF Final Energy:  -282.81284120423339
    Total Energy =                       -282.8128412042333366
  Basis Set: CC-PVTZ
  Basis Set:
  Basis Set: CC-PVTZ
  Basis Set:
  @DF-RHF Final Energy:  -282.81292821735065
    Total Energy =                       -282.8129282173505317
  Basis Set: CC-PVTZ
  Basis Set:
  Basis Set: CC-PVTZ
  Basis Set:
  @DF-RHF Final Energy:  -282.81297557657729
    Total Energy =                       -282.8129755765772870
  Basis Set: CC-PVTZ
  Basis Set:
  Charge       = 0
  Multiplicity = 1
  Basis Set: CC-PVTZ
  Basis Set:

    Orbital Energies (a.u.)
    -----------------------

    Doubly Occupied:

       1A    -20.592800     2A    -20.591552     3A    -15.839413
       4A    -11.302944     5A    -11.244923     6A     -1.638467
       7A     -1.422789     8A     -1.124303     9A     -0.966984
      10A     -0.836068    11A     -0.764424    12A     -0.748429
      13A     -0.731977    14A     -0.644876    15A     -0.592957
      16A     -0.563983    17A     -0.539477    18A     -0.489958
      19A     -0.479653    20A     -0.455918

  @DF-RHF Final Energy:  -282.81297758591035

   => Energetics <=

    Nuclear Repulsion Energy =            186.5656531435489569
    One-Electron Energy =                -755.6134718588792794
    Two-Electron Energy =                 286.2348411294200332
    DFT Exchange-Correlation Energy =       0.0000000000000000
    Empirical Dispersion Energy =           0.0000000000000000
    PCM Polarization Energy =               0.0000000000000000
    EFP Energy =                            0.0000000000000000
    Total Energy =                       -282.8129775859102892
    Molecular point group: c1
  Basis Set: CC-PVTZ
  Basis Set:

  -Total Gradient:
     Atom            X                  Y                   Z
    ------   -----------------  -----------------  -----------------
       1        0.000021676061     0.000011969341    -0.000013258740
       2        0.000017688576    -0.000108054650    -0.000089231124
       3       -0.000061978415     0.000052242198     0.000072469441
       4       -0.000003986086     0.000001030963     0.000030599406
       5        0.000023736225     0.000005846810    -0.000014828614
       6       -0.000074606855     0.000356000074    -0.000026166649
       7        0.000010879540    -0.000029174173     0.000006375353
       8       -0.000048217453     0.000014360952    -0.000022579149
       9       -0.000012896166    -0.000238105463     0.000157444408
      10        0.000127704571    -0.000066116052    -0.000100824329

  **** Optimization is complete! (in 7 steps) ****
    Final optimized geometry and variables:
    Molecular point group: c1

    Geometry (in Angstrom), charge = 0, multiplicity = 1:

    H            2.856786584993    -0.334826254942     0.032581859545
    C            1.920877507397     0.025462882078    -0.376115818424
    C            0.797834057534    -0.439791843343     0.524750858207
    H            1.806856293089    -0.358298203198    -1.377730972276
    H            1.962798619419     1.105593806539    -0.421821249058
    N           -0.545050706686     0.027459665651     0.066526328007
    H            0.713218577727    -1.517597737504     0.541530450056
    H            0.889030515776    -0.084393389573     1.536495913835
    O           -1.360031790200     0.204637397817     0.907982671025
    O           -0.720956733186     0.157118683243    -1.097335579063

  Mulliken Charges: (a.u.)
   Center  Symbol    Alpha    Beta     Spin     Total
       1     H     0.44930  0.44930  0.00000  0.10140
       2     C     3.14003  3.14003  0.00000 -0.28005
       3     C     3.04161  3.04161  0.00000 -0.08323
       4     H     0.43727  0.43727  0.00000  0.12546
       5     H     0.44496  0.44496  0.00000  0.11009
       6     N     3.27693  3.27693  0.00000  0.44613
       7     H     0.43634  0.43634  0.00000  0.12731
       8     H     0.43128  0.43128  0.00000  0.13743
       9     O     4.17099  4.17099  0.00000 -0.34198
      10     O     4.17128  4.17128  0.00000 -0.34257

   Total alpha = 20.00000, Total beta = 20.00000, Total charge =  0.00000
