  ==> Input File <==

--------------------------------------------------------------------------
set {
	reference rhf
	basis cc-pvtz
}

set_num_threads( 4 )
memory 2 gb

molecule MOL {
0 1

H	 -2.362939	 -1.309000	 -0.383250
C	 -1.359344	 -1.272457	 0.020748
C	 -0.684082	 0.000127	 -0.464918
H	 -0.825835	 -2.151141	 -0.318537
H	 -1.416276	 -1.292399	 1.099455
C	 -1.359089	 1.272668	 0.021259
N	 0.742439	 -0.000109	 0.007333
H	 -0.596914	 0.000345	 -1.538146
H	 -2.362696	 1.309620	 -0.382686
H	 -0.825392	 2.151374	 -0.317674
H	 -1.415983	 1.292181	 1.099973
O	 1.093875	 0.911059	 0.678087
O	 1.426666	 -0.911539	 -0.320414

	symmetry c1
}
set optking {
	frozen_dihedral = ("
		12 7 3 8
	")
}

ee = optimize('scf')
oeprop('DIPOLE', 'QUADRUPOLE', 'MULLIKEN_CHARGES')
f=open( 'psi4out.xyz', 'w' )
f.write( "13  " )
f.write( str(ee) + "\n" )
f.write( MOL.save_string_xyz() )
f.close()
--------------------------------------------------------------------------

    Molecular point group: c1
  Charge       = 0
  Multiplicity = 1
  Basis Set: CC-PVTZ
  Basis Set:
  @DF-RHF Final Energy:  -321.86214105483509
    Total Energy =                       -321.8621410548353197
    Molecular point group: c1
  Basis Set: CC-PVTZ
  Basis Set:
  Basis Set: CC-PVTZ
  Basis Set:
  @DF-RHF Final Energy:  -321.86125346248116
    Total Energy =                       -321.8612534624811587
  Basis Set: CC-PVTZ
  Basis Set:
  Basis Set: CC-PVTZ
  Basis Set:
  @DF-RHF Final Energy:  -321.85897200522186
    Total Energy =                       -321.8589720052219718
  Basis Set: CC-PVTZ
  Basis Set:
  Basis Set: CC-PVTZ
  Basis Set:
  @DF-RHF Final Energy:  -321.86284509253818
    Total Energy =                       -321.8628450925384072
  Basis Set: CC-PVTZ
  Basis Set:
  Basis Set: CC-PVTZ
  Basis Set:
  @DF-RHF Final Energy:  -321.86295018205254
    Total Energy =                       -321.8629501820524297
  Basis Set: CC-PVTZ
  Basis Set:
  Basis Set: CC-PVTZ
  Basis Set:
  @DF-RHF Final Energy:  -321.86304669055255
    Total Energy =                       -321.8630466905523235
  Basis Set: CC-PVTZ
  Basis Set:
  Basis Set: CC-PVTZ
  Basis Set:
  @DF-RHF Final Energy:  -321.86305037000318
    Total Energy =                       -321.8630503700036343
  Basis Set: CC-PVTZ
  Basis Set:
  Charge       = 0
  Multiplicity = 1
  Basis Set: CC-PVTZ
  Basis Set:

    Orbital Energies (a.u.)
    -----------------------

    Doubly Occupied:

       1A    -20.591661     2A    -20.585569     3A    -15.833589
       4A    -11.306136     5A    -11.242265     6A    -11.237341
       7A     -1.634373     8A     -1.418301     9A     -1.140616
      10A     -0.969509    11A     -0.957918    12A     -0.815424
      13A     -0.762208    14A     -0.730308    15A     -0.724126
      16A     -0.643146    17A     -0.593528    18A     -0.587901
      19A     -0.570490    20A     -0.525115    21A     -0.521488
      22A     -0.484356    23A     -0.472316    24A     -0.451507

  @DF-RHF Final Energy:  -321.86305128171284

   => Energetics <=

    Nuclear Repulsion Energy =            257.2996040421435282
    One-Electron Energy =                -948.7269265799109235
    Two-Electron Energy =                 369.5642712560545533
    DFT Exchange-Correlation Energy =       0.0000000000000000
    Empirical Dispersion Energy =           0.0000000000000000
    PCM Polarization Energy =               0.0000000000000000
    EFP Energy =                            0.0000000000000000
    Total Energy =                       -321.8630512817128420
    Molecular point group: c1
  Basis Set: CC-PVTZ
  Basis Set:

  -Total Gradient:
     Atom            X                  Y                   Z
    ------   -----------------  -----------------  -----------------
       1       -0.000006405596    -0.000014352073     0.000006146970
       2       -0.000015016954     0.000001461044    -0.000007083165
       3        0.000112121887    -0.001251173624    -0.000402431286
       4       -0.000008473896     0.000006279906     0.000000759643
       5       -0.000000269384    -0.000002338185    -0.000001666611
       6       -0.000000107360    -0.000004347266    -0.000009296620
       7       -0.000476017212    -0.000697902477     0.001507247864
       8        0.000017991033     0.001307167872     0.000003510996
       9       -0.000006017244    -0.000002195978    -0.000003421079
      10        0.000004388578    -0.000002740045    -0.000004457259
      11        0.000006112226    -0.000009795388    -0.000004240513
      12        0.000376386018     0.000662580131    -0.001080958076
      13       -0.000004692097     0.000007356085    -0.000004110863

  **** Optimization is complete! (in 8 steps) ****
    Final optimized geometry and variables:
    Molecular point group: c1

    Geometry (in Angstrom), charge = 0, multiplicity = 1:

    H           -2.379262821215    -1.270811478981    -0.359225926606
    C           -1.364869712880    -1.258467928128     0.017254055240
    C           -0.685227229412     0.021874090532    -0.447387916583
    H           -0.846910798007    -2.131247520549    -0.347515204489
    H           -1.405052659515    -1.298938688777     1.099233989226
    C           -1.390143423529     1.283300341236     0.010079099671
    N            0.750439644603    -0.003292691488     0.019243104794
    H           -0.584803021570     0.018991167173    -1.523443410619
    H           -2.388100455519     1.282681873587    -0.410863574026
    H           -0.875791209289     2.171093118131    -0.325555909188
    H           -1.470252990909     1.321933350462     1.087340183870
    O            1.148091222504     0.888565230129     0.687601358139
    O            1.402873122549    -0.926627657869    -0.340157919885

  Mulliken Charges: (a.u.)
   Center  Symbol    Alpha    Beta     Spin     Total
       1     H     0.44957  0.44957  0.00000  0.10086
       2     C     3.14434  3.14434  0.00000 -0.28868
       3     C     3.00677  3.00677  0.00000 -0.01354
       4     H     0.43124  0.43124  0.00000  0.13752
       5     H     0.44628  0.44628  0.00000  0.10743
       6     C     3.14239  3.14239  0.00000 -0.28478
       7     N     3.27515  3.27515  0.00000  0.44969
       8     H     0.42934  0.42934  0.00000  0.14132
       9     H     0.45030  0.45030  0.00000  0.09940
      10     H     0.43680  0.43680  0.00000  0.12639
      11     H     0.44281  0.44281  0.00000  0.11439
      12     O     4.16910  4.16910  0.00000 -0.33820
      13     O     4.17590  4.17590  0.00000 -0.35180

   Total alpha = 24.00000, Total beta = 24.00000, Total charge =  0.00000
