  ==> Input File <==

--------------------------------------------------------------------------
set {
	reference rhf
	basis cc-pvtz
}

set_num_threads( 4 )
memory 2 gb

molecule MOL {
0 1

O	 -2.071633	 -1.227563	 -0.223463
C	 -1.652164	 -0.152425	 0.058082
C	 -0.327811	 0.006324	 0.778296
C	 -2.402515	 1.108629	 -0.298924
C	 0.843231	 -0.001575	 -0.211665
H	 -0.319484	 0.928173	 1.350354
H	 -0.227804	 -0.823091	 1.466705
C	 2.197693	 0.138030	 0.476937
H	 0.722944	 0.805202	 -0.930230
H	 0.813976	 -0.926978	 -0.776588
C	 2.098403	 0.779173	 1.856878
H	 2.659438	 -0.841454	 0.565965
H	 2.856832	 0.730965	 -0.150362
H	 1.472888	 0.189725	 2.518933
H	 1.669164	 1.773358	 1.795893
H	 3.075228	 0.868090	 2.317648
H	 -3.240910	 0.874416	 -0.936711
H	 -1.747554	 1.818823	 -0.790984
H	 -2.760419	 1.579708	 0.610998

	symmetry c1
}
set optking {
	frozen_dihedral = ("
		11 8 5 9
	")
}

ee = optimize('scf')
oeprop('DIPOLE', 'QUADRUPOLE', 'MULLIKEN_CHARGES')
f=open( 'psi4out.xyz', 'w' )
f.write( "19  " )
f.write( str(ee) + "\n" )
f.write( MOL.save_string_xyz() )
f.close()
--------------------------------------------------------------------------

    Molecular point group: c1
  Charge       = 0
  Multiplicity = 1
  Basis Set: CC-PVTZ
  Basis Set:
  @DF-RHF Final Energy:  -309.16666727571948
    Total Energy =                       -309.1666672757194192
    Molecular point group: c1
  Basis Set: CC-PVTZ
  Basis Set:
  Basis Set: CC-PVTZ
  Basis Set:
  @DF-RHF Final Energy:  -309.16757052996434
    Total Energy =                       -309.1675705299642232
  Basis Set: CC-PVTZ
  Basis Set:
  Basis Set: CC-PVTZ
  Basis Set:
  @DF-RHF Final Energy:  -309.16983830921453
    Total Energy =                       -309.1698383092142421
  Basis Set: CC-PVTZ
  Basis Set:
  Basis Set: CC-PVTZ
  Basis Set:
  @DF-RHF Final Energy:  -309.16994988831033
    Total Energy =                       -309.1699498883102137
  Basis Set: CC-PVTZ
  Basis Set:
  Basis Set: CC-PVTZ
  Basis Set:
  @DF-RHF Final Energy:  -309.17004881153883
    Total Energy =                       -309.1700488115388907
  Basis Set: CC-PVTZ
  Basis Set:
  Basis Set: CC-PVTZ
  Basis Set:
  @DF-RHF Final Energy:  -309.17009383017967
    Total Energy =                       -309.1700938301798374
  Basis Set: CC-PVTZ
  Basis Set:
  Basis Set: CC-PVTZ
  Basis Set:
  @DF-RHF Final Energy:  -309.17010650837983
    Total Energy =                       -309.1701065083798312
  Basis Set: CC-PVTZ
  Basis Set:
  Charge       = 0
  Multiplicity = 1
  Basis Set: CC-PVTZ
  Basis Set:

    Orbital Energies (a.u.)
    -----------------------

    Doubly Occupied:

       1A    -20.536862     2A    -11.319438     3A    -11.228886
       4A    -11.227882     5A    -11.226881     6A    -11.223512
       7A    -11.214592     8A     -1.397074     9A     -1.090275
      10A     -1.028201    11A     -0.982439    12A     -0.904295
      13A     -0.796047    14A     -0.735427    15A     -0.661291
      16A     -0.654963    17A     -0.622439    18A     -0.606431
      19A     -0.591968    20A     -0.569617    21A     -0.554197
      22A     -0.544524    23A     -0.523531    24A     -0.503503
      25A     -0.481383    26A     -0.469811    27A     -0.460215
      28A     -0.399909

  @DF-RHF Final Energy:  -309.17010672007240

   => Energetics <=

    Nuclear Repulsion Energy =            305.4685032165417056
    One-Electron Energy =               -1024.1660376029753934
    Two-Electron Energy =                 409.5274276663617457
    DFT Exchange-Correlation Energy =       0.0000000000000000
    Empirical Dispersion Energy =           0.0000000000000000
    PCM Polarization Energy =               0.0000000000000000
    EFP Energy =                            0.0000000000000000
    Total Energy =                       -309.1701067200719990
    Molecular point group: c1
  Basis Set: CC-PVTZ
  Basis Set:

  -Total Gradient:
     Atom            X                  Y                   Z
    ------   -----------------  -----------------  -----------------
       1       -0.000007832227     0.000003706194     0.000003584900
       2        0.000003417113     0.000018867220    -0.000055257117
       3       -0.000006874515    -0.000013354952    -0.000023510956
       4       -0.000054565586    -0.000026351002     0.000049763129
       5       -0.003085021879     0.002528739816     0.006064088598
       6        0.000043776986    -0.000005152021     0.000004420251
       7        0.000003735987     0.000000488279    -0.000013171411
       8        0.001454885424     0.005017826083    -0.003718052516
       9        0.002199283343    -0.003521441292    -0.004222569266
      10       -0.000061111433     0.000000938343     0.000004962023
      11       -0.000563536898    -0.004040531398     0.001850644959
      12       -0.000009459916     0.000026732289     0.000075738407
      13        0.000049256018     0.000013097010     0.000038183267
      14       -0.000002850225    -0.000000101072    -0.000024367272
      15       -0.000012511288    -0.000021008381    -0.000022436592
      16        0.000013319394     0.000007061785     0.000025641640
      17       -0.000000732335     0.000007173019    -0.000009183959
      18        0.000013867848     0.000007233315    -0.000019287695
      19        0.000022954191    -0.000003923237    -0.000009190391

  **** Optimization is complete! (in 8 steps) ****
    Final optimized geometry and variables:
    Molecular point group: c1

    Geometry (in Angstrom), charge = 0, multiplicity = 1:

    O           -1.870726881591    -1.347165818546    -0.654826155545
    C           -1.491104224653    -0.267981701739    -0.335047130753
    C           -0.206176760103    -0.089993056781     0.450030145297
    C           -2.256714410248     0.981282576892    -0.701307348986
    C            0.995962154746    -0.048057100455    -0.500342317471
    H           -0.257862572674     0.814538939645     1.043390978585
    H           -0.116574554866    -0.935032009091     1.120491146425
    C            2.386917213824     0.046628864908     0.163288637598
    H            0.884170112921     0.753751754040    -1.224498978204
    H            0.969713996014    -0.954189108971    -1.094856007894
    C            2.443095986790     0.691293655136     1.546512243954
    H            2.788896267710    -0.957174645612     0.256191042008
    H            3.055261618481     0.573906388657    -0.507627185199
    H            1.866264146639     0.133123058226     2.273060741684
    H            2.069634196883     1.710315647784     1.536437959489
    H            3.467230983764     0.724651127712     1.899321218215
    H           -3.056072383471     0.740215588704    -1.385017615612
    H           -1.598157118837     1.720006538011    -1.143900071724
    H           -2.672056215951     1.420657098962     0.200020537097

  Mulliken Charges: (a.u.)
   Center  Symbol    Alpha    Beta     Spin     Total
       1     O     4.17750  4.17750  0.00000 -0.35499
       2     C     2.85721  2.85721  0.00000  0.28558
       3     C     3.10160  3.10160  0.00000 -0.20320
       4     C     3.15629  3.15629  0.00000 -0.31258
       5     C     3.10670  3.10670  0.00000 -0.21339
       6     H     0.44595  0.44595  0.00000  0.10811
       7     H     0.43825  0.43825  0.00000  0.12350
       8     C     3.08785  3.08785  0.00000 -0.17571
       9     H     0.44983  0.44983  0.00000  0.10035
      10     H     0.43937  0.43937  0.00000  0.12125
      11     C     3.15878  3.15878  0.00000 -0.31756
      12     H     0.44985  0.44985  0.00000  0.10029
      13     H     0.44809  0.44809  0.00000  0.10381
      14     H     0.45096  0.45096  0.00000  0.09809
      15     H     0.45438  0.45438  0.00000  0.09123
      16     H     0.44260  0.44260  0.00000  0.11480
      17     H     0.43585  0.43585  0.00000  0.12830
      18     H     0.45054  0.45054  0.00000  0.09892
      19     H     0.44840  0.44840  0.00000  0.10319

   Total alpha = 28.00000, Total beta = 28.00000, Total charge = -0.00000
