                              Psi4 1.0.54 Driver

  ==> Input File <==

--------------------------------------------------------------------------
set {
	reference rhf
	basis cc-pvtz
}

set_num_threads( 4 )
memory 2 gb

molecule MOL {
0 1

O	 0.122181	 0.278338	 -1.920765
C	 -0.226765	 -0.408295	 -1.022627
C	 -1.586956	 -1.031793	 -0.893070
O	 0.550743	 -0.719877	 0.000412
H	 -1.488845	 -2.108107	 -0.835371
H	 -2.192024	 -0.758445	 -1.742014
H	 -2.054772	 -0.694787	 0.022905
C	 1.863204	 -0.194033	 0.000410
H	 2.031502	 0.409177	 -0.879273
H	 2.524488	 -1.045142	 0.000793
H	 2.031291	 0.409823	 0.879686

	symmetry c1
}
set optking {
	frozen_dihedral = ("
		2 4 8 9
	")
}

ee,wfn = optimize('scf', return_wfn=True)
oeprop( wfn, 'DIPOLE', 'QUADRUPOLE', 'MULLIKEN_CHARGES')
f=open( 'psi4out.xyz', 'w' )
f.write( "11  " )
f.write( str(ee) + "\n" )
f.write( MOL.save_string_xyz() )
f.close()
--------------------------------------------------------------------------

    Molecular point group: c1
  Charge       = 0
  Multiplicity = 1
  Basis Set: CC-PVTZ
  Basis Set:
  @DF-RHF Final Energy:  -266.93620793017010
    Total Energy =                       -266.9362079301699850
    Molecular point group: c1
  Basis Set: CC-PVTZ
  Basis Set:
  Basis Set: CC-PVTZ
  Basis Set:
  @DF-RHF Final Energy:  -266.93644066336191
    Total Energy =                       -266.9364406633620206
  Basis Set: CC-PVTZ
  Basis Set:
  Basis Set: CC-PVTZ
  Basis Set:
  @DF-RHF Final Energy:  -266.93709071061545
    Total Energy =                       -266.9370907106156210
  Basis Set: CC-PVTZ
  Basis Set:
  Basis Set: CC-PVTZ
  Basis Set:
  @DF-RHF Final Energy:  -266.93694483612285
    Total Energy =                       -266.9369448361230752
  Basis Set: CC-PVTZ
  Basis Set:
  Basis Set: CC-PVTZ
  Basis Set:
  @DF-RHF Final Energy:  -266.93717747042024
    Total Energy =                       -266.9371774704200106
  Basis Set: CC-PVTZ
  Basis Set:
  Charge       = 0
  Multiplicity = 1
  Basis Set: CC-PVTZ
  Basis Set:

    Orbital Energies (a.u.)
    -----------------------

    Doubly Occupied:

       1A    -20.597619     2A    -20.534530     3A    -11.370242
       4A    -11.278407     5A    -11.232585     6A     -1.471553
       7A     -1.368246     8A     -1.037008     9A     -0.954088
      10A     -0.778992    11A     -0.699487    12A     -0.682075
      13A     -0.680962    14A     -0.598115    15A     -0.592648
      16A     -0.561510    17A     -0.531087    18A     -0.520388
      19A     -0.458150    20A     -0.446266

  @DF-RHF Final Energy:  -266.93717862993606

   => Energetics <=

    Nuclear Repulsion Energy =            183.2280907771475711
    One-Electron Energy =                -727.5426211369328939
    Two-Electron Energy =                 277.3773517298493516
    DFT Exchange-Correlation Energy =       0.0000000000000000
    Empirical Dispersion Energy =           0.0000000000000000
    PCM Polarization Energy =               0.0000000000000000
    EFP Energy =                            0.0000000000000000
    Total Energy =                       -266.9371786299359428
    Molecular point group: c1
  Basis Set: CC-PVTZ
  Basis Set:

  -Total Gradient:
     Atom            X                  Y                   Z
    ------   -----------------  -----------------  -----------------
       1        0.000043375338     0.000025151936    -0.000024406859
       2        0.000028318981    -0.000005398600     0.000078933535
       3        0.000022295501    -0.000025508038     0.000015181263
       4       -0.000068149358     0.000059535117     0.000012451117
       5        0.000000509605     0.000000363536    -0.000001822028
       6        0.000017504504     0.000007299444    -0.000005939292
       7       -0.000003143707     0.000007231946     0.000009773526
       8       -0.000005097750    -0.000120352383    -0.000066545159
       9       -0.000019615387     0.000039643260    -0.000033001549
      10        0.000050502645     0.000005350523     0.000006965373
      11       -0.000066500372     0.000006683256     0.000008410068

  **** Optimization is complete! (in 6 steps) ****
    Final optimized geometry and variables:
    Molecular point group: c1

    Geometry (in Angstrom), charge = 0, multiplicity = 1:

    O           -0.083340578780     0.681467732124    -1.188323334747
    C           -0.397968847106     0.010900792198    -0.266244942973
    C           -1.755158129109    -0.606725177224    -0.082914553191
    O            0.402717422189    -0.294439159043     0.742379884635
    H           -1.657348314639    -1.682221799420    -0.011852661868
    H           -2.386793440542    -0.344455680783    -0.915839404235
    H           -2.191563398754    -0.254485264664     0.842746766746
    C            1.731247336709     0.193963129646     0.755833030807
    H            1.930648780676     0.791432024680    -0.116633665811
    H            2.399451883152    -0.654117441640     0.787020752031
    H            1.860110811868     0.786316969734     1.649812272419

  Mulliken Charges: (a.u.)
   Center  Symbol    Alpha    Beta     Spin     Total
       1     O     4.19712  4.19712  0.00000 -0.39424
       2     C     2.79774  2.79774  0.00000  0.40452
       3     C     3.13942  3.13942  0.00000 -0.27884
       4     O     4.15013  4.15013  0.00000 -0.30026
       5     H     0.44570  0.44570  0.00000  0.10859
       6     H     0.43801  0.43801  0.00000  0.12397
       7     H     0.44571  0.44571  0.00000  0.10858
       8     C     3.03751  3.03751  0.00000 -0.07503
       9     H     0.44280  0.44280  0.00000  0.11440
      10     H     0.45292  0.45292  0.00000  0.09416
      11     H     0.45293  0.45293  0.00000  0.09415

   Total alpha = 20.00000, Total beta = 20.00000, Total charge =  0.00000

*** Psi4 exiting successfully. Buy a developer a beer!
