  ==> Input File <==

--------------------------------------------------------------------------
set {
	reference rhf
	basis 6-31G*
}

set_num_threads( 4 )
memory 2 gb

molecule MOL {
0 1

H	 -0.134296	 -0.693008	 0.862638
N	 -0.626943	 -0.667432	 -0.000092
C	 -1.979713	 -0.158776	 0.000050
C	 0.003608	 -1.109069	 -1.115228
H	 -2.520245	 -0.492427	 -0.879443
H	 -1.934741	 0.918111	 -0.004428
H	 -2.517790	 -0.485056	 0.883818
C	 1.419245	 -1.599177	 -0.885554
O	 -0.508152	 -1.116362	 -2.200706
H	 1.428307	 -2.428106	 -0.184734
H	 1.833577	 -1.924037	 -1.828152
H	 2.037467	 -0.806672	 -0.475586

	symmetry c1
}
set optking {
	frozen_dihedral = ("
		4 2 3 5
	")
}

ee = optimize('scf')
oeprop('DIPOLE', 'QUADRUPOLE', 'MULLIKEN_CHARGES')
f=open( 'psi4out.xyz', 'w' )
f.write( "12  " )
f.write( str(ee) + "\n" )
f.write( MOL.save_string_xyz() )
f.close()
--------------------------------------------------------------------------

    Molecular point group: c1
  Charge       = 0
  Multiplicity = 1
  Basis Set: 6-31G*
  Basis Set:
  @DF-RHF Final Energy:  -247.00471691814940
    Total Energy =                       -247.0047169181493700
    Molecular point group: c1
  Basis Set: 6-31G*
  Basis Set:
  Basis Set: 6-31G*
  Basis Set:
  @DF-RHF Final Energy:  -247.00535535744336
    Total Energy =                       -247.0053553574434773
  Basis Set: 6-31G*
  Basis Set:
  Basis Set: 6-31G*
  Basis Set:
  @DF-RHF Final Energy:  -247.00547555133488
    Total Energy =                       -247.0054755513347686
  Basis Set: 6-31G*
  Basis Set:
  Basis Set: 6-31G*
  Basis Set:
  @DF-RHF Final Energy:  -247.00539933772873
    Total Energy =                       -247.0053993377287611
  Basis Set: 6-31G*
  Basis Set:
  @DF-RHF Final Energy:  -247.00552076940889
    Total Energy =                       -247.0055207694090313
  @DF-RHF Final Energy:  -247.00553235678402
    Total Energy =                       -247.0055323567839878
  @DF-RHF Final Energy:  -247.00554143751839
    Total Energy =                       -247.0055414375182750
  @DF-RHF Final Energy:  -247.00554250672951
    Total Energy =                       -247.0055425067295118
  @DF-RHF Final Energy:  -247.00556419165846
    Total Energy =                       -247.0055641916584364
  @DF-RHF Final Energy:  -247.00554269064364
    Total Energy =                       -247.0055426906434946
  @DF-RHF Final Energy:  -247.00559701030701
    Total Energy =                       -247.0055970103070422
  Basis Set: 6-31G*
  Basis Set:
  @DF-RHF Final Energy:  -247.00565463082154
    Total Energy =                       -247.0056546308214820
  Basis Set: 6-31G*
  Basis Set:
  Basis Set: 6-31G*
  Basis Set:
  @DF-RHF Final Energy:  -247.00566377871570
    Total Energy =                       -247.0056637787157001
  Basis Set: 6-31G*
  Basis Set:
  Basis Set: 6-31G*
  Basis Set:
  @DF-RHF Final Energy:  -247.00566535620843
    Total Energy =                       -247.0056653562085103
  Basis Set: 6-31G*
  Basis Set:
  Charge       = 0
  Multiplicity = 1
  Basis Set: 6-31G*
  Basis Set:

    Orbital Energies (a.u.)
    -----------------------

    Doubly Occupied:

       1A    -20.513773     2A    -15.583015     3A    -11.342971
       4A    -11.254153     5A    -11.230045     6A     -1.383241
       7A     -1.228852     8A     -1.015327     9A     -0.932591
      10A     -0.787554    11A     -0.689356    12A     -0.648645
      13A     -0.632107    14A     -0.585924    15A     -0.579727
      16A     -0.553772    17A     -0.545640    18A     -0.505072
      19A     -0.412319    20A     -0.384793

  @DF-RHF Final Energy:  -247.00566570864200

   => Energetics <=

    Nuclear Repulsion Energy =            181.3373874260659306
    One-Electron Energy =                -695.0683526627672109
    Two-Electron Energy =                 266.7252995280593382
    DFT Exchange-Correlation Energy =       0.0000000000000000
    Empirical Dispersion Energy =           0.0000000000000000
    PCM Polarization Energy =               0.0000000000000000
    EFP Energy =                            0.0000000000000000
    Total Energy =                       -247.0056657086419705
    Molecular point group: c1
  Basis Set: 6-31G*
  Basis Set:

  -Total Gradient:
     Atom            X                  Y                   Z
    ------   -----------------  -----------------  -----------------
       1       -0.000003775968     0.000003836297     0.000004851752
       2        0.000167292873     0.000300084510    -0.000045639950
       3       -0.000147417564    -0.000314896774     0.000095443922
       4       -0.000100214001    -0.000210282830     0.000058083858
       5        0.000106907867     0.000176158687    -0.000054335715
       6       -0.000002329504     0.000005500367    -0.000001338416
       7       -0.000004890318     0.000007276262     0.000000654083
       8       -0.000015987736    -0.000025205236    -0.000013992079
       9        0.000001092765     0.000013455148    -0.000063259420
      10        0.000000531454     0.000009651491     0.000008217726
      11       -0.000003712958     0.000016624965    -0.000002108126
      12        0.000002503091     0.000017797113     0.000013422365

  **** Optimization is complete! (in 15 steps) ****
    Final optimized geometry and variables:
    Molecular point group: c1

    Geometry (in Angstrom), charge = 0, multiplicity = 1:

    H            0.115335597642     0.004371659050     1.728033372147
    N           -0.336773624140     0.116020310341     0.850757525986
    C           -1.652371655473     0.714808577850     0.831317566663
    C            0.358148328680    -0.166656938101    -0.275486403335
    H           -2.085723980337     0.556392907044    -0.143015628325
    H           -1.611308097084     1.782637093679     1.023574873405
    H           -2.281660582930     0.249544974672     1.580727280977
    C            1.758089594659    -0.702280577289    -0.056799215403
    O           -0.082757874684     0.006198739437    -1.378990886998
    H            1.889949978066    -1.165894898641     0.914071451936
    H            1.979753341448    -1.420245454581    -0.833942820681
    H            2.463155781657     0.117975249969    -0.146473414870

  Mulliken Charges: (a.u.)
   Center  Symbol    Alpha    Beta     Spin     Total
       1     H     0.31045  0.31045  0.00000  0.37910
       2     N     3.89340  3.89340  0.00000 -0.78681
       3     C     3.14180  3.14180  0.00000 -0.28361
       4     C     2.62861  2.62861  0.00000  0.74278
       5     H     0.38746  0.38746  0.00000  0.22507
       6     H     0.41603  0.41603  0.00000  0.16795
       7     H     0.41639  0.41639  0.00000  0.16722
       8     C     3.29092  3.29092  0.00000 -0.58184
       9     O     4.30406  4.30406  0.00000 -0.60811
      10     H     0.41704  0.41704  0.00000  0.16593
      11     H     0.39403  0.39403  0.00000  0.21194
      12     H     0.39981  0.39981  0.00000  0.20038

   Total alpha = 20.00000, Total beta = 20.00000, Total charge = -0.00000
