                              Psi4 1.0.54 Driver

  ==> Input File <==

--------------------------------------------------------------------------
set {
	reference rhf
	basis cc-pvtz
}

set_num_threads( 4 )
memory 2 gb

molecule MOL {
0 1

H	 -3.436473	 1.252944	 -1.023892
O	 -3.458596	 0.315260	 -0.960865
C	 -3.176635	 -0.080824	 0.355601
C	 -1.763371	 0.265266	 0.799691
H	 -3.321825	 -1.153438	 0.379502
H	 -3.895468	 0.357385	 1.043382
C	 -0.673390	 -0.426948	 -0.013392
H	 -1.631049	 1.344913	 0.747560
H	 -1.664587	 -0.001624	 1.849167
C	 0.737842	 -0.043159	 0.423759
H	 -0.806103	 -0.190518	 -1.063345
H	 -0.797221	 -1.503753	 0.074146
C	 1.824000	 -0.743224	 -0.390623
H	 0.850588	 1.033777	 0.343840
H	 0.868587	 -0.286314	 1.476203
C	 1.993693	 -0.222922	 -1.819027
H	 1.617154	 -1.810525	 -0.421160
H	 2.771658	 -0.634442	 0.129694
C	 0.803059	 -0.482915	 -2.738775
H	 2.874149	 -0.688575	 -2.251162
H	 2.199837	 0.843882	 -1.789793
H	 0.569625	 -1.541983	 -2.783045
H	 1.017344	 -0.150639	 -3.748189
H	 -0.087119	 0.038157	 -2.407605

	symmetry c1
}
set optking {
	frozen_dihedral = ("
		17 13 10 7
	")
}

ee,wfn = optimize('scf', return_wfn=True)
oeprop( wfn, 'DIPOLE', 'QUADRUPOLE', 'MULLIKEN_CHARGES')
f=open( 'psi4out.xyz', 'w' )
f.write( "24  " )
f.write( str(ee) + "\n" )
f.write( MOL.save_string_xyz() )
f.close()
--------------------------------------------------------------------------

    Molecular point group: c1
  Charge       = 0
  Multiplicity = 1
  Basis Set: CC-PVTZ
  Basis Set:
  @DF-RHF Final Energy:  -349.36655663258051
    Total Energy =                       -349.3665566325806822
    Molecular point group: c1
  Basis Set: CC-PVTZ
  Basis Set:
  Basis Set: CC-PVTZ
  Basis Set:
  @DF-RHF Final Energy:  -349.37386659210893
    Total Energy =                       -349.3738665921085840
  Basis Set: CC-PVTZ
  Basis Set:
  Basis Set: CC-PVTZ
  Basis Set:
  @DF-RHF Final Energy:  -349.37510409259369
    Total Energy =                       -349.3751040925936877
  Basis Set: CC-PVTZ
  Basis Set:
  Basis Set: CC-PVTZ
  Basis Set:
  @DF-RHF Final Energy:  -349.37537133369892
    Total Energy =                       -349.3753713336988085
  Basis Set: CC-PVTZ
  Basis Set:
  @DF-RHF Final Energy:  -349.37544302119255
    Total Energy =                       -349.3754430211925524
  @DF-RHF Final Energy:  -349.37549138718583
    Total Energy =                       -349.3754913871858889
  @DF-RHF Final Energy:  -349.37550933715136
    Total Energy =                       -349.3755093371513567
  @DF-RHF Final Energy:  -349.37551720211223
    Total Energy =                       -349.3755172021117232
  @DF-RHF Final Energy:  -349.37552151837934
    Total Energy =                       -349.3755215183795144
  @DF-RHF Final Energy:  -349.37552440817825
    Total Energy =                       -349.3755244081780802
  @DF-RHF Final Energy:  -349.37552688409664
    Total Energy =                       -349.3755268840966437
  @DF-RHF Final Energy:  -349.37552908887409
    Total Energy =                       -349.3755290888738045
  @DF-RHF Final Energy:  -349.37553104705398
    Total Energy =                       -349.3755310470542099
  Basis Set: CC-PVTZ
  Basis Set:
  @DF-RHF Final Energy:  -349.37553276422500
    Total Energy =                       -349.3755327642249995
  Basis Set: CC-PVTZ
  Basis Set:
  Basis Set: CC-PVTZ
  Basis Set:
  @DF-RHF Final Energy:  -349.37553424214343
    Total Energy =                       -349.3755342421433738
  Basis Set: CC-PVTZ
  Basis Set:
  Basis Set: CC-PVTZ
  Basis Set:
  @DF-RHF Final Energy:  -349.37553548017354
    Total Energy =                       -349.3755354801735393
  Basis Set: CC-PVTZ
  Basis Set:
  Charge       = 0
  Multiplicity = 1
  Basis Set: CC-PVTZ
  Basis Set:

    Orbital Energies (a.u.)
    -----------------------

    Doubly Occupied:

       1A    -20.546831     2A    -11.265740     3A    -11.215119
       4A    -11.211284     5A    -11.211113     6A    -11.210073
       7A    -11.208380     8A    -11.202148     9A     -1.364527
      10A     -1.087811    11A     -1.046680    12A     -0.985890
      13A     -0.919688    14A     -0.848721    15A     -0.804647
      16A     -0.772792    17A     -0.682898    18A     -0.653567
      19A     -0.623875    20A     -0.614093    21A     -0.595922
      22A     -0.592971    23A     -0.556172    24A     -0.541484
      25A     -0.523599    26A     -0.504730    27A     -0.499751
      28A     -0.474789    29A     -0.470229    30A     -0.461135
      31A     -0.454822    32A     -0.441271    33A     -0.421106

  @DF-RHF Final Energy:  -349.37553647734939

   => Energetics <=

    Nuclear Repulsion Energy =            392.5076740610161892
    One-Electron Energy =               -1251.7387173731267467
    Two-Electron Energy =                 509.8555068347611723
    DFT Exchange-Correlation Energy =       0.0000000000000000
    Empirical Dispersion Energy =           0.0000000000000000
    PCM Polarization Energy =               0.0000000000000000
    EFP Energy =                            0.0000000000000000
    Total Energy =                       -349.3755364773494421
    Molecular point group: c1
  Basis Set: CC-PVTZ
  Basis Set:

  -Total Gradient:
     Atom            X                  Y                   Z
    ------   -----------------  -----------------  -----------------
       1       -0.000000245411     0.000000406417    -0.000000288574
       2        0.000000135004     0.000001228238     0.000000172312
       3        0.000000161866    -0.000001096927    -0.000000710329
       4       -0.000000031088    -0.000000469774     0.000000802694
       5        0.000000168311    -0.000000471604     0.000000316311
       6        0.000000264790     0.000000105207    -0.000000001464
       7       -0.000011692257    -0.000511539967     0.000393324419
       8        0.000000368044     0.000000164385     0.000000270944
       9       -0.000000319955    -0.000000048338    -0.000000148345
      10       -0.000096232669     0.000768698023    -0.000749504927
      11       -0.000001310774     0.000001269901     0.000002425364
      12        0.000000317892     0.000000070784    -0.000001234835
      13        0.000569569095    -0.000440256771     0.001041617480
      14       -0.000000484123     0.000000125667    -0.000001321293
      15        0.000000761780     0.000002079484     0.000000424943
      16       -0.000002231819     0.000002254994     0.000001631380
      17       -0.000451240660     0.000161143656    -0.000702680110
      18       -0.000003706336     0.000014768125     0.000005315344
      19       -0.000016859701     0.000007201515     0.000009121711
      20       -0.000004113448    -0.000006904639    -0.000010551259
      21        0.000010983541     0.000000632866     0.000009090831
      22       -0.000005282036    -0.000001994466     0.000007455107
      23        0.000008372740    -0.000005136549    -0.000000226638
      24        0.000002647208     0.000007769774    -0.000005301066

  **** Optimization is complete! (in 17 steps) ****
    Final optimized geometry and variables:
    Molecular point group: c1

    Geometry (in Angstrom), charge = 0, multiplicity = 1:

    H           -2.939995208884     1.792788032930     0.101286563961
    O           -3.022272000752     0.863691204796    -0.015718185268
    C           -2.660165799208     0.200564614707     1.167075316618
    C           -1.191796406555     0.369878017041     1.526950799407
    H           -2.884386853486    -0.845411829249     1.000180264187
    H           -3.282399985271     0.535981294987     1.992930487496
    C           -0.232338560412    -0.216979658138     0.494670129663
    H           -0.981729780653     1.429862785242     1.662635535338
    H           -1.023990016172    -0.098224060497     2.493819463976
    C            1.232788832939     0.022621225446     0.856166298184
    H           -0.462220326559     0.207868903157    -0.472456437770
    H           -0.412874789431    -1.286260323443     0.412699176354
    C            2.279407641757    -0.689282835702    -0.009456376854
    H            1.435473920172     1.091203463152     0.851203577516
    H            1.382326865801    -0.303042679793     1.882657432078
    C            2.525296192548    -0.123202093653    -1.415956222353
    H            2.026082412599    -1.743860093376    -0.089433749006
    H            3.220237265211    -0.645968636359     0.529967535737
    C            1.562894428538    -0.592290178358    -2.505907090402
    H            3.528526647391    -0.407763739912    -1.718024273351
    H            2.525177570789     0.962797965690    -1.371534184793
    H            1.553016795805    -1.675406992155    -2.571190740283
    H            1.869997828354    -0.209057453734    -3.472780344171
    H            0.546969951295    -0.264466404150    -2.334436614608

  Mulliken Charges: (a.u.)
   Center  Symbol    Alpha    Beta     Spin     Total
       1     H     0.39517  0.39517  0.00000  0.20966
       2     O     4.20286  4.20286  0.00000 -0.40572
       3     C     2.97916  2.97916  0.00000  0.04168
       4     C     3.10127  3.10127  0.00000 -0.20255
       5     H     0.45833  0.45833  0.00000  0.08334
       6     H     0.45924  0.45924  0.00000  0.08152
       7     C     3.09628  3.09628  0.00000 -0.19256
       8     H     0.45912  0.45912  0.00000  0.08176
       9     H     0.45263  0.45263  0.00000  0.09474
      10     C     3.09459  3.09459  0.00000 -0.18919
      11     H     0.44294  0.44294  0.00000  0.11412
      12     H     0.45312  0.45312  0.00000  0.09376
      13     C     3.10118  3.10118  0.00000 -0.20236
      14     H     0.45413  0.45413  0.00000  0.09174
      15     H     0.45070  0.45070  0.00000  0.09860
      16     C     3.08917  3.08917  0.00000 -0.17833
      17     H     0.45486  0.45486  0.00000  0.09028
      18     H     0.44535  0.44535  0.00000  0.10930
      19     C     3.15214  3.15214  0.00000 -0.30428
      20     H     0.44889  0.44889  0.00000  0.10222
      21     H     0.45545  0.45545  0.00000  0.08910
      22     H     0.45485  0.45485  0.00000  0.09030
      23     H     0.44754  0.44754  0.00000  0.10493
      24     H     0.45103  0.45103  0.00000  0.09793

   Total alpha = 33.00000, Total beta = 33.00000, Total charge = -0.00000

*** Psi4 exiting successfully. Buy a developer a beer!
