  ==> Input File <==

--------------------------------------------------------------------------
set {
	reference rhf
	basis cc-pvtz
}

set_num_threads( 4 )
memory 2 gb

molecule MOL {
0 1

O	 -2.071633	 -1.227563	 -0.223463
C	 -1.652164	 -0.152425	 0.058082
C	 -0.327811	 0.006324	 0.778296
C	 -2.402515	 1.108629	 -0.298924
C	 0.843231	 -0.001575	 -0.211665
H	 -0.319484	 0.928173	 1.350354
H	 -0.227804	 -0.823091	 1.466705
C	 2.197693	 0.138030	 0.476937
H	 0.722944	 0.805202	 -0.930230
H	 0.813976	 -0.926978	 -0.776588
C	 2.672412	 -1.160055	 1.120971
H	 2.936363	 0.474207	 -0.245473
H	 2.134348	 0.914644	 1.233506
H	 2.779269	 -1.947791	 0.382670
H	 1.968738	 -1.504251	 1.871131
H	 3.633262	 -1.027849	 1.604386
H	 -3.240910	 0.874416	 -0.936711
H	 -1.747554	 1.818823	 -0.790984
H	 -2.760419	 1.579708	 0.610998

	symmetry c1
}
set optking {
	frozen_dihedral = ("
		11 8 5 9
	")
}

ee = optimize('scf')
oeprop('DIPOLE', 'QUADRUPOLE', 'MULLIKEN_CHARGES')
f=open( 'psi4out.xyz', 'w' )
f.write( "19  " )
f.write( str(ee) + "\n" )
f.write( MOL.save_string_xyz() )
f.close()
--------------------------------------------------------------------------

    Molecular point group: c1
  Charge       = 0
  Multiplicity = 1
  Basis Set: CC-PVTZ
  Basis Set:
  @DF-RHF Final Energy:  -309.17501375429777
    Total Energy =                       -309.1750137542979928
    Molecular point group: c1
  Basis Set: CC-PVTZ
  Basis Set:
  Basis Set: CC-PVTZ
  Basis Set:
  @DF-RHF Final Energy:  -309.17525321214140
    Total Energy =                       -309.1752532121413424
  Basis Set: CC-PVTZ
  Basis Set:
  Basis Set: CC-PVTZ
  Basis Set:
  @DF-RHF Final Energy:  -309.17520159437157
    Total Energy =                       -309.1752015943719130
  Basis Set: CC-PVTZ
  Basis Set:
  Basis Set: CC-PVTZ
  Basis Set:
  @DF-RHF Final Energy:  -309.17525386180250
    Total Energy =                       -309.1752538618026165
  Basis Set: CC-PVTZ
  Basis Set:
  Basis Set: CC-PVTZ
  Basis Set:
  @DF-RHF Final Energy:  -309.17526166264508
    Total Energy =                       -309.1752616626449708
  Basis Set: CC-PVTZ
  Basis Set:
  Basis Set: CC-PVTZ
  Basis Set:
  @DF-RHF Final Energy:  -309.17527912408769
    Total Energy =                       -309.1752791240876945
  Basis Set: CC-PVTZ
  Basis Set:
  Charge       = 0
  Multiplicity = 1
  Basis Set: CC-PVTZ
  Basis Set:

    Orbital Energies (a.u.)
    -----------------------

    Doubly Occupied:

       1A    -20.536914     2A    -11.319488     3A    -11.228841
       4A    -11.227738     5A    -11.226980     6A    -11.223154
       7A    -11.212004     8A     -1.397059     9A     -1.092109
      10A     -1.029018    11A     -0.982491    12A     -0.898062
      13A     -0.800900    14A     -0.736695    15A     -0.657998
      16A     -0.653796    17A     -0.622024    18A     -0.603091
      19A     -0.599142    20A     -0.577521    21A     -0.547495
      22A     -0.540722    23A     -0.516519    24A     -0.501911
      25A     -0.480974    26A     -0.477804    27A     -0.463790
      28A     -0.399481

  @DF-RHF Final Energy:  -309.17528013834186

   => Energetics <=

    Nuclear Repulsion Energy =            304.4883682528092663
    One-Electron Energy =               -1022.2198601987295206
    Two-Electron Energy =                 408.5562118075782223
    DFT Exchange-Correlation Energy =       0.0000000000000000
    Empirical Dispersion Energy =           0.0000000000000000
    PCM Polarization Energy =               0.0000000000000000
    EFP Energy =                            0.0000000000000000
    Total Energy =                       -309.1752801383419751
    Molecular point group: c1
  Basis Set: CC-PVTZ
  Basis Set:

  -Total Gradient:
     Atom            X                  Y                   Z
    ------   -----------------  -----------------  -----------------
       1       -0.000007742175    -0.000003115605     0.000012986680
       2        0.000026885596     0.000005630884    -0.000033859691
       3       -0.000020708985    -0.000018889747     0.000031330576
       4       -0.000011132534    -0.000000688693     0.000020331642
       5       -0.000781417814     0.001351960028     0.001295744890
       6       -0.000001420445    -0.000001845125    -0.000003513090
       7       -0.000013244367     0.000003364814     0.000003841333
       8       -0.000775794968     0.000297881749     0.001538090294
       9        0.000878653390    -0.001222613222    -0.001521645258
      10        0.000003190126     0.000005419776    -0.000000492318
      11        0.000703448912    -0.000417282294    -0.001339193418
      12       -0.000010257667    -0.000001673671     0.000001054520
      13        0.000002228878     0.000009754180    -0.000003511558
      14        0.000004558237    -0.000003155618     0.000002173063
      15        0.000006131761    -0.000006157051     0.000001753689
      16       -0.000007145436     0.000000819321    -0.000000872164
      17        0.000001932443    -0.000001540157    -0.000000331191
      18        0.000001702542    -0.000002371890    -0.000001061232
      19        0.000000132505     0.000004502326    -0.000002826767

  **** Optimization is complete! (in 7 steps) ****
    Final optimized geometry and variables:
    Molecular point group: c1

    Geometry (in Angstrom), charge = 0, multiplicity = 1:

    O           -1.973654565735    -1.030031800837    -0.493021104817
    C           -1.555435273927     0.041203325014    -0.195153064764
    C           -0.239590324520     0.189811519998     0.542813335182
    C           -2.299463637934     1.307442142443    -0.547018641721
    C            0.940513162367     0.191797089246    -0.437815444414
    H           -0.235243629992     1.108070877442     1.120642926515
    H           -0.156049564126    -0.644410983121     1.225967049913
    C            2.306982035063     0.320681285388     0.240802265342
    H            0.822647458328     1.000278193951    -1.153087779222
    H            0.910719084149    -0.725332447655    -1.016710900644
    C            2.804122184674    -0.968554972587     0.889383968052
    H            3.031552390768     0.629779717463    -0.505695914857
    H            2.274634895839     1.117573396244     0.978417498877
    H            2.890882005633    -1.760961551880     0.154220576468
    H            2.136638758711    -1.314958174258     1.669974277110
    H            3.780468477120    -0.822840819141     1.336789695116
    H           -3.129549602267     1.081946149909    -1.198662648221
    H           -1.637351007668     2.022993388708    -1.021303853047
    H           -2.669208605608     1.767496538880     0.363837385806

  Mulliken Charges: (a.u.)
   Center  Symbol    Alpha    Beta     Spin     Total
       1     O     4.17713  4.17713  0.00000 -0.35426
       2     C     2.85779  2.85779  0.00000  0.28441
       3     C     3.10045  3.10045  0.00000 -0.20089
       4     C     3.15481  3.15481  0.00000 -0.30963
       5     C     3.10488  3.10488  0.00000 -0.20975
       6     H     0.44946  0.44946  0.00000  0.10107
       7     H     0.43802  0.43802  0.00000  0.12396
       8     C     3.09086  3.09086  0.00000 -0.18171
       9     H     0.44570  0.44570  0.00000  0.10859
      10     H     0.44258  0.44258  0.00000  0.11484
      11     C     3.14807  3.14807  0.00000 -0.29614
      12     H     0.44706  0.44706  0.00000  0.10589
      13     H     0.45445  0.45445  0.00000  0.09109
      14     H     0.45235  0.45235  0.00000  0.09530
      15     H     0.45417  0.45417  0.00000  0.09167
      16     H     0.44691  0.44691  0.00000  0.10618
      17     H     0.43610  0.43610  0.00000  0.12781
      18     H     0.45092  0.45092  0.00000  0.09817
      19     H     0.44830  0.44830  0.00000  0.10341

   Total alpha = 28.00000, Total beta = 28.00000, Total charge = -0.00000
