                              Psi4 1.0.54 Driver

  ==> Input File <==

--------------------------------------------------------------------------
set {
	reference rhf
	basis cc-pvtz
}

set_num_threads( 4 )
memory 2 gb

molecule MOL {
0 1

O	 -2.752462	 -0.230983	 0.746498
C	 -1.922978	 0.063265	 -0.045005
C	 -2.190595	 0.377276	 -1.490077
O	 -0.637375	 0.157174	 0.243149
H	 -1.640849	 -0.310824	 -2.119375
H	 -3.247124	 0.297191	 -1.687488
H	 -1.843529	 1.377464	 -1.715330
C	 0.162530	 -1.009518	 0.097799
C	 1.587210	 -0.664190	 0.477086
H	 0.096803	 -1.356267	 -0.924704
H	 -0.233803	 -1.785900	 0.736810
C	 2.256770	 0.342732	 -0.454344
H	 2.154716	 -1.590834	 0.479041
H	 1.598751	 -0.289614	 1.496104
C	 3.698146	 0.643205	 -0.057145
H	 2.235038	 -0.042575	 -1.470299
H	 1.683491	 1.262594	 -0.461300
H	 4.150202	 1.356548	 -0.736242
H	 4.305463	 -0.255904	 -0.069842
H	 3.749130	 1.061068	 0.942759

	symmetry c1
}
set optking {
	frozen_dihedral = ("
		1 2 4 8
	")
}

ee,wfn = optimize('scf', return_wfn=True)
oeprop( wfn, 'DIPOLE', 'QUADRUPOLE', 'MULLIKEN_CHARGES')
f=open( 'psi4out.xyz', 'w' )
f.write( "20  " )
f.write( str(ee) + "\n" )
f.write( MOL.save_string_xyz() )
f.close()
--------------------------------------------------------------------------

    Molecular point group: c1
  Charge       = 0
  Multiplicity = 1
  Basis Set: CC-PVTZ
  Basis Set:
  @DF-RHF Final Energy:  -384.06729896366750
    Total Energy =                       -384.0672989636678949
    Molecular point group: c1
  Basis Set: CC-PVTZ
  Basis Set:
  Basis Set: CC-PVTZ
  Basis Set:
  @DF-RHF Final Energy:  -383.63939064951677
    Total Energy =                       -383.6393906495166561
  Basis Set: CC-PVTZ
  Basis Set:
  Basis Set: CC-PVTZ
  Basis Set:
  @DF-RHF Final Energy:  -383.81542617278552
    Total Energy =                       -383.8154261727854646
  Basis Set: CC-PVTZ
  Basis Set:
  Basis Set: CC-PVTZ
  Basis Set:
  @DF-RHF Final Energy:  -383.90666611779096
    Total Energy =                       -383.9066661177910760
  Basis Set: CC-PVTZ
  Basis Set:
  @DF-RHF Final Energy:  -384.04723510040299
    Total Energy =                       -384.0472351004029861
  @DF-RHF Final Energy:  -384.06730586456860
    Total Energy =                       -384.0673058645689935
  @DF-RHF Final Energy:  -384.06865265640675
    Total Energy =                       -384.0686526564065844
  @DF-RHF Final Energy:  -384.06877423401045
    Total Energy =                       -384.0687742340103341
  Basis Set: CC-PVTZ
  Basis Set:
  @DF-RHF Final Energy:  -384.06861873987799
    Total Energy =                       -384.0686187398778202
  Basis Set: CC-PVTZ
  Basis Set:
  Basis Set: CC-PVTZ
  Basis Set:
  @DF-RHF Final Energy:  -384.06883794988534
    Total Energy =                       -384.0688379498851646
  Basis Set: CC-PVTZ
  Basis Set:
  Basis Set: CC-PVTZ
  Basis Set:
  @DF-RHF Final Energy:  -384.06883940177090
    Total Energy =                       -384.0688394017711289
  Basis Set: CC-PVTZ
  Basis Set:
  Charge       = 0
  Multiplicity = 1
  Basis Set: CC-PVTZ
  Basis Set:

    Orbital Energies (a.u.)
    -----------------------

    Doubly Occupied:

       1A    -20.575714     2A    -20.544806     3A    -11.369879
       4A    -11.290778     5A    -11.236058     6A    -11.225858
       7A    -11.220475     8A    -11.212544     9A     -1.460952
      10A     -1.369303    11A     -1.086082    12A     -1.023530
      13A     -0.990248    14A     -0.883098    15A     -0.811871
      16A     -0.778528    17A     -0.696701    18A     -0.688800
      19A     -0.653533    20A     -0.636523    21A     -0.618570
      22A     -0.593233    23A     -0.579485    24A     -0.559506
      25A     -0.548814    26A     -0.532970    27A     -0.500111
      28A     -0.488428    29A     -0.480845    30A     -0.475763
      31A     -0.450368    32A     -0.440073

  @DF-RHF Final Energy:  -384.06883990573505

   => Energetics <=

    Nuclear Repulsion Energy =            384.9848053232192910
    One-Electron Energy =               -1286.0603954051057372
    Two-Electron Energy =                 517.0067501761513995
    DFT Exchange-Correlation Energy =       0.0000000000000000
    Empirical Dispersion Energy =           0.0000000000000000
    PCM Polarization Energy =               0.0000000000000000
    EFP Energy =                            0.0000000000000000
    Total Energy =                       -384.0688399057351035
    Molecular point group: c1
  Basis Set: CC-PVTZ
  Basis Set:

  -Total Gradient:
     Atom            X                  Y                   Z
    ------   -----------------  -----------------  -----------------
       1        0.000844734983     0.001318053127     0.002222532399
       2       -0.000898296570    -0.001120064624    -0.003822602412
       3        0.000002734125     0.000006762003     0.000034127356
       4       -0.000639177399    -0.001875398251     0.002884951828
       5       -0.000018523560    -0.000007226853    -0.000040144006
       6       -0.000013091643     0.000002580327    -0.000013392881
       7        0.000018931525    -0.000004812177    -0.000002584287
       8        0.000706736973     0.001711686614    -0.001281151161
       9        0.000010696928    -0.000011365972     0.000007402798
      10       -0.000009537245    -0.000020682829     0.000007615203
      11       -0.000009335925    -0.000002735320     0.000008853552
      12        0.000006427453     0.000013867987     0.000010655110
      13       -0.000006319877     0.000009874211    -0.000002244142
      14        0.000001002007     0.000006080459    -0.000001107935
      15       -0.000013572183    -0.000037312753    -0.000005044521
      16       -0.000004915497    -0.000004387841    -0.000005714604
      17       -0.000003338044    -0.000011468384    -0.000003630827
      18        0.000010342314     0.000009318900     0.000005042349
      19        0.000007936947     0.000005523890     0.000001335873
      20        0.000006564676     0.000011707488    -0.000004899693

  **** Optimization is complete! (in 12 steps) ****
    Final optimized geometry and variables:
    Molecular point group: c1

    Geometry (in Angstrom), charge = 0, multiplicity = 1:

    O           -2.565545726524     0.214903697956     1.269684304096
    C           -1.701338047779     0.711057007747     0.645168933976
    C           -1.794798462266     2.060576531083    -0.010391316794
    O           -0.489976979474     0.131740646665     0.525251708983
    H           -1.537037187129     1.988504292188    -1.059720489021
    H           -2.790161804170     2.459620101506     0.099802376385
    H           -1.075127920260     2.723120118653     0.454751854198
    C           -0.302635020407    -0.757645284147    -0.563648429676
    C            1.107036949939    -1.307785140611    -0.512426483820
    H           -0.471328625870    -0.229888244303    -1.498477597211
    H           -1.026335453450    -1.560241156754    -0.489176407744
    C            2.195020383973    -0.255807679593    -0.707680454978
    H            1.188510390440    -2.066488865293    -1.286169845701
    H            1.244478546342    -1.811376852159     0.438636768748
    C            3.599090560840    -0.849131775835    -0.663973672929
    H            2.043815561144     0.242554897873    -1.662040756036
    H            2.098420545219     0.504933476500     0.057618730679
    H            4.351527568276    -0.082435243219    -0.806676733583
    H            3.735891219820    -1.595345279353    -1.439728695959
    H            3.791245959974    -1.326769241886     0.290745734779

  Mulliken Charges: (a.u.)
   Center  Symbol    Alpha    Beta     Spin     Total
       1     O     4.17044  4.17044  0.00000 -0.34088
       2     C     2.80449  2.80449  0.00000  0.39103
       3     C     3.14368  3.14368  0.00000 -0.28737
       4     O     4.17166  4.17166  0.00000 -0.34333
       5     H     0.45047  0.45047  0.00000  0.09905
       6     H     0.43645  0.43645  0.00000  0.12709
       7     H     0.44404  0.44404  0.00000  0.11192
       8     C     2.99044  2.99044  0.00000  0.01912
       9     C     3.08689  3.08689  0.00000 -0.17378
      10     H     0.46231  0.46231  0.00000  0.07537
      11     H     0.44438  0.44438  0.00000  0.11124
      12     C     3.08626  3.08626  0.00000 -0.17251
      13     H     0.45287  0.45287  0.00000  0.09425
      14     H     0.44684  0.44684  0.00000  0.10633
      15     C     3.14976  3.14976  0.00000 -0.29951
      16     H     0.45782  0.45782  0.00000  0.08435
      17     H     0.44502  0.44502  0.00000  0.10995
      18     H     0.44750  0.44750  0.00000  0.10501
      19     H     0.45583  0.45583  0.00000  0.08835
      20     H     0.45284  0.45284  0.00000  0.09432

   Total alpha = 32.00000, Total beta = 32.00000, Total charge =  0.00000

*** Psi4 exiting successfully. Buy a developer a beer!
