  ==> Input File <==

--------------------------------------------------------------------------
set {
	reference rhf
	basis 6-31G*
}

set_num_threads( 4 )
memory 2 gb

molecule MOL {
0 1

H	 3.665238	 -0.098818	 0.740052
N	 3.092854	 -0.246221	 -0.068770
C	 1.865559	 0.531981	 0.018834
H	 2.885441	 -1.226384	 -0.101778
C	 0.645745	 -0.382037	 -0.029944
H	 1.841966	 1.207024	 -0.831236
H	 1.815756	 1.155410	 0.915079
C	 -0.679275	 0.379305	 0.025956
H	 0.698998	 -0.976915	 -0.937203
H	 0.693479	 -1.083846	 0.802235
C	 -1.903357	 -0.536963	 -0.023547
H	 -0.726309	 1.082987	 -0.803784
H	 -0.717680	 0.977832	 0.934877
C	 -3.225172	 0.228290	 0.028445
H	 -1.867824	 -1.134999	 -0.931459
H	 -1.860449	 -1.239604	 0.805977
H	 -3.313397	 0.915643	 -0.808262
H	 -4.073500	 -0.448134	 -0.008893
H	 -3.306061	 0.809945	 0.942516

	symmetry c1
}
set optking {
	frozen_dihedral = ("
		1 2 3 6
	")
}

ee = optimize('scf')
oeprop('DIPOLE', 'QUADRUPOLE', 'MULLIKEN_CHARGES')
f=open( 'psi4out.xyz', 'w' )
f.write( "19  " )
f.write( str(ee) + "\n" )
f.write( MOL.save_string_xyz() )
f.close()
--------------------------------------------------------------------------

    Molecular point group: c1
  Charge       = 0
  Multiplicity = 1
  Basis Set: 6-31G*
  Basis Set:
  @DF-RHF Final Energy:  -251.34646925607754
    Total Energy =                       -251.3464692560772846
    Molecular point group: c1
  Basis Set: 6-31G*
  Basis Set:
  Basis Set: 6-31G*
  Basis Set:
  @DF-RHF Final Energy:  -251.34724064790720
    Total Energy =                       -251.3472406479073129
  Basis Set: 6-31G*
  Basis Set:
  Basis Set: 6-31G*
  Basis Set:
  @DF-RHF Final Energy:  -251.34738255714907
    Total Energy =                       -251.3473825571494444
  Basis Set: 6-31G*
  Basis Set:
  Basis Set: 6-31G*
  Basis Set:
  @DF-RHF Final Energy:  -251.34739019371838
    Total Energy =                       -251.3473901937185246
  Basis Set: 6-31G*
  Basis Set:
  Basis Set: 6-31G*
  Basis Set:
  @DF-RHF Final Energy:  -251.34739621771209
    Total Energy =                       -251.3473962177118892
  Basis Set: 6-31G*
  Basis Set:
  Charge       = 0
  Multiplicity = 1
  Basis Set: 6-31G*
  Basis Set:

    Orbital Energies (a.u.)
    -----------------------

    Doubly Occupied:

       1A    -15.528312     2A    -11.239256     3A    -11.217062
       4A    -11.216495     5A    -11.215918     6A    -11.209643
       7A     -1.172712     8A     -1.075941     9A     -1.000662
      10A     -0.901690    11A     -0.818647    12A     -0.793899
      13A     -0.666563    14A     -0.642378    15A     -0.602992
      16A     -0.599123    17A     -0.566396    18A     -0.551474
      19A     -0.532833    20A     -0.498838    21A     -0.487818
      22A     -0.468595    23A     -0.465473    24A     -0.456422
      25A     -0.372146

  @DF-RHF Final Energy:  -251.34739667195910

   => Energetics <=

    Nuclear Repulsion Energy =            245.5442484050143150
    One-Electron Energy =                -825.1807107118947897
    Two-Electron Energy =                 328.2890656349214851
    DFT Exchange-Correlation Energy =       0.0000000000000000
    Empirical Dispersion Energy =           0.0000000000000000
    PCM Polarization Energy =               0.0000000000000000
    EFP Energy =                            0.0000000000000000
    Total Energy =                       -251.3473966719590180
    Molecular point group: c1
  Basis Set: 6-31G*
  Basis Set:

  -Total Gradient:
     Atom            X                  Y                   Z
    ------   -----------------  -----------------  -----------------
       1        0.000336820565     0.000617628367    -0.000346781178
       2       -0.000296792002    -0.000719091254     0.000517719307
       3       -0.000366232818    -0.000516813406    -0.000560766690
       4       -0.000021419563     0.000045000513    -0.000019613409
       5        0.000129077589     0.000024140430    -0.000013349368
       6        0.000307994031     0.000464335353     0.000408172312
       7       -0.000033414056     0.000054348519     0.000032537224
       8       -0.000027165017     0.000007867909    -0.000023044747
       9       -0.000007347758     0.000015228801     0.000041827374
      10        0.000016031829     0.000005150888    -0.000013036954
      11       -0.000029007789     0.000017100540    -0.000013948527
      12        0.000007510051    -0.000005830253    -0.000014987114
      13       -0.000002111809    -0.000004360923    -0.000017073163
      14       -0.000012764407    -0.000013311240     0.000027858019
      15       -0.000007172129     0.000012706629    -0.000007099046
      16        0.000009570550    -0.000007232890    -0.000007962289
      17        0.000005385593    -0.000007377414    -0.000001870951
      18       -0.000004344607     0.000002624491     0.000007906618
      19       -0.000004618256     0.000007884941     0.000003512581

  **** Optimization is complete! (in 6 steps) ****
    Final optimized geometry and variables:
    Molecular point group: c1

    Geometry (in Angstrom), charge = 0, multiplicity = 1:

    H            3.698117949040    -0.081935584884     0.738528357824
    N            3.130873112062    -0.207492686579    -0.074066143911
    C            1.868509912491     0.523181880586     0.023843212939
    H            2.982213339254    -1.189619896409    -0.189919358135
    C            0.642155043010    -0.386465091094    -0.011275305835
    H            1.806342197783     1.238353753842    -0.792322871431
    H            1.850294854771     1.108234610696     0.940394772030
    C           -0.679523335453     0.382087338685     0.020007465385
    H            0.683364247527    -0.996331456599    -0.912727874486
    H            0.686021288423    -1.074819277822     0.831365101140
    C           -1.908832836302    -0.527660659509    -0.021122786885
    H           -0.715246303701     1.071083667591    -0.821848548075
    H           -0.718741316704     0.996168618905     0.918326735005
    C           -3.225881189631     0.246557193849     0.017122032879
    H           -1.874809449312    -1.137395612999    -0.921393837803
    H           -1.872840435771    -1.219697329937     0.817558819003
    H           -3.307666610455     0.922893467410    -0.829045908423
    H           -4.078188316063    -0.425168623328    -0.013072115542
    H           -3.305238428452     0.840948662397     0.923024588433

  Mulliken Charges: (a.u.)
   Center  Symbol    Alpha    Beta     Spin     Total
       1     H     0.33134  0.33134  0.00000  0.33732
       2     N     3.93317  3.93317  0.00000 -0.86635
       3     C     3.04496  3.04496  0.00000 -0.08992
       4     H     0.33121  0.33121  0.00000  0.33758
       5     C     3.16794  3.16794  0.00000 -0.33589
       6     H     0.42064  0.42064  0.00000  0.15871
       7     H     0.42789  0.42789  0.00000  0.14422
       8     C     3.15409  3.15409  0.00000 -0.30817
       9     H     0.42095  0.42095  0.00000  0.15811
      10     H     0.42472  0.42472  0.00000  0.15057
      11     C     3.15119  3.15119  0.00000 -0.30239
      12     H     0.42134  0.42134  0.00000  0.15733
      13     H     0.42359  0.42359  0.00000  0.15282
      14     C     3.23945  3.23945  0.00000 -0.47890
      15     H     0.42235  0.42235  0.00000  0.15529
      16     H     0.42316  0.42316  0.00000  0.15368
      17     H     0.42123  0.42123  0.00000  0.15755
      18     H     0.41904  0.41904  0.00000  0.16192
      19     H     0.42174  0.42174  0.00000  0.15652

   Total alpha = 25.00000, Total beta = 25.00000, Total charge =  0.00000
