  ==> Input File <==

--------------------------------------------------------------------------
set {
	reference rhf
	basis 6-31G*
}

set_num_threads( 4 )
memory 2 gb

molecule MOL {
0 1

H	 -0.335457	 -1.826745	 0.507925
C	 -1.356075	 -1.475882	 0.368728
O	 -1.392607	 -0.295399	 -0.366433
H	 -1.910251	 -2.221704	 -0.184246
H	 -1.814973	 -1.351988	 1.348774
C	 -0.719715	 0.768384	 0.229244
C	 0.719720	 0.768376	 -0.229267
H	 -1.185038	 1.714362	 -0.050570
H	 -0.750528	 0.687237	 1.313896
O	 1.392611	 -0.295398	 0.366430
H	 0.750534	 0.687200	 -1.313918
H	 1.185043	 1.714359	 0.050526
C	 2.706965	 -0.449871	 -0.062409
H	 2.756559	 -0.644779	 -1.131878
H	 3.305899	 0.433456	 0.155466
H	 3.125548	 -1.294566	 0.467107

	symmetry c1
}
set optking {
	frozen_dihedral = ("
		2 3 6 7
	")
}

ee = optimize('scf')
oeprop('DIPOLE', 'QUADRUPOLE', 'MULLIKEN_CHARGES')
f=open( 'psi4out.xyz', 'w' )
f.write( "16  " )
f.write( str(ee) + "\n" )
f.write( MOL.save_string_xyz() )
f.close()
--------------------------------------------------------------------------

    Molecular point group: c1
  Charge       = 0
  Multiplicity = 1
  Basis Set: 6-31G*
  Basis Set:
  @DF-RHF Final Energy:  -306.97514267506068
    Total Energy =                       -306.9751426750608516
    Molecular point group: c1
  Basis Set: 6-31G*
  Basis Set:
  Basis Set: 6-31G*
  Basis Set:
  @DF-RHF Final Energy:  -306.97708816835177
    Total Energy =                       -306.9770881683517700
  Basis Set: 6-31G*
  Basis Set:
  Basis Set: 6-31G*
  Basis Set:
  @DF-RHF Final Energy:  -306.97730146861596
    Total Energy =                       -306.9773014686160764
  Basis Set: 6-31G*
  Basis Set:
  Basis Set: 6-31G*
  Basis Set:
  @DF-RHF Final Energy:  -306.97731846568911
    Total Energy =                       -306.9773184656893363
  Basis Set: 6-31G*
  Basis Set:
  Basis Set: 6-31G*
  Basis Set:
  @DF-RHF Final Energy:  -306.97731957132828
    Total Energy =                       -306.9773195713281098
  Basis Set: 6-31G*
  Basis Set:
  Charge       = 0
  Multiplicity = 1
  Basis Set: 6-31G*
  Basis Set:

    Orbital Energies (a.u.)
    -----------------------

    Doubly Occupied:

       1A    -20.560836     2A    -20.549028     3A    -11.269331
       4A    -11.269045     5A    -11.267695     6A    -11.253881
       7A     -1.389016     8A     -1.366478     9A     -1.028158
      10A     -0.943088    11A     -0.890102    12A     -0.820966
      13A     -0.686077    14A     -0.678750    15A     -0.658001
      16A     -0.632746    17A     -0.623931    18A     -0.598189
      19A     -0.552495    20A     -0.527529    21A     -0.521086
      22A     -0.481320    23A     -0.463169    24A     -0.422729
      25A     -0.402488

  @DF-RHF Final Energy:  -306.97731966908970

   => Energetics <=

    Nuclear Repulsion Energy =            263.2131862685238843
    One-Electron Energy =                -940.6687411118979298
    Two-Electron Energy =                 370.4782351742840092
    DFT Exchange-Correlation Energy =       0.0000000000000000
    Empirical Dispersion Energy =           0.0000000000000000
    PCM Polarization Energy =               0.0000000000000000
    EFP Energy =                            0.0000000000000000
    Total Energy =                       -306.9773196690900932
    Molecular point group: c1
  Basis Set: 6-31G*
  Basis Set:

  -Total Gradient:
     Atom            X                  Y                   Z
    ------   -----------------  -----------------  -----------------
       1        0.000001558112     0.000001253438     0.000001086442
       2       -0.000259402907     0.000077413883     0.000148159641
       3        0.000319874775    -0.000041042065    -0.000302396824
       4        0.000004475824    -0.000007357066     0.000003957277
       5        0.000013133258    -0.000001486312    -0.000004168652
       6       -0.000019181306    -0.000206061351     0.000349778562
       7       -0.000054867743     0.000159550057    -0.000206551190
       8       -0.000002955954     0.000005679902     0.000002271448
       9        0.000002740160     0.000012801407    -0.000001072747
      10       -0.000003593090    -0.000011145079     0.000014592670
      11       -0.000004169791     0.000004808875     0.000000739482
      12        0.000000836879     0.000005753074    -0.000001005088
      13       -0.000003269537     0.000001683978    -0.000002974287
      14        0.000005072521    -0.000001941228    -0.000003188434
      15        0.000000531468    -0.000000485251     0.000001180853
      16       -0.000000782667     0.000000573737    -0.000000409153

  **** Optimization is complete! (in 6 steps) ****
    Final optimized geometry and variables:
    Molecular point group: c1

    Geometry (in Angstrom), charge = 0, multiplicity = 1:

    H           -0.717221722891    -1.779082749413     0.363737046108
    C           -1.698074787882    -1.323478542855     0.320528449362
    O           -1.683928965593    -0.117909380619    -0.388432266638
    H           -2.379739776275    -1.984873482205    -0.197426118991
    H           -2.061250415416    -1.175080045439     1.335579336207
    C           -0.936798464023     0.919939691132     0.169586000110
    C            0.505572914497     0.938455673183    -0.295604882000
    H           -1.406473743871     1.844788186452    -0.147736791078
    H           -0.966570922210     0.883558622966     1.256063891935
    O            1.210842862405    -0.112134608012     0.294965249894
    H            0.532826670530     0.854671976656    -1.380273043759
    H            0.957144320269     1.892875220420    -0.020849089106
    C            2.537634995534    -0.211074141512    -0.116347609521
    H            2.609945390814    -0.385796427643    -1.187813993821
    H            3.096540386438     0.691285993533     0.125025711719
    H            2.981048760406    -1.047321567537     0.406421390954

  Mulliken Charges: (a.u.)
   Center  Symbol    Alpha    Beta     Spin     Total
       1     H     0.41355  0.41355  0.00000  0.17291
       2     C     3.08228  3.08228  0.00000 -0.16457
       3     O     4.30823  4.30823  0.00000 -0.61645
       4     H     0.41684  0.41684  0.00000  0.16632
       5     H     0.43199  0.43199  0.00000  0.13603
       6     C     3.00006  3.00006  0.00000 -0.00012
       7     C     2.99543  2.99543  0.00000  0.00914
       8     H     0.41672  0.41672  0.00000  0.16656
       9     H     0.42372  0.42372  0.00000  0.15256
      10     O     4.30595  4.30595  0.00000 -0.61190
      11     H     0.42344  0.42344  0.00000  0.15311
      12     H     0.43340  0.43340  0.00000  0.13321
      13     C     3.08008  3.08008  0.00000 -0.16016
      14     H     0.42735  0.42735  0.00000  0.14530
      15     H     0.42946  0.42946  0.00000  0.14108
      16     H     0.41151  0.41151  0.00000  0.17699

   Total alpha = 25.00000, Total beta = 25.00000, Total charge =  0.00000
