                              Psi4 1.0.54 Driver

  ==> Input File <==

--------------------------------------------------------------------------
set {
	reference rhf
	basis cc-pvtz
}

set_num_threads( 4 )
memory 2 gb

molecule MOL {
0 1

H	 4.612582	 0.362897	 -0.057378
C	 3.752154	 -0.293473	 -0.003052
C	 2.451980	 0.501653	 -0.047479
H	 3.814792	 -0.988243	 -0.833961
H	 3.832912	 -0.867825	 0.913798
C	 1.215950	 -0.382441	 0.027187
H	 2.404544	 1.088235	 -0.958212
H	 2.434964	 1.209871	 0.777576
N	 0.000002	 0.398953	 -0.040851
H	 1.218840	 -1.073829	 -0.810156
H	 1.262792	 -0.994954	 0.932570
C	 -1.215959	 -0.382435	 0.027143
H	 -0.000012	 1.086078	 0.683841
C	 -2.451944	 0.502410	 -0.038737
H	 -1.221867	 -1.069392	 -0.813828
H	 -1.259993	 -0.999709	 0.929424
C	 -3.752217	 -0.292550	 0.005776
H	 -2.407325	 1.093801	 -0.946480
H	 -2.431979	 1.206234	 0.790023
H	 -3.817783	 -0.982946	 -0.828547
H	 -4.612613	 0.364348	 -0.042306
H	 -3.830160	 -0.871666	 0.919868

	symmetry c1
}
set optking {
	frozen_dihedral = ("
		10 6 9 12
	")
}

ee,wfn = optimize('scf', return_wfn=True)
oeprop( wfn, 'DIPOLE', 'QUADRUPOLE', 'MULLIKEN_CHARGES')
f=open( 'psi4out.xyz', 'w' )
f.write( "22  " )
f.write( str(ee) + "\n" )
f.write( MOL.save_string_xyz() )
f.close()
--------------------------------------------------------------------------

    Molecular point group: c1
  Charge       = 0
  Multiplicity = 1
  Basis Set: CC-PVTZ
  Basis Set:
  @DF-RHF Final Energy:  -290.49010218904755
    Total Energy =                       -290.4901021890473203
    Molecular point group: c1
  Basis Set: CC-PVTZ
  Basis Set:
  Charge       = 0
  Multiplicity = 1
  Basis Set: CC-PVTZ
  Basis Set:

    Orbital Energies (a.u.)
    -----------------------

    Doubly Occupied:

       1A    -15.528062     2A    -11.236189     3A    -11.236171
       4A    -11.211779     5A    -11.211732     6A    -11.207536
       7A    -11.207511     8A     -1.207418     9A     -1.060434
      10A     -1.027086    11A     -0.928764    12A     -0.868925
      13A     -0.811965    14A     -0.793917    15A     -0.669731
      16A     -0.627070    17A     -0.616234    18A     -0.614872
      19A     -0.574335    20A     -0.563323    21A     -0.529339
      22A     -0.529169    23A     -0.516239    24A     -0.485526
      25A     -0.482986    26A     -0.474680    27A     -0.466160
      28A     -0.451982    29A     -0.361398

  @DF-RHF Final Energy:  -290.49010225690773

   => Energetics <=

    Nuclear Repulsion Energy =            313.6646397172502816
    One-Electron Energy =               -1013.3084194118150663
    Two-Electron Energy =                 409.1536774376568815
    DFT Exchange-Correlation Energy =       0.0000000000000000
    Empirical Dispersion Energy =           0.0000000000000000
    PCM Polarization Energy =               0.0000000000000000
    EFP Energy =                            0.0000000000000000
    Total Energy =                       -290.4901022569078464
    Molecular point group: c1
  Basis Set: CC-PVTZ
  Basis Set:

  -Total Gradient:
     Atom            X                  Y                   Z
    ------   -----------------  -----------------  -----------------
       1        0.000002154914     0.000001377696    -0.000003220207
       2       -0.000001100463     0.000002899713    -0.000008995740
       3        0.000003946767    -0.000001274087     0.000017012148
       4       -0.000000054002    -0.000005099165    -0.000000700230
       5       -0.000001080503     0.000002152480     0.000002749620
       6        0.000047015576     0.000032050730    -0.000066055656
       7        0.000001626040    -0.000001235837     0.000002591353
       8        0.000000473483     0.000002151900     0.000000818494
       9       -0.000005341304     0.000016787552     0.000059850958
      10       -0.000031193205    -0.000040094453     0.000036809421
      11       -0.000002182036     0.000011944492    -0.000006978691
      12       -0.000021858732    -0.000015000106    -0.000038127167
      13        0.000001143269    -0.000003611952     0.000004030682
      14        0.000008037971    -0.000012619016     0.000013413782
      15       -0.000002622630    -0.000001479769     0.000000064479
      16       -0.000001741889     0.000003915382    -0.000000037497
      17        0.000004105860     0.000003482189    -0.000012975719
      18       -0.000006866337     0.000004262021     0.000002041118
      19        0.000004125520    -0.000000465880     0.000001519964
      20       -0.000000881052    -0.000006259126    -0.000000765899
      21       -0.000001525590     0.000001623815    -0.000004653095
      22        0.000003818344     0.000004491421     0.000001607883

  **** Optimization is complete! (in 2 steps) ****
    Final optimized geometry and variables:
    Molecular point group: c1

    Geometry (in Angstrom), charge = 0, multiplicity = 1:

    H            4.612517197513     0.363267409307    -0.057682899055
    C            3.752174379820    -0.293087845157    -0.001458832188
    C            2.451961260515     0.501958268800    -0.044836686423
    H            3.813603004914    -0.988736852964    -0.831735682493
    H            3.834167932433    -0.866437727424     0.915916589521
    C            1.216028475777    -0.382231335344     0.030134725143
    H            2.403914618317     1.088799909770    -0.955340827236
    H            2.435285948226     1.209843099704     0.780510663671
    N           -0.000036579790     0.398906200786    -0.038003902941
    H            1.218848594486    -1.074089312358    -0.806810391340
    H            1.263045904371    -0.994493043677     0.935689017581
    C           -1.216028705262    -0.382311750270     0.030714948345
    H            0.000159363913     1.086574237595     0.686200890375
    C           -2.451871205560     0.502694952534    -0.035363693042
    H           -1.222383600234    -1.069689884872    -0.809906032143
    H           -1.260046616874    -0.999070228691     0.933372400771
    C           -3.752199249553    -0.292200582675     0.006963061041
    H           -2.406332850181     1.094986131663    -0.942477686786
    H           -2.432611318087     1.205578049591     0.794197138901
    H           -3.816250681562    -0.982791920620    -0.827322694421
    H           -4.612486665160     0.364747254409    -0.042796426701
    H           -3.831695996481    -0.871050809847     0.921093109369

  Mulliken Charges: (a.u.)
   Center  Symbol    Alpha    Beta     Spin     Total
       1     H     0.44771  0.44771  0.00000  0.10458
       2     C     3.15361  3.15361  0.00000 -0.30721
       3     C     3.08011  3.08011  0.00000 -0.16023
       4     H     0.45477  0.45477  0.00000  0.09046
       5     H     0.45614  0.45614  0.00000  0.08772
       6     C     3.02278  3.02278  0.00000 -0.04557
       7     H     0.44918  0.44918  0.00000  0.10165
       8     H     0.45967  0.45967  0.00000  0.08066
       9     N     3.63858  3.63858  0.00000 -0.27716
      10     H     0.45913  0.45913  0.00000  0.08174
      11     H     0.47480  0.47480  0.00000  0.05040
      12     C     3.02264  3.02264  0.00000 -0.04529
      13     H     0.44559  0.44559  0.00000  0.10882
      14     C     3.08021  3.08021  0.00000 -0.16042
      15     H     0.45915  0.45915  0.00000  0.08170
      16     H     0.47491  0.47491  0.00000  0.05019
      17     C     3.15360  3.15360  0.00000 -0.30719
      18     H     0.44915  0.44915  0.00000  0.10170
      19     H     0.45968  0.45968  0.00000  0.08063
      20     H     0.45476  0.45476  0.00000  0.09049
      21     H     0.44771  0.44771  0.00000  0.10459
      22     H     0.45613  0.45613  0.00000  0.08774

   Total alpha = 29.00000, Total beta = 29.00000, Total charge = -0.00000

*** Psi4 exiting successfully. Buy a developer a beer!
