                              Psi4 1.0.54 Driver

  ==> Input File <==

--------------------------------------------------------------------------
set {
	reference rhf
	basis cc-pvtz
}

set_num_threads( 4 )
memory 2 gb

molecule MOL {
0 1

H	 1.900947	 -1.250879	 -0.908448
C	 1.017805	 -1.885527	 -1.059891
C	 -0.289308	 -1.148430	 -1.154460
O	 1.138623	 -3.059295	 -1.132728
C	 -0.554654	 -0.292621	 0.086567
H	 -1.079673	 -1.870541	 -1.311674
H	 -0.238182	 -0.506375	 -2.031403
C	 -1.846385	 0.513195	 -0.016346
H	 -0.599193	 -0.935817	 0.960783
H	 0.279824	 0.385705	 0.245286
C	 -3.089953	 -0.365049	 -0.098564
H	 -1.798267	 1.154820	 -0.891143
H	 -1.925398	 1.173265	 0.842889
H	 -3.055079	 -1.012299	 -0.968245
H	 -3.988403	 0.236438	 -0.170014
H	 -3.183055	 -0.995885	 0.779079

	symmetry c1
}
set optking {
	frozen_dihedral = ("
		9 5 8 12
	")
}

ee,wfn = optimize('scf', return_wfn=True)
oeprop( wfn, 'DIPOLE', 'QUADRUPOLE', 'MULLIKEN_CHARGES')
f=open( 'psi4out.xyz', 'w' )
f.write( "16  " )
f.write( str(ee) + "\n" )
f.write( MOL.save_string_xyz() )
f.close()
--------------------------------------------------------------------------

    Molecular point group: c1
  Charge       = 0
  Multiplicity = 1
  Basis Set: CC-PVTZ
  Basis Set:
  @DF-RHF Final Energy:  -270.11714972446816
    Total Energy =                       -270.1171497244682769
    Molecular point group: c1
  Basis Set: CC-PVTZ
  Basis Set:
  Basis Set: CC-PVTZ
  Basis Set:
  @DF-RHF Final Energy:  -270.11730322831249
    Total Energy =                       -270.1173032283122666
  Basis Set: CC-PVTZ
  Basis Set:
  Basis Set: CC-PVTZ
  Basis Set:
  @DF-RHF Final Energy:  -270.11769991519782
    Total Energy =                       -270.1176999151978748
  Basis Set: CC-PVTZ
  Basis Set:
  Basis Set: CC-PVTZ
  Basis Set:
  @DF-RHF Final Energy:  -270.11760314549826
    Total Energy =                       -270.1176031454983786
  Basis Set: CC-PVTZ
  Basis Set:
  Basis Set: CC-PVTZ
  Basis Set:
  @DF-RHF Final Energy:  -270.11766821653089
    Total Energy =                       -270.1176682165308875
  Basis Set: CC-PVTZ
  Basis Set:
  Basis Set: CC-PVTZ
  Basis Set:
  @DF-RHF Final Energy:  -270.11771828544363
    Total Energy =                       -270.1177182854438570
  Basis Set: CC-PVTZ
  Basis Set:
  Basis Set: CC-PVTZ
  Basis Set:
  @DF-RHF Final Energy:  -270.11771979835009
    Total Energy =                       -270.1177197983501514
  Basis Set: CC-PVTZ
  Basis Set:
  Charge       = 0
  Multiplicity = 1
  Basis Set: CC-PVTZ
  Basis Set:

    Orbital Energies (a.u.)
    -----------------------

    Doubly Occupied:

       1A    -20.552209     2A    -11.321291     3A    -11.234879
       4A    -11.233607     5A    -11.227787     6A    -11.215944
       7A     -1.406980     8A     -1.097524     9A     -1.016727
      10A     -0.913385    11A     -0.810742    12A     -0.790583
      13A     -0.681491    14A     -0.647966    15A     -0.629367
      16A     -0.608683    17A     -0.581734    18A     -0.553333
      19A     -0.540641    20A     -0.507425    21A     -0.487997
      22A     -0.481193    23A     -0.474560    24A     -0.412184

  @DF-RHF Final Energy:  -270.11772003563010

   => Energetics <=

    Nuclear Repulsion Energy =            232.3140708676010888
    One-Electron Energy =                -826.0071190551930158
    Two-Electron Energy =                 323.5753281519615712
    DFT Exchange-Correlation Energy =       0.0000000000000000
    Empirical Dispersion Energy =           0.0000000000000000
    PCM Polarization Energy =               0.0000000000000000
    EFP Energy =                            0.0000000000000000
    Total Energy =                       -270.1177200356303274
    Molecular point group: c1
  Basis Set: CC-PVTZ
  Basis Set:

  -Total Gradient:
     Atom            X                  Y                   Z
    ------   -----------------  -----------------  -----------------
       1       -0.000012433604    -0.000014962260     0.000001982491
       2       -0.000005175132    -0.000022025189    -0.000002728657
       3       -0.000005985365     0.000019821934     0.000040181236
       4        0.000004015807     0.000032105708    -0.000012051407
       5        0.000067966905     0.000109774034     0.000037778268
       6        0.000022238067     0.000017454085     0.000000910580
       7       -0.000004977939    -0.000022903927     0.000009958825
       8        0.000050799447     0.000093441978     0.000102938976
       9       -0.000064460033    -0.000097863159    -0.000080219061
      10        0.000002796266    -0.000010919434    -0.000005553716
      11        0.000001001427     0.000005131905    -0.000017559393
      12       -0.000059300390    -0.000105282838    -0.000074920312
      13        0.000004289671    -0.000001242695    -0.000001725716
      14        0.000003350383    -0.000005538343     0.000000271468
      15       -0.000005890650     0.000000335698    -0.000002339807
      16        0.000001765141     0.000002672500     0.000003076227

  **** Optimization is complete! (in 8 steps) ****
    Final optimized geometry and variables:
    Molecular point group: c1

    Geometry (in Angstrom), charge = 0, multiplicity = 1:

    H            2.514428300771    -0.130052737143    -0.363211782281
    C            1.661228224302    -0.808053715971    -0.497066200506
    C            0.320059423422    -0.135008917679    -0.598099173365
    O            1.836331334764    -1.976077050891    -0.547652534235
    C            0.025531296612     0.720640051640     0.638369932334
    H           -0.428934692566    -0.898488570887    -0.751401965106
    H            0.342143788224     0.502814903012    -1.479657161012
    C           -1.255238204211     1.549599637027     0.534302258777
    H           -0.031686343602     0.075768467540     1.510728112258
    H            0.861244163441     1.393725086104     0.807438361675
    C           -2.539371775430     0.726961303134     0.471433718641
    H           -1.194217055138     2.193067021107    -0.339132445991
    H           -1.303163886117     2.208753148383     1.394917023837
    H           -2.585357171005     0.113186502493    -0.420020222237
    H           -3.407980385830     1.374785081916     0.465095851856
    H           -2.623466014083     0.069944375775     1.330746448680

  Mulliken Charges: (a.u.)
   Center  Symbol    Alpha    Beta     Spin     Total
       1     H     0.46393  0.46393  0.00000  0.07214
       2     C     2.91017  2.91017  0.00000  0.17966
       3     C     3.08054  3.08054  0.00000 -0.16107
       4     O     4.16338  4.16338  0.00000 -0.32676
       5     C     3.10845  3.10845  0.00000 -0.21689
       6     H     0.44212  0.44212  0.00000  0.11576
       7     H     0.44956  0.44956  0.00000  0.10087
       8     C     3.09064  3.09064  0.00000 -0.18128
       9     H     0.44493  0.44493  0.00000  0.11014
      10     H     0.44632  0.44632  0.00000  0.10737
      11     C     3.15093  3.15093  0.00000 -0.30185
      12     H     0.45339  0.45339  0.00000  0.09322
      13     H     0.44587  0.44587  0.00000  0.10826
      14     H     0.45213  0.45213  0.00000  0.09573
      15     H     0.44503  0.44503  0.00000  0.10994
      16     H     0.45261  0.45261  0.00000  0.09478

   Total alpha = 24.00000, Total beta = 24.00000, Total charge =  0.00000

*** Psi4 exiting successfully. Buy a developer a beer!
