  ==> Input File <==

--------------------------------------------------------------------------
set {
	reference rhf
	basis 6-31G*
}

set_num_threads( 4 )
memory 2 gb

molecule MOL {
0 1

H	 1.820488	 -1.196681	 0.805392
C	 1.951159	 -0.223429	 0.317018
C	 0.692068	 0.589600	 0.160137
O	 3.028672	 0.122391	 -0.045616
C	 -0.558097	 -0.297372	 0.091132
H	 0.791645	 1.202255	 -0.728243
H	 0.616171	 1.253469	 1.020572
C	 -1.850991	 0.512573	 -0.019058
H	 -0.476753	 -0.965681	 -0.762987
H	 -0.604799	 -0.930658	 0.975228
C	 -3.096943	 -0.368295	 -0.099594
H	 -1.800724	 1.150330	 -0.898172
H	 -1.931651	 1.177355	 0.838044
H	 -3.060452	 -1.020287	 -0.967456
H	 -3.996858	 0.233488	 -0.175704
H	 -3.191959	 -0.995686	 0.782074

	symmetry c1
}
set optking {
	frozen_dihedral = ("
		4 2 3 6
	")
}

ee = optimize('scf')
oeprop('DIPOLE', 'QUADRUPOLE', 'MULLIKEN_CHARGES')
f=open( 'psi4out.xyz', 'w' )
f.write( "16  " )
f.write( str(ee) + "\n" )
f.write( MOL.save_string_xyz() )
f.close()
--------------------------------------------------------------------------

    Molecular point group: c1
  Charge       = 0
  Multiplicity = 1
  Basis Set: 6-31G*
  Basis Set:
  @DF-RHF Final Energy:  -270.01913720858619
    Total Energy =                       -270.0191372085864145
    Molecular point group: c1
  Basis Set: 6-31G*
  Basis Set:
  Basis Set: 6-31G*
  Basis Set:
  @DF-RHF Final Energy:  -270.01832760752694
    Total Energy =                       -270.0183276075269418
  Basis Set: 6-31G*
  Basis Set:
  Basis Set: 6-31G*
  Basis Set:
  @DF-RHF Final Energy:  -270.01927099712680
    Total Energy =                       -270.0192709971269096
  Basis Set: 6-31G*
  Basis Set:
  Basis Set: 6-31G*
  Basis Set:
  @DF-RHF Final Energy:  -270.01931006035318
    Total Energy =                       -270.0193100603530638
  Basis Set: 6-31G*
  Basis Set:
  Basis Set: 6-31G*
  Basis Set:
  @DF-RHF Final Energy:  -270.01930578860845
    Total Energy =                       -270.0193057886083352
  Basis Set: 6-31G*
  Basis Set:
  Basis Set: 6-31G*
  Basis Set:
  @DF-RHF Final Energy:  -270.01931137023610
    Total Energy =                       -270.0193113702359824
  Basis Set: 6-31G*
  Basis Set:
  Charge       = 0
  Multiplicity = 1
  Basis Set: 6-31G*
  Basis Set:

    Orbital Energies (a.u.)
    -----------------------

    Doubly Occupied:

       1A    -20.561835     2A    -11.327358     3A    -11.235817
       4A    -11.234963     5A    -11.229367     6A    -11.218651
       7A     -1.402381     8A     -1.096734     9A     -1.018677
      10A     -0.905015    11A     -0.811952    12A     -0.796201
      13A     -0.670668    14A     -0.652832    15A     -0.630999
      16A     -0.602516    17A     -0.587844    18A     -0.545193
      19A     -0.533521    20A     -0.500029    21A     -0.488493
      22A     -0.485265    23A     -0.478087    24A     -0.409347

  @DF-RHF Final Energy:  -270.01931167054454

   => Energetics <=

    Nuclear Repulsion Energy =            228.1909533496986739
    One-Electron Energy =                -817.5730384501646313
    Two-Electron Energy =                 319.3627734299212761
    DFT Exchange-Correlation Energy =       0.0000000000000000
    Empirical Dispersion Energy =           0.0000000000000000
    PCM Polarization Energy =               0.0000000000000000
    EFP Energy =                            0.0000000000000000
    Total Energy =                       -270.0193116705446528
    Molecular point group: c1
  Basis Set: 6-31G*
  Basis Set:

  -Total Gradient:
     Atom            X                  Y                   Z
    ------   -----------------  -----------------  -----------------
       1       -0.000008225674    -0.000000765925    -0.000006087538
       2       -0.000322612306    -0.000712503665    -0.001368265131
       3        0.000525128913     0.001004025980     0.001002409366
       4        0.000156484006     0.000398731654     0.000868963768
       5        0.000011718358    -0.000018903690    -0.000000190101
       6       -0.000357366314    -0.000682550298    -0.000523650634
       7       -0.000010702822     0.000002342159     0.000019626309
       8       -0.000001858676     0.000011721111    -0.000000819358
       9        0.000006923664     0.000007235097     0.000003846383
      10       -0.000007642360    -0.000002944421     0.000001196992
      11        0.000002537226    -0.000004436421     0.000001817574
      12       -0.000003073635    -0.000003563662    -0.000002852765
      13        0.000006317308     0.000000506257    -0.000000465701
      14        0.000001016192     0.000000193245     0.000000918929
      15        0.000003322283     0.000001740058     0.000000611428
      16       -0.000001966168    -0.000000827480     0.000002940481

  **** Optimization is complete! (in 7 steps) ****
    Final optimized geometry and variables:
    Molecular point group: c1

    Geometry (in Angstrom), charge = 0, multiplicity = 1:

    H            1.843499815176    -1.254524203049     0.737998639315
    C            1.940248584700    -0.278756523840     0.247242621139
    C            0.663140680349     0.515458820432     0.103245344671
    O            3.006234950104     0.105479307113    -0.110118202758
    C           -0.589480951021    -0.359923297563     0.027972280346
    H            0.759863024531     1.145186956508    -0.774558120067
    H            0.601998650641     1.178249032956     0.965598879985
    C           -1.877596546125     0.455986661489    -0.089303917777
    H           -0.511276666520    -1.032674227804    -0.824082083619
    H           -0.644311095697    -0.992031148831     0.912479335751
    C           -3.128937534987    -0.417494828442    -0.163979760518
    H           -1.823442474531     1.087351147238    -0.973009994125
    H           -1.955064032638     1.128202638239     0.762384137355
    H           -3.095572521857    -1.077693234592    -1.025822119085
    H           -4.024923461416     0.189188865987    -0.246817846306
    H           -3.229219143702    -1.036433288005     0.723029010639

  Mulliken Charges: (a.u.)
   Center  Symbol    Alpha    Beta     Spin     Total
       1     H     0.43026  0.43026  0.00000  0.13948
       2     C     2.83159  2.83159  0.00000  0.33683
       3     C     3.20838  3.20838  0.00000 -0.41677
       4     O     4.23976  4.23976  0.00000 -0.47952
       5     C     3.16405  3.16405  0.00000 -0.32809
       6     H     0.39851  0.39851  0.00000  0.20299
       7     H     0.40280  0.40280  0.00000  0.19440
       8     C     3.15182  3.15182  0.00000 -0.30364
       9     H     0.41660  0.41660  0.00000  0.16679
      10     H     0.41975  0.41975  0.00000  0.16049
      11     C     3.24023  3.24023  0.00000 -0.48046
      12     H     0.41900  0.41900  0.00000  0.16201
      13     H     0.42056  0.42056  0.00000  0.15888
      14     H     0.41984  0.41984  0.00000  0.16033
      15     H     0.41637  0.41637  0.00000  0.16726
      16     H     0.42049  0.42049  0.00000  0.15902

   Total alpha = 24.00000, Total beta = 24.00000, Total charge = -0.00000
