  ==> Input File <==

--------------------------------------------------------------------------
set {
	reference rhf
	basis 6-31G*
}

set_num_threads( 1 )
memory 2 gb

molecule MOL {
0 1

O	 -2.848188	 1.255781	 0.337872
C	 -2.668563	 0.129746	 -0.000350
C	 -3.764171	 -0.788821	 -0.476948
O	 -1.481751	 -0.454642	 0.000584
H	 -4.244676	 -0.339794	 -1.337966
H	 -3.385941	 -1.766750	 -0.735858
H	 -4.508916	 -0.877047	 0.305005
C	 -0.334255	 0.388708	 0.000906
C	 0.891947	 -0.504646	 0.000751
H	 -0.365390	 1.025305	 -0.873475
H	 -0.365484	 1.024911	 0.875569
C	 2.191998	 0.301789	 0.000897
H	 0.855148	 -1.151283	 -0.871571
H	 0.855132	 -1.151660	 0.872805
C	 3.441114	 -0.581407	 0.000108
H	 2.215074	 0.954890	 -0.869742
H	 2.215465	 0.953923	 0.872248
C	 4.739576	 0.224112	 -0.001102
H	 3.419457	 -1.233487	 -0.870178
H	 3.420834	 -1.233096	 0.870717
H	 4.804918	 0.861552	 -0.878265
H	 5.606527	 -0.429058	 -0.001824
H	 4.806469	 0.861674	 0.875853

	symmetry c1
}
set optking {
	frozen_dihedral = ("
		13 9 8 10,
		2 4 8 10,
		16 12 9 13,
		19 15 12 16
	")
}

ee = energy('scf')
oeprop('DIPOLE', 'QUADRUPOLE', 'MULLIKEN_CHARGES')
f=open( 'psi4out.xyz', 'w' )
f.write( "23  " )
f.write( str(ee) + "\n" )
f.write( MOL.save_string_xyz() )
f.close()
--------------------------------------------------------------------------

    Molecular point group: c1

    Geometry (in Angstrom), charge = 0, multiplicity = 1:

       Center              X                  Y                   Z               Mass
    ------------   -----------------  -----------------  -----------------  -----------------
           O         -2.849443281210     1.253256468753     0.353827399063    15.994914619560
           C         -2.669818281210     0.127221468753     0.015605399063    12.000000000000
           C         -3.765426281210    -0.791345531247    -0.460992600937    12.000000000000
           O         -1.483006281210    -0.457166531247     0.016539399063    15.994914619560
           H         -4.245931281210    -0.342318531247    -1.322010600937     1.007825032070
           H         -3.387196281210    -1.769274531247    -0.719902600937     1.007825032070
           H         -4.510171281210    -0.879571531247     0.320960399063     1.007825032070
           C         -0.335510281210     0.386183468753     0.016861399063    12.000000000000
           C          0.890691718790    -0.507170531247     0.016706399063    12.000000000000
           H         -0.366645281210     1.022780468753    -0.857519600937     1.007825032070
           H         -0.366739281210     1.022386468753     0.891524399063     1.007825032070
           C          2.190742718790     0.299264468753     0.016852399063    12.000000000000
           H          0.853892718790    -1.153807531247    -0.855615600937     1.007825032070
           H          0.853876718790    -1.154184531247     0.888760399063     1.007825032070
           C          3.439858718790    -0.583931531247     0.016063399063    12.000000000000
           H          2.213818718790     0.952365468753    -0.853786600937     1.007825032070
           H          2.214209718790     0.951398468753     0.888203399063     1.007825032070
           C          4.738320718790     0.221587468753     0.014853399063    12.000000000000
           H          3.418201718790    -1.236011531247    -0.854222600937     1.007825032070
           H          3.419578718790    -1.235620531247     0.886672399063     1.007825032070
           H          4.803662718790     0.859027468753    -0.862309600937     1.007825032070
           H          5.605271718790    -0.431582531247     0.014131399063     1.007825032070
           H          4.805213718790     0.859149468753     0.891808399063     1.007825032070

  Charge       = 0
  Multiplicity = 1
  Basis Set: 6-31G*
  Basis Set:

    Orbital Energies (a.u.)
    -----------------------

    Doubly Occupied:

       1A    -20.600523     2A    -20.541330     3A    -11.374251
       4A    -11.282520     5A    -11.232248     6A    -11.224740
       7A    -11.224104     8A    -11.221894     9A    -11.213137
      10A     -1.467203    11A     -1.360893    12A     -1.094423
      13A     -1.041983    14A     -1.003632    15A     -0.931375
      16A     -0.841907    17A     -0.803028    18A     -0.774544
      19A     -0.693796    20A     -0.683732    21A     -0.666534
      22A     -0.646941    23A     -0.607092    24A     -0.588669
      25A     -0.582435    26A     -0.567851    27A     -0.557781
      28A     -0.540287    29A     -0.520542    30A     -0.504967
      31A     -0.491509    32A     -0.478162    33A     -0.471459
      34A     -0.466525    35A     -0.450272    36A     -0.434380

  @DF-RHF Final Energy:  -422.97686096463286

   => Energetics <=

    Nuclear Repulsion Energy =            449.5673492480529490
    One-Electron Energy =               -1466.7150701051948545
    Two-Electron Energy =                 594.1708598925088154
    DFT Exchange-Correlation Energy =       0.0000000000000000
    Empirical Dispersion Energy =           0.0000000000000000
    PCM Polarization Energy =               0.0000000000000000
    EFP Energy =                            0.0000000000000000
    Total Energy =                       -422.9768609646330333

  Mulliken Charges: (a.u.)
   Center  Symbol    Alpha    Beta     Spin     Total
       1     O     4.28169  4.28169  0.00000 -0.56339
       2     C     2.61513  2.61513  0.00000  0.76975
       3     C     3.28874  3.28874  0.00000 -0.57747
       4     O     4.31355  4.31355  0.00000 -0.62709
       5     H     0.39752  0.39752  0.00000  0.20496
       6     H     0.39994  0.39994  0.00000  0.20012
       7     H     0.39749  0.39749  0.00000  0.20501
       8     C     2.99637  2.99637  0.00000  0.00727
       9     C     3.16479  3.16479  0.00000 -0.32958
      10     H     0.41505  0.41505  0.00000  0.16989
      11     H     0.40646  0.40646  0.00000  0.18708
      12     C     3.16013  3.16013  0.00000 -0.32025
      13     H     0.41489  0.41489  0.00000  0.17023
      14     H     0.41304  0.41304  0.00000  0.17392
      15     C     3.15145  3.15145  0.00000 -0.30291
      16     H     0.42141  0.42141  0.00000  0.15718
      17     H     0.42022  0.42022  0.00000  0.15957
      18     C     3.23988  3.23988  0.00000 -0.47976
      19     H     0.42153  0.42153  0.00000  0.15694
      20     H     0.42111  0.42111  0.00000  0.15777
      21     H     0.42101  0.42101  0.00000  0.15797
      22     H     0.41794  0.41794  0.00000  0.16412
      23     H     0.42067  0.42067  0.00000  0.15866

   Total alpha = 36.00000, Total beta = 36.00000, Total charge =  0.00000
