                              Psi4 1.0.54 Driver

  ==> Input File <==

--------------------------------------------------------------------------
set {
	reference rhf
	basis cc-pvtz
}

set_num_threads( 4 )
memory 2 gb

molecule MOL {
0 1

H	 -3.258660	 -0.290394	 1.471450
C	 -3.307964	 -0.275695	 0.374072
C	 -2.653809	 0.914422	 -0.273689
O	 -3.855140	 -1.148880	 -0.205112
C	 -1.810026	 0.535628	 -1.494434
H	 -3.421524	 1.634011	 -0.526948
H	 -2.010485	 1.363228	 0.479977
C	 -2.633866	 0.022092	 -2.673312
H	 -1.243310	 1.407273	 -1.803315
H	 -1.077149	 -0.214218	 -1.206655
C	 -1.780559	 -0.340882	 -3.885705
H	 -3.359690	 0.780060	 -2.955750
H	 -3.211016	 -0.846965	 -2.368247
C	 -2.608297	 -0.842778	 -5.067314
H	 -1.200513	 0.528095	 -4.180272
H	 -1.061810	 -1.106595	 -3.602187
C	 -1.790392	 -1.296201	 -6.277826
H	 -3.301777	 -0.063947	 -5.376007
H	 -3.219730	 -1.676388	 -4.733325
C	 -1.019783	 -0.181792	 -6.981629
H	 -2.464754	 -1.757115	 -6.992799
H	 -1.097503	 -2.075275	 -5.970818
H	 -1.686783	 0.615255	 -7.294395
H	 -0.260929	 0.253710	 -6.342751
H	 -0.520960	 -0.559657	 -7.866704

	symmetry c1
}
set optking {
	frozen_dihedral = ("
		6 3 2 4
	")
}

ee,wfn = optimize('scf', return_wfn=True)
oeprop( wfn, 'DIPOLE', 'QUADRUPOLE', 'MULLIKEN_CHARGES')
f=open( 'psi4out.xyz', 'w' )
f.write( "25  " )
f.write( str(ee) + "\n" )
f.write( MOL.save_string_xyz() )
f.close()
--------------------------------------------------------------------------

    Molecular point group: c1
  Charge       = 0
  Multiplicity = 1
  Basis Set: CC-PVTZ
  Basis Set:
  @DF-RHF Final Energy:  -387.25548308182874
    Total Energy =                       -387.2554830818285154
    Molecular point group: c1
  Basis Set: CC-PVTZ
  Basis Set:
  Basis Set: CC-PVTZ
  Basis Set:
  @DF-RHF Final Energy:  -387.25734575544357
    Total Energy =                       -387.2573457554440211
  Basis Set: CC-PVTZ
  Basis Set:
  Basis Set: CC-PVTZ
  Basis Set:
  @DF-RHF Final Energy:  -387.25758832929620
    Total Energy =                       -387.2575883292961407
  Basis Set: CC-PVTZ
  Basis Set:
  Basis Set: CC-PVTZ
  Basis Set:
  @DF-RHF Final Energy:  -387.25760245251678
    Total Energy =                       -387.2576024525163803
  Basis Set: CC-PVTZ
  Basis Set:
  @DF-RHF Final Energy:  -387.25751871529752
    Total Energy =                       -387.2575187152970102
  Basis Set: CC-PVTZ
  Basis Set:
  @DF-RHF Final Energy:  -387.25763448391791
    Total Energy =                       -387.2576344839178546
  Basis Set: CC-PVTZ
  Basis Set:
  Basis Set: CC-PVTZ
  Basis Set:
  @DF-RHF Final Energy:  -387.25763316930505
    Total Energy =                       -387.2576331693052225
  Basis Set: CC-PVTZ
  Basis Set:
  Basis Set: CC-PVTZ
  Basis Set:
  @DF-RHF Final Energy:  -387.25763618152979
    Total Energy =                       -387.2576361815293922
  Basis Set: CC-PVTZ
  Basis Set:
  Charge       = 0
  Multiplicity = 1
  Basis Set: CC-PVTZ
  Basis Set:

    Orbital Energies (a.u.)
    -----------------------

    Doubly Occupied:

       1A    -20.553062     2A    -11.323680     3A    -11.235730
       4A    -11.225285     5A    -11.210925     6A    -11.209288
       7A    -11.208605     8A    -11.208247     9A    -11.204544
      10A     -1.408762    11A     -1.095858    12A     -1.064270
      13A     -1.009888    14A     -0.941631    15A     -0.875007
      16A     -0.813513    17A     -0.778970    18A     -0.770645
      19A     -0.686265    20A     -0.656835    21A     -0.630632
      22A     -0.613263    23A     -0.603816    24A     -0.590215
      25A     -0.561522    26A     -0.555147    27A     -0.537774
      28A     -0.514842    29A     -0.506040    30A     -0.498156
      31A     -0.480173    32A     -0.473479    33A     -0.458222
      34A     -0.452875    35A     -0.438022    36A     -0.408368

  @DF-RHF Final Energy:  -387.25763638786020

   => Energetics <=

    Nuclear Repulsion Energy =            443.4839300993844518
    One-Electron Energy =               -1403.8760149926911254
    Two-Electron Energy =                 573.1344485054468123
    DFT Exchange-Correlation Energy =       0.0000000000000000
    Empirical Dispersion Energy =           0.0000000000000000
    PCM Polarization Energy =               0.0000000000000000
    EFP Energy =                            0.0000000000000000
    Total Energy =                       -387.2576363878598613
    Molecular point group: c1
  Basis Set: CC-PVTZ
  Basis Set:

  -Total Gradient:
     Atom            X                  Y                   Z
    ------   -----------------  -----------------  -----------------
       1       -0.000006167661     0.000002917237    -0.000023996077
       2        0.003234786162    -0.001724103739    -0.000308236640
       3       -0.000931532462     0.001918846641     0.002301217807
       4       -0.002234352759     0.001025740615    -0.000033819383
       5       -0.000000550353     0.000005784927    -0.000004682234
       6       -0.000064508495    -0.001225593905    -0.001908569311
       7       -0.000007014296    -0.000000808742    -0.000002424491
       8        0.000011037894    -0.000019732591    -0.000001435614
       9       -0.000000270953    -0.000002818811    -0.000005115270
      10       -0.000004383043     0.000005220068    -0.000007577494
      11       -0.000004913738     0.000017936856    -0.000009539844
      12        0.000013864745    -0.000001737128     0.000001708968
      13       -0.000004473185     0.000004447281     0.000002844373
      14        0.000000541680    -0.000003192223     0.000006538075
      15       -0.000000639729    -0.000004758740     0.000001020681
      16       -0.000008611025     0.000008315231    -0.000002527486
      17       -0.000003894662    -0.000006538150    -0.000003513711
      18        0.000006423371    -0.000004308660     0.000003428715
      19       -0.000000225716     0.000004254217    -0.000001710995
      20        0.000004317034     0.000001671565     0.000003572476
      21        0.000004043746     0.000000892692     0.000001308211
      22       -0.000000245412     0.000000950103    -0.000004490040
      23       -0.000000228739    -0.000001770988    -0.000000403100
      24       -0.000003716164    -0.000000856508    -0.000004585393
      25        0.000000713758    -0.000000757247     0.000000987784

  **** Optimization is complete! (in 9 steps) ****
    Final optimized geometry and variables:
    Molecular point group: c1

    Geometry (in Angstrom), charge = 0, multiplicity = 1:

    H           -0.948387238630     0.077404033800     4.520974571188
    C           -0.940663304936    -0.042005832363     3.430590826857
    C           -0.399920340422     1.136746753226     2.655213355545
    O           -1.373630713258    -1.031317085779     2.948357645817
    C            0.465170935349     0.773550472102     1.441087126636
    H           -1.264225796983     1.709202920561     2.324963899800
    H            0.154059336999     1.767065597976     3.341134807369
    C           -0.318050690888     0.316667219050     0.211872139975
    H            1.050688150315     1.649439140543     1.179329539423
    H            1.177254453361     0.005042084426     1.726521509182
    C            0.586133346738    -0.012927510068    -0.973011463312
    H           -1.011306843469     1.104495822825    -0.075763316999
    H           -0.918308150411    -0.547261281894     0.465016082645
    C           -0.195053951706    -0.448070026202    -2.211472227140
    H            1.199250798718     0.852759599284    -1.205410058630
    H            1.272708667852    -0.807068913534    -0.688239840395
    C            0.668387335800    -0.879448551644    -3.398156359940
    H           -0.852429202891     0.360412139652    -2.523816527070
    H           -0.843020129816    -1.275883019553    -1.938137569009
    C            1.502487139143     0.237586864257    -4.020843790281
    H            0.018058995228    -1.294127619307    -4.162262615716
    H            1.324282642425    -1.688757830665    -3.088281172115
    H            0.873355147216     1.064821612677    -4.334052538529
    H            2.240342391004     0.626833958055    -3.329693854964
    H            2.033811447180    -0.120999721052    -4.895123395525

  Mulliken Charges: (a.u.)
   Center  Symbol    Alpha    Beta     Spin     Total
       1     H     0.44888  0.44888  0.00000  0.10224
       2     C     2.92067  2.92067  0.00000  0.15867
       3     C     3.10200  3.10200  0.00000 -0.20399
       4     O     4.16729  4.16729  0.00000 -0.33458
       5     C     3.09221  3.09221  0.00000 -0.18441
       6     H     0.44386  0.44386  0.00000  0.11228
       7     H     0.43911  0.43911  0.00000  0.12178
       8     C     3.09146  3.09146  0.00000 -0.18292
       9     H     0.44719  0.44719  0.00000  0.10563
      10     H     0.45076  0.45076  0.00000  0.09848
      11     C     3.09333  3.09333  0.00000 -0.18666
      12     H     0.45876  0.45876  0.00000  0.08248
      13     H     0.43619  0.43619  0.00000  0.12762
      14     C     3.09493  3.09493  0.00000 -0.18986
      15     H     0.45464  0.45464  0.00000  0.09072
      16     H     0.45396  0.45396  0.00000  0.09209
      17     C     3.09043  3.09043  0.00000 -0.18086
      18     H     0.45497  0.45497  0.00000  0.09006
      19     H     0.44738  0.44738  0.00000  0.10523
      20     C     3.15269  3.15269  0.00000 -0.30539
      21     H     0.44856  0.44856  0.00000  0.10288
      22     H     0.45458  0.45458  0.00000  0.09084
      23     H     0.45536  0.45536  0.00000  0.08928
      24     H     0.45426  0.45426  0.00000  0.09148
      25     H     0.44655  0.44655  0.00000  0.10691

   Total alpha = 36.00000, Total beta = 36.00000, Total charge = -0.00000

*** Psi4 exiting successfully. Buy a developer a beer!
