  ==> Input File <==

--------------------------------------------------------------------------
set {
	reference rhf
	basis 6-31G*
}

set_num_threads( 1 )
memory 2 gb

molecule MOL {
0 1

H	 -3.502452	 -0.111224	 -1.147696
O	 -3.517110	 -0.026191	 -0.205115
C	 -2.306886	 0.532354	 0.237577
C	 -1.177863	 -0.397191	 -0.171080
H	 -2.156308	 1.517575	 -0.201710
H	 -2.315015	 0.655684	 1.319734
C	 0.198102	 0.111031	 0.262842
H	 -1.208843	 -0.518759	 -1.250427
H	 -1.368741	 -1.376554	 0.258909
C	 1.331804	 -0.827780	 -0.158768
H	 0.361943	 1.100838	 -0.156218
H	 0.217265	 0.229072	 1.345532
C	 2.723619	 -0.410569	 0.329459
H	 1.342964	 -0.912588	 -1.244120
H	 1.116806	 -1.824343	 0.220779
C	 3.243875	 0.895854	 -0.272975
H	 3.424222	 -1.207124	 0.091250
H	 2.714788	 -0.329854	 1.414619
H	 3.251977	 0.848779	 -1.358681
H	 2.637085	 1.747371	 0.016682
H	 4.259473	 1.094070	 0.055697

	symmetry c1
}
set optking {
	frozen_dihedral = ("
		2 3 4 8,
		8 4 7 10,
		4 7 10 14,
		16 13 10 14
	")
}

ee = energy('scf')
oeprop('DIPOLE', 'QUADRUPOLE', 'MULLIKEN_CHARGES')
f=open( 'psi4out.xyz', 'w' )
f.write( "21  " )
f.write( str(ee) + "\n" )
f.write( MOL.save_string_xyz() )
f.close()
--------------------------------------------------------------------------

    Molecular point group: c1

    Geometry (in Angstrom), charge = 0, multiplicity = 1:

       Center              X                  Y                   Z               Mass
    ------------   -----------------  -----------------  -----------------  -----------------
           H         -3.509697205013    -0.104814407627    -1.135975054270     1.007825032070
           O         -3.524355205013    -0.019781407627    -0.193394054270    15.994914619560
           C         -2.314131205013     0.538763592373     0.249297945730    12.000000000000
           C         -1.185108205013    -0.390781407627    -0.159359054270    12.000000000000
           H         -2.163553205013     1.523984592373    -0.189989054270     1.007825032070
           H         -2.322260205013     0.662093592373     1.331454945730     1.007825032070
           C          0.190856794987     0.117440592373     0.274562945730    12.000000000000
           H         -1.216088205013    -0.512349407627    -1.238706054270     1.007825032070
           H         -1.375986205013    -1.370144407627     0.270629945730     1.007825032070
           C          1.324558794987    -0.821370407627    -0.147047054270    12.000000000000
           H          0.354697794987     1.107247592373    -0.144497054270     1.007825032070
           H          0.210019794987     0.235481592373     1.357252945730     1.007825032070
           C          2.716373794987    -0.404159407627     0.341179945730    12.000000000000
           H          1.335718794987    -0.906178407627    -1.232399054270     1.007825032070
           H          1.109560794987    -1.817933407627     0.232499945730     1.007825032070
           C          3.236629794987     0.902263592373    -0.261254054270    12.000000000000
           H          3.416976794987    -1.200714407627     0.102970945730     1.007825032070
           H          2.707542794987    -0.323444407627     1.426339945730     1.007825032070
           H          3.244731794987     0.855188592373    -1.346960054270     1.007825032070
           H          2.629839794987     1.753780592373     0.028402945730     1.007825032070
           H          4.252227794987     1.100479592373     0.067417945730     1.007825032070

  Charge       = 0
  Multiplicity = 1
  Basis Set: 6-31G*
  Basis Set:

    Orbital Energies (a.u.)
    -----------------------

    Doubly Occupied:

       1A    -20.550704     2A    -11.268071     3A    -11.218504
       4A    -11.217331     5A    -11.216447     6A    -11.214994
       7A    -11.210202     8A     -1.359295     9A     -1.089109
      10A     -1.035190    11A     -0.955629    12A     -0.879155
      13A     -0.819362    14A     -0.781307    15A     -0.692143
      16A     -0.644916    17A     -0.625142    18A     -0.614662
      19A     -0.593429    20A     -0.569988    21A     -0.549955
      22A     -0.523825    23A     -0.504293    24A     -0.500128
      25A     -0.478939    26A     -0.464248    27A     -0.459645
      28A     -0.458209    29A     -0.419197

  @DF-RHF Final Energy:  -310.21084113465537

   => Energetics <=

    Nuclear Repulsion Energy =            313.1008672814984379
    One-Electron Energy =               -1040.7954364329568762
    Two-Electron Energy =                 417.4837280168019333
    DFT Exchange-Correlation Energy =       0.0000000000000000
    Empirical Dispersion Energy =           0.0000000000000000
    PCM Polarization Energy =               0.0000000000000000
    EFP Energy =                            0.0000000000000000
    Total Energy =                       -310.2108411346564480

  Mulliken Charges: (a.u.)
   Center  Symbol    Alpha    Beta     Spin     Total
       1     H     0.28199  0.28199  0.00000  0.43602
       2     O     4.37112  4.37112  0.00000 -0.74224
       3     C     2.98936  2.98936  0.00000  0.02129
       4     C     3.16560  3.16560  0.00000 -0.33121
       5     H     0.43129  0.43129  0.00000  0.13743
       6     H     0.41606  0.41606  0.00000  0.16788
       7     C     3.16225  3.16225  0.00000 -0.32450
       8     H     0.42962  0.42962  0.00000  0.14077
       9     H     0.41323  0.41323  0.00000  0.17354
      10     C     3.15170  3.15170  0.00000 -0.30339
      11     H     0.42144  0.42144  0.00000  0.15713
      12     H     0.42236  0.42236  0.00000  0.15529
      13     C     3.15259  3.15259  0.00000 -0.30518
      14     H     0.42428  0.42428  0.00000  0.15144
      15     H     0.42093  0.42093  0.00000  0.15813
      16     C     3.24132  3.24132  0.00000 -0.48265
      17     H     0.42049  0.42049  0.00000  0.15903
      18     H     0.42295  0.42295  0.00000  0.15411
      19     H     0.42239  0.42239  0.00000  0.15521
      20     H     0.42036  0.42036  0.00000  0.15928
      21     H     0.41869  0.41869  0.00000  0.16262

   Total alpha = 29.00000, Total beta = 29.00000, Total charge =  0.00000
