  ==> Input File <==

--------------------------------------------------------------------------
set {
	reference rhf
	basis cc-pvtz
}

set_num_threads( 4 )
memory 2 gb

molecule MOL {
0 1

H	 2.601049	 -0.671797	 -1.067059
N	 1.624421	 -0.474786	 -1.084172
C	 1.296958	 0.573792	 -0.139135
C	 0.855092	 -1.676960	 -0.833669
H	 1.872637	 1.459407	 -0.379200
H	 1.528633	 0.291484	 0.889577
C	 -0.184297	 0.891856	 -0.232909
H	 1.110585	 -2.422292	 -1.577009
H	 1.058849	 -2.101472	 0.151162
C	 -0.625584	 -1.355947	 -0.926533
H	 -0.393554	 1.324015	 -1.215783
H	 -0.442738	 1.633624	 0.513487
N	 -0.976577	 -0.298712	 -0.000000
H	 -1.203103	 -2.239482	 -0.681671
H	 -0.865242	 -1.078643	 -1.957192
C	 -2.391156	 -0.021003	 -0.000000
H	 -2.853954	 -0.458728	 -0.875714
H	 -2.853954	 -0.458728	 0.875714
H	 -2.614037	 1.049773	 -0.000000

	symmetry c1
}
set optking {
	frozen_dihedral = ("
		7 13 16 19
	")
}

ee = optimize('scf')
oeprop('DIPOLE', 'QUADRUPOLE', 'MULLIKEN_CHARGES')
f=open( 'psi4out.xyz', 'w' )
f.write( "19  " )
f.write( str(ee) + "\n" )
f.write( MOL.save_string_xyz() )
f.close()
--------------------------------------------------------------------------

    Molecular point group: c1
  Charge       = 0
  Multiplicity = 1
  Basis Set: CC-PVTZ
  Basis Set:
  @DF-RHF Final Energy:  -305.30285802052185
    Total Energy =                       -305.3028580205217963
    Molecular point group: c1
  Basis Set: CC-PVTZ
  Basis Set:
  Basis Set: CC-PVTZ
  Basis Set:
  @DF-RHF Final Energy:  -305.30374210330376
    Total Energy =                       -305.3037421033037617
  Basis Set: CC-PVTZ
  Basis Set:
  Basis Set: CC-PVTZ
  Basis Set:
  @DF-RHF Final Energy:  -305.30388893074161
    Total Energy =                       -305.3038889307415502
  Basis Set: CC-PVTZ
  Basis Set:
  Basis Set: CC-PVTZ
  Basis Set:
  @DF-RHF Final Energy:  -305.30390270737996
    Total Energy =                       -305.3039027073798479
  Basis Set: CC-PVTZ
  Basis Set:
  Charge       = 0
  Multiplicity = 1
  Basis Set: CC-PVTZ
  Basis Set:

    Orbital Energies (a.u.)
    -----------------------

    Doubly Occupied:

       1A    -15.532404     2A    -15.530765     3A    -11.236602
       4A    -11.236579     5A    -11.235812     6A    -11.235672
       7A    -11.233068     8A     -1.246478     9A     -1.185342
      10A     -1.023897    11A     -0.965185    12A     -0.861716
      13A     -0.858827    14A     -0.756110    15A     -0.691968
      16A     -0.632913    17A     -0.624863    18A     -0.606236
      19A     -0.605648    20A     -0.582469    21A     -0.544294
      22A     -0.534698    23A     -0.511791    24A     -0.488446
      25A     -0.468271    26A     -0.457899    27A     -0.365632
      28A     -0.339670

  @DF-RHF Final Energy:  -305.30390370079510

   => Energetics <=

    Nuclear Repulsion Energy =            339.7657889295944642
    One-Electron Energy =               -1086.9528809618775540
    Two-Electron Energy =                 441.8831883314880997
    DFT Exchange-Correlation Energy =       0.0000000000000000
    Empirical Dispersion Energy =           0.0000000000000000
    PCM Polarization Energy =               0.0000000000000000
    EFP Energy =                            0.0000000000000000
    Total Energy =                       -305.3039037007949901
    Molecular point group: c1
  Basis Set: CC-PVTZ
  Basis Set:

  -Total Gradient:
     Atom            X                  Y                   Z
    ------   -----------------  -----------------  -----------------
       1        0.000006907951     0.000004021587     0.000000518356
       2       -0.000014147454     0.000009386163     0.000000080969
       3        0.000011019073    -0.000016983801     0.000025883082
       4       -0.000003735244    -0.000025015560    -0.000047479115
       5       -0.000000395438    -0.000001697438    -0.000000880190
       6        0.000002842152     0.000005113403     0.000010442284
       7        0.000154563470     0.000376592488     0.002598686702
       8        0.000022675760    -0.000008016619    -0.000002717388
       9       -0.000016489605     0.000008020848    -0.000009231139
      10        0.000002476202    -0.000031896166     0.000025882037
      11       -0.000015057625    -0.000009312576     0.000003624834
      12        0.000002582247    -0.000003774036     0.000000311379
      13       -0.000204039220    -0.000443341770    -0.004597743956
      14       -0.000001250084    -0.000001981930    -0.000005055144
      15        0.000011852961    -0.000002386935     0.000012729702
      16        0.000140802212    -0.000015674852     0.005508501294
      17       -0.000011695951     0.000003344995    -0.000007249812
      18        0.000038406045    -0.000005590096    -0.000045428080
      19       -0.000127317456     0.000159192292    -0.003470875813

  **** Optimization is complete! (in 5 steps) ****
    Final optimized geometry and variables:
    Molecular point group: c1

    Geometry (in Angstrom), charge = 0, multiplicity = 1:

    H            2.672121327901    -0.343318907332    -0.587236138916
    N            1.695745717979    -0.145453088565    -0.611475902172
    C            1.364236274836     0.908892352592     0.325555510785
    C            0.924006763089    -1.345203349410    -0.357605507123
    H            1.951839030587     1.788552801529     0.092016245670
    H            1.578402705743     0.626109423567     1.358177733681
    C           -0.112825230058     1.241686857977     0.211508100080
    H            1.188610725390    -2.098852311744    -1.089483459249
    H            1.116456696511    -1.758301984139     0.634502488635
    C           -0.555455172009    -1.025031930951    -0.471597616218
    H           -0.298180349163     1.692232178028    -0.768472434255
    H           -0.372630076274     1.974894693126     0.965009067409
    N           -0.914081845332     0.055051210661     0.419841709242
    H           -1.134653158713    -1.902447435334    -0.207735830377
    H           -0.786770792609    -0.778304685389    -1.512174497435
    C           -2.341121116382     0.298972404373     0.485152333972
    H           -2.854472061641    -0.062501491672    -0.404853751168
    H           -2.787434982350    -0.186898255470     1.345573581207
    H           -2.547290222654     1.360505323655     0.539138995450

  Mulliken Charges: (a.u.)
   Center  Symbol    Alpha    Beta     Spin     Total
       1     H     0.43992  0.43992  0.00000  0.12015
       2     N     3.64275  3.64275  0.00000 -0.28551
       3     C     3.04189  3.04189  0.00000 -0.08377
       4     C     3.04185  3.04185  0.00000 -0.08369
       5     H     0.45272  0.45272  0.00000  0.09455
       6     H     0.46628  0.46628  0.00000  0.06743
       7     C     3.03337  3.03337  0.00000 -0.06674
       8     H     0.45271  0.45271  0.00000  0.09457
       9     H     0.46620  0.46620  0.00000  0.06760
      10     C     3.03392  3.03392  0.00000 -0.06785
      11     H     0.46962  0.46962  0.00000  0.06077
      12     H     0.45405  0.45405  0.00000  0.09191
      13     N     3.61604  3.61604  0.00000 -0.23208
      14     H     0.45393  0.45393  0.00000  0.09213
      15     H     0.46910  0.46910  0.00000  0.06181
      16     C     3.09243  3.09243  0.00000 -0.18486
      17     H     0.46512  0.46512  0.00000  0.06977
      18     H     0.45021  0.45021  0.00000  0.09958
      19     H     0.45789  0.45789  0.00000  0.08421

   Total alpha = 28.00000, Total beta = 28.00000, Total charge = -0.00000
