  ==> Input File <==

--------------------------------------------------------------------------
set {
	reference rhf
	basis 6-31G*
}

set_num_threads( 1 )
memory 2 gb

molecule MOL {
0 1

H	 3.290678	 3.309784	 -3.409781
C	 3.493583	 2.623512	 -2.593459
C	 2.275203	 2.471690	 -1.683691
H	 3.777340	 1.668954	 -3.026637
H	 4.349929	 3.006066	 -2.044712
C	 2.529749	 1.514881	 -0.516843
H	 1.433945	 2.113620	 -2.268218
H	 1.994241	 3.448529	 -1.293129
C	 1.333400	 1.356657	 0.421763
H	 2.808033	 0.539603	 -0.900294
H	 3.373933	 1.879613	 0.063988
C	 0.169600	 0.576866	 -0.172154
H	 1.638979	 0.821437	 1.319500
H	 0.977332	 2.325698	 0.764328
C	 -1.181045	 0.701995	 0.511084
O	 0.309504	 -0.124148	 -1.128926
C	 -2.285934	 -0.139295	 -0.145128
H	 -1.449051	 1.751551	 0.493206
H	 -1.071135	 0.403303	 1.551943
C	 -3.651768	 0.085446	 0.506485
H	 -2.346596	 0.110469	 -1.202272
H	 -2.034737	 -1.195320	 -0.088721
C	 -4.759797	 -0.746382	 -0.137905
H	 -3.908762	 1.140117	 0.445781
H	 -3.588286	 -0.154158	 1.565709
H	 -4.868882	 -0.505166	 -1.191300
H	 -4.548009	 -1.809175	 -0.062213
H	 -5.715422	 -0.564821	 0.343442

	symmetry c1
}
set optking {
	frozen_dihedral = ("
		10 6 3 2,
		12 15 17 21
	")
}

ee = energy('scf')
oeprop('DIPOLE', 'QUADRUPOLE', 'MULLIKEN_CHARGES')
f=open( 'psi4out.xyz', 'w' )
f.write( "28  " )
f.write( str(ee) + "\n" )
f.write( MOL.save_string_xyz() )
f.close()
--------------------------------------------------------------------------

    Molecular point group: c1

    Geometry (in Angstrom), charge = 0, multiplicity = 1:

       Center              X                  Y                   Z               Mass
    ------------   -----------------  -----------------  -----------------  -----------------
           H          3.472941413619     2.481055721603    -2.897703115759     1.007825032070
           C          3.675846413619     1.794783721603    -2.081381115759    12.000000000000
           C          2.457466413619     1.642961721603    -1.171613115759    12.000000000000
           H          3.959603413619     0.840225721603    -2.514559115759     1.007825032070
           H          4.532192413619     2.177337721603    -1.532634115759     1.007825032070
           C          2.712012413619     0.686152721603    -0.004765115759    12.000000000000
           H          1.616208413619     1.284891721603    -1.756140115759     1.007825032070
           H          2.176504413619     2.619800721603    -0.781051115759     1.007825032070
           C          1.515663413619     0.527928721603     0.933840884241    12.000000000000
           H          2.990296413619    -0.289125278397    -0.388216115759     1.007825032070
           H          3.556196413619     1.050884721603     0.576065884241     1.007825032070
           C          0.351863413619    -0.251862278397     0.339923884241    12.000000000000
           H          1.821242413619    -0.007291278397     1.831577884241     1.007825032070
           H          1.159595413619     1.496969721603     1.276405884241     1.007825032070
           C         -0.998781586381    -0.126733278397     1.023161884241    12.000000000000
           O          0.491767413619    -0.952876278397    -0.616848115759    15.994914619560
           C         -2.103670586381    -0.968023278397     0.366949884241    12.000000000000
           H         -1.266787586381     0.922822721603     1.005283884241     1.007825032070
           H         -0.888871586381    -0.425425278397     2.064020884241     1.007825032070
           C         -3.469504586381    -0.743282278397     1.018562884241    12.000000000000
           H         -2.164332586381    -0.718259278397    -0.690194115759     1.007825032070
           H         -1.852473586381    -2.024048278397     0.423356884241     1.007825032070
           C         -4.577533586381    -1.575110278397     0.374172884241    12.000000000000
           H         -3.726498586381     0.311388721603     0.957858884241     1.007825032070
           H         -3.406022586381    -0.982886278397     2.077786884241     1.007825032070
           H         -4.686618586381    -1.333894278397    -0.679222115759     1.007825032070
           H         -4.365745586381    -2.637903278397     0.449864884241     1.007825032070
           H         -5.533158586381    -1.393549278397     0.855519884241     1.007825032070

  Charge       = 0
  Multiplicity = 1
  Basis Set: 6-31G*
  Basis Set:

    Orbital Energies (a.u.)
    -----------------------

    Doubly Occupied:

       1A    -20.549085     2A    -11.323631     3A    -11.231308
       4A    -11.231084     5A    -11.218098     6A    -11.217385
       7A    -11.216824     8A    -11.213220     9A    -11.209539
      10A    -11.206397    11A     -1.394914    12A     -1.086906
      13A     -1.077159    14A     -1.021142    15A     -0.990675
      16A     -0.909836    17A     -0.866131    18A     -0.805629
      19A     -0.790653    20A     -0.722975    21A     -0.668201
      22A     -0.656863    23A     -0.624153    24A     -0.619007
      25A     -0.609372    26A     -0.582604    27A     -0.579052
      28A     -0.574796    29A     -0.534909    30A     -0.527003
      31A     -0.520204    32A     -0.508347    33A     -0.490361
      34A     -0.481488    35A     -0.471885    36A     -0.468712
      37A     -0.467622    38A     -0.466505    39A     -0.457020
      40A     -0.395298

  @DF-RHF Final Energy:  -426.17097118969866

   => Energetics <=

    Nuclear Repulsion Energy =            530.2386123516351972
    One-Electron Energy =               -1628.8472074014739519
    Two-Electron Energy =                 672.4376238601405475
    DFT Exchange-Correlation Energy =       0.0000000000000000
    Empirical Dispersion Energy =           0.0000000000000000
    PCM Polarization Energy =               0.0000000000000000
    EFP Energy =                            0.0000000000000000
    Total Energy =                       -426.1709711896980934

  Mulliken Charges: (a.u.)
   Center  Symbol    Alpha    Beta     Spin     Total
       1     H     0.41927  0.41927  0.00000  0.16145
       2     C     3.24013  3.24013  0.00000 -0.48026
       3     C     3.15654  3.15654  0.00000 -0.31309
       4     H     0.41823  0.41823  0.00000  0.16354
       5     H     0.42345  0.42345  0.00000  0.15310
       6     C     3.14964  3.14964  0.00000 -0.29928
       7     H     0.41073  0.41073  0.00000  0.17854
       8     H     0.42751  0.42751  0.00000  0.14498
       9     C     3.20786  3.20786  0.00000 -0.41572
      10     H     0.40647  0.40647  0.00000  0.18706
      11     H     0.42154  0.42154  0.00000  0.15693
      12     C     2.73428  2.73428  0.00000  0.53144
      13     H     0.40422  0.40422  0.00000  0.19157
      14     H     0.41265  0.41265  0.00000  0.17470
      15     C     3.20746  3.20746  0.00000 -0.41493
      16     O     4.26755  4.26755  0.00000 -0.53510
      17     C     3.14655  3.14655  0.00000 -0.29311
      18     H     0.40913  0.40913  0.00000  0.18174
      19     H     0.40940  0.40940  0.00000  0.18120
      20     C     3.15337  3.15337  0.00000 -0.30675
      21     H     0.41228  0.41228  0.00000  0.17545
      22     H     0.41408  0.41408  0.00000  0.17183
      23     C     3.23919  3.23919  0.00000 -0.47837
      24     H     0.42419  0.42419  0.00000  0.15161
      25     H     0.42462  0.42462  0.00000  0.15076
      26     H     0.42001  0.42001  0.00000  0.15998
      27     H     0.42034  0.42034  0.00000  0.15931
      28     H     0.41929  0.41929  0.00000  0.16142

   Total alpha = 40.00000, Total beta = 40.00000, Total charge = -0.00000
