                              Psi4 1.0.54 Driver

  ==> Input File <==

--------------------------------------------------------------------------
set {
	reference rhf
	basis cc-pvtz
}

set_num_threads( 4 )
memory 2 gb

molecule MOL {
0 1

H	 -2.498963	 -0.741158	 -0.729149
O	 -2.346257	 -0.289210	 0.080372
C	 -1.183935	 0.486039	 -0.009831
C	 0.062853	 -0.375310	 0.027457
H	 -1.178881	 1.094526	 -0.908634
H	 -1.184406	 1.155156	 0.838676
O	 1.172093	 0.457955	 -0.054438
H	 0.052476	 -1.081302	 -0.804627
H	 0.076323	 -0.955658	 0.947560
C	 1.484358	 0.882148	 -1.340429
H	 0.668105	 1.450744	 -1.780547
H	 2.356022	 1.516882	 -1.277171
H	 1.708970	 0.041406	 -1.992520

	symmetry c1
}
set optking {
	frozen_dihedral = ("
		10 7 4 8
	")
}

ee,wfn = optimize('scf', return_wfn=True)
oeprop( wfn, 'DIPOLE', 'QUADRUPOLE', 'MULLIKEN_CHARGES')
f=open( 'psi4out.xyz', 'w' )
f.write( "13  " )
f.write( str(ee) + "\n" )
f.write( MOL.save_string_xyz() )
f.close()
--------------------------------------------------------------------------

    Molecular point group: c1
  Charge       = 0
  Multiplicity = 1
  Basis Set: CC-PVTZ
  Basis Set:
  @DF-RHF Final Energy:  -268.05669454790495
    Total Energy =                       -268.0566945479050673
    Molecular point group: c1
  Basis Set: CC-PVTZ
  Basis Set:
  Basis Set: CC-PVTZ
  Basis Set:
  @DF-RHF Final Energy:  -267.97568935699621
    Total Energy =                       -267.9756893569959857
  Basis Set: CC-PVTZ
  Basis Set:
  Basis Set: CC-PVTZ
  Basis Set:
  @DF-RHF Final Energy:  -268.05035134658021
    Total Energy =                       -268.0503513465801007
  Basis Set: CC-PVTZ
  Basis Set:
  Basis Set: CC-PVTZ
  Basis Set:
  @DF-RHF Final Energy:  -268.05864121941789
    Total Energy =                       -268.0586412194179502
  Basis Set: CC-PVTZ
  Basis Set:
  Basis Set: CC-PVTZ
  Basis Set:
  @DF-RHF Final Energy:  -268.05891382599202
    Total Energy =                       -268.0589138259920219
  Basis Set: CC-PVTZ
  Basis Set:
  Basis Set: CC-PVTZ
  Basis Set:
  @DF-RHF Final Energy:  -268.05893157034825
    Total Energy =                       -268.0589315703483066
  Basis Set: CC-PVTZ
  Basis Set:
  Basis Set: CC-PVTZ
  Basis Set:
  @DF-RHF Final Energy:  -268.05893262967641
    Total Energy =                       -268.0589326296762351
  Basis Set: CC-PVTZ
  Basis Set:
  Charge       = 0
  Multiplicity = 1
  Basis Set: CC-PVTZ
  Basis Set:

    Orbital Energies (a.u.)
    -----------------------

    Doubly Occupied:

       1A    -20.555202     2A    -20.555024     3A    -11.269832
       4A    -11.269139     5A    -11.268966     6A     -1.389355
       7A     -1.370686     8A     -1.015698     9A     -0.927947
      10A     -0.838140    11A     -0.712916    12A     -0.673723
      13A     -0.665019    14A     -0.639349    15A     -0.598630
      16A     -0.577118    17A     -0.539660    18A     -0.493754
      19A     -0.486877    20A     -0.462475    21A     -0.408710

  @DF-RHF Final Energy:  -268.05893282321586

   => Energetics <=

    Nuclear Repulsion Energy =            192.0705862327940565
    One-Electron Energy =                -746.8225960221652713
    Two-Electron Energy =                 286.6930769661552745
    DFT Exchange-Correlation Energy =       0.0000000000000000
    Empirical Dispersion Energy =           0.0000000000000000
    PCM Polarization Energy =               0.0000000000000000
    EFP Energy =                            0.0000000000000000
    Total Energy =                       -268.0589328232159119
    Molecular point group: c1
  Basis Set: CC-PVTZ
  Basis Set:

  -Total Gradient:
     Atom            X                  Y                   Z
    ------   -----------------  -----------------  -----------------
       1       -0.000000420499    -0.000009309440    -0.000014842152
       2        0.000021851752     0.000001412459     0.000014023588
       3       -0.000005381691     0.000015847853     0.000004860812
       4       -0.000323326839     0.000491707533    -0.000475898489
       5        0.000001617530    -0.000002021218     0.000000868054
       6       -0.000006604607     0.000012150823     0.000000546672
       7        0.000422697480    -0.000507699873     0.000183576690
       8        0.000153133473    -0.000305175401     0.000345775029
       9        0.000010495770     0.000013783750    -0.000002331894
      10       -0.000275766500     0.000282049605    -0.000069253655
      11       -0.000000768227     0.000006859019     0.000003217358
      12       -0.000001216883     0.000003568063     0.000007674675
      13        0.000003689244    -0.000003173173     0.000001783312

  **** Optimization is complete! (in 8 steps) ****
    Final optimized geometry and variables:
    Molecular point group: c1

    Geometry (in Angstrom), charge = 0, multiplicity = 1:

    H           -1.846684802516    -1.322783800406    -1.225557797273
    O           -2.076630350457    -0.848569290599    -0.447451192205
    C           -1.102855236801     0.116415574522    -0.160676125730
    C            0.181377307838    -0.530092201664     0.337796708995
    H           -0.912583582806     0.744022943497    -1.026175973665
    H           -1.506740530567     0.748539843711     0.617478345432
    O            1.144075220676     0.405479682185     0.711782793944
    H            0.578334921378    -1.208938849864    -0.417583380324
    H           -0.047783855849    -1.121143213840     1.214068912716
    C            1.934026208466     0.917868416246    -0.313118484960
    H            1.355633677963     1.477432127243    -1.042341640533
    H            2.654463806852     1.586015104378     0.135605443117
    H            2.469448115734     0.125684216419    -0.831324532965

  Mulliken Charges: (a.u.)
   Center  Symbol    Alpha    Beta     Spin     Total
       1     H     0.39418  0.39418  0.00000  0.21164
       2     O     4.20245  4.20245  0.00000 -0.40491
       3     C     2.97209  2.97209  0.00000  0.05583
       4     C     2.98439  2.98439  0.00000  0.03121
       5     H     0.47139  0.47139  0.00000  0.05722
       6     H     0.45218  0.45218  0.00000  0.09564
       7     O     4.17862  4.17862  0.00000 -0.35725
       8     H     0.47953  0.47953  0.00000  0.04095
       9     H     0.44577  0.44577  0.00000  0.10845
      10     C     3.03243  3.03243  0.00000 -0.06486
      11     H     0.47246  0.47246  0.00000  0.05509
      12     H     0.44441  0.44441  0.00000  0.11119
      13     H     0.47010  0.47010  0.00000  0.05980

   Total alpha = 21.00000, Total beta = 21.00000, Total charge =  0.00000

*** Psi4 exiting successfully. Buy a developer a beer!
