                              Psi4 1.0.54 Driver

  ==> Input File <==

--------------------------------------------------------------------------
set {
	reference rhf
	basis cc-pvtz
}

set_num_threads( 4 )
memory 2 gb

molecule MOL {
0 1

H	 -2.866439	 0.744713	 2.145930
O	 -2.074620	 0.228888	 2.171741
C	 -1.291367	 0.609236	 1.166363
C	 -0.004641	 -0.170163	 1.136271
O	 -1.608884	 1.459464	 0.408559
C	 0.926581	 0.227233	 0.000178
H	 -0.269331	 -1.221140	 1.080476
H	 0.471773	 -0.036932	 2.102188
C	 2.220156	 -0.582071	 -0.000088
H	 0.412254	 0.098731	 -0.945544
H	 1.154277	 1.284404	 0.077414
C	 3.466689	 0.296012	 -0.000457
H	 2.239073	 -1.234095	 -0.869382
H	 2.239505	 -1.233985	 0.869270
H	 3.493549	 0.935857	 -0.875887
H	 4.368821	 -0.304526	 -0.001199
H	 3.494559	 0.935166	 0.875458

	symmetry c1
}
set optking {
	frozen_dihedral = ("
		10 6 9 13
	")
}

ee,wfn = optimize('scf', return_wfn=True)
oeprop( wfn, 'DIPOLE', 'QUADRUPOLE', 'MULLIKEN_CHARGES')
f=open( 'psi4out.xyz', 'w' )
f.write( "17  " )
f.write( str(ee) + "\n" )
f.write( MOL.save_string_xyz() )
f.close()
--------------------------------------------------------------------------

    Molecular point group: c1
  Charge       = 0
  Multiplicity = 1
  Basis Set: CC-PVTZ
  Basis Set:
  @DF-RHF Final Energy:  -345.04298705557943
    Total Energy =                       -345.0429870555788625
    Molecular point group: c1
  Basis Set: CC-PVTZ
  Basis Set:
  Basis Set: CC-PVTZ
  Basis Set:
  @DF-RHF Final Energy:  -345.04319549468181
    Total Energy =                       -345.0431954946820383
  Basis Set: CC-PVTZ
  Basis Set:
  Basis Set: CC-PVTZ
  Basis Set:
  @DF-RHF Final Energy:  -345.04306354794016
    Total Energy =                       -345.0430635479403918
  Basis Set: CC-PVTZ
  Basis Set:
  Basis Set: CC-PVTZ
  Basis Set:
  @DF-RHF Final Energy:  -345.04331215061421
    Total Energy =                       -345.0433121506138718
  Basis Set: CC-PVTZ
  Basis Set:
  Charge       = 0
  Multiplicity = 1
  Basis Set: CC-PVTZ
  Basis Set:

    Orbital Energies (a.u.)
    -----------------------

    Doubly Occupied:

       1A    -20.604112     2A    -20.540784     3A    -11.373477
       4A    -11.239782     5A    -11.221106     6A    -11.220485
       7A    -11.211504     8A     -1.477585     9A     -1.369177
      10A     -1.090534    11A     -1.018996    12A     -0.914678
      13A     -0.826524    14A     -0.790248    15A     -0.703861
      16A     -0.690734    17A     -0.668045    18A     -0.625217
      19A     -0.600934    20A     -0.590113    21A     -0.569213
      22A     -0.531620    23A     -0.520953    24A     -0.484530
      25A     -0.479538    26A     -0.478228    27A     -0.467382
      28A     -0.445459

  @DF-RHF Final Energy:  -345.04331768548457

   => Energetics <=

    Nuclear Repulsion Energy =            305.1196934950377226
    One-Electron Energy =               -1074.8163796144503976
    Two-Electron Energy =                 424.6533684339279944
    DFT Exchange-Correlation Energy =       0.0000000000000000
    Empirical Dispersion Energy =           0.0000000000000000
    PCM Polarization Energy =               0.0000000000000000
    EFP Energy =                            0.0000000000000000
    Total Energy =                       -345.0433176854846806
    Molecular point group: c1
  Basis Set: CC-PVTZ
  Basis Set:

  -Total Gradient:
     Atom            X                  Y                   Z
    ------   -----------------  -----------------  -----------------
       1       -0.000070971409     0.000019810792     0.000023694317
       2        0.000045579077    -0.000056984172     0.000067124342
       3        0.000021509587    -0.000106542734     0.000034581355
       4        0.000027374706     0.000017404789     0.000002504100
       5        0.000032727369     0.000122852502    -0.000130071840
       6        0.001235877298     0.001913890936    -0.001025495936
       7       -0.000020919890    -0.000019870927     0.000018247626
       8       -0.000021661918    -0.000004007427     0.000012156481
       9       -0.001134034777    -0.001835472450     0.001261736253
      10       -0.000839624726    -0.001324567123     0.000644545101
      11        0.000002776734     0.000030096091    -0.000026885706
      12       -0.000021083306     0.000020584291    -0.000000266070
      13        0.000744751989     0.001215528885    -0.000888771903
      14       -0.000014426315    -0.000032980239    -0.000003975971
      15        0.000024575781     0.000015108373    -0.000000747306
      16       -0.000036128165    -0.000006128082    -0.000001758656
      17        0.000023677964     0.000031276494     0.000013383812

  **** Optimization is complete! (in 5 steps) ****
    Final optimized geometry and variables:
    Molecular point group: c1

    Geometry (in Angstrom), charge = 0, multiplicity = 1:

    H           -3.069172090800     0.441352036342     1.426892524452
    O           -2.278831224227    -0.076870358723     1.452857762128
    C           -1.491849589016     0.304937528141     0.450762795303
    C           -0.205773851924    -0.475805700280     0.422927421085
    O           -1.804147518764     1.160070226974    -0.303919098593
    C            0.731988338963    -0.074936140235    -0.709041354078
    H           -0.470933915612    -1.526368330504     0.361862272993
    H            0.267181031777    -0.346729519004     1.391159926472
    C            2.035902315566    -0.898766408391    -0.717185745392
    H            0.204825353448    -0.195631473760    -1.646479498562
    H            0.954263533550     0.981014641190    -0.621291787665
    C            3.292736313130    -0.032792558654    -0.745552106231
    H            2.048168062380    -1.550711426763    -1.583495539979
    H            2.075480267327    -1.547002224662     0.152273550293
    H            3.305984962587     0.605571362041    -1.622387028442
    H            4.188875614275    -0.642387694804    -0.765141627461
    H            3.345627238015     0.608387528514     0.128240065296

  Mulliken Charges: (a.u.)
   Center  Symbol    Alpha    Beta     Spin     Total
       1     H     0.38234  0.38234  0.00000  0.23531
       2     O     4.16013  4.16013  0.00000 -0.32026
       3     C     2.80655  2.80655  0.00000  0.38691
       4     C     3.11085  3.11085  0.00000 -0.22169
       5     O     4.19100  4.19100  0.00000 -0.38200
       6     C     3.08870  3.08870  0.00000 -0.17740
       7     H     0.43668  0.43668  0.00000  0.12664
       8     H     0.43766  0.43766  0.00000  0.12467
       9     C     3.08931  3.08931  0.00000 -0.17861
      10     H     0.44261  0.44261  0.00000  0.11477
      11     H     0.44571  0.44571  0.00000  0.10858
      12     C     3.14659  3.14659  0.00000 -0.29317
      13     H     0.44916  0.44916  0.00000  0.10169
      14     H     0.45547  0.45547  0.00000  0.08907
      15     H     0.45230  0.45230  0.00000  0.09540
      16     H     0.44932  0.44932  0.00000  0.10137
      17     H     0.45563  0.45563  0.00000  0.08873

   Total alpha = 28.00000, Total beta = 28.00000, Total charge = -0.00000

*** Psi4 exiting successfully. Buy a developer a beer!
