                              Psi4 1.0.54 Driver

  ==> Input File <==

--------------------------------------------------------------------------
set {
	reference rhf
	basis cc-pvtz
}

set_num_threads( 4 )
memory 2 gb

molecule MOL {
0 1

H	 -0.000105	 1.988529	 0.748933
O	 -0.000098	 1.879786	 -0.188206
C	 -0.000014	 0.545691	 -0.532416
C	 -0.851595	 0.322955	 -1.783406
C	 -0.404929	 -0.309821	 0.669215
H	 1.012251	 0.268968	 -0.788161
F	 -0.362551	 1.030451	 -2.771913
F	 -0.868674	 -0.931588	 -2.156959
F	 -2.094356	 0.710532	 -1.591822
F	 0.442479	 -0.110010	 1.648415
F	 -0.404473	 -1.589227	 0.392028
F	 -1.603057	 0.014546	 1.105851

	symmetry c1
}
set optking {
	frozen_dihedral = ("
		6 3 2 1
	")
}

ee,wfn = optimize('scf', return_wfn=True)
oeprop( wfn, 'DIPOLE', 'QUADRUPOLE', 'MULLIKEN_CHARGES')
f=open( 'psi4out.xyz', 'w' )
f.write( "12  " )
f.write( str(ee) + "\n" )
f.write( MOL.save_string_xyz() )
f.close()
--------------------------------------------------------------------------

    Molecular point group: c1
  Charge       = 0
  Multiplicity = 1
  Basis Set: CC-PVTZ
  Basis Set:
  @DF-RHF Final Energy:  -786.58413958901360
    Total Energy =                       -786.5841395890131480
    Molecular point group: c1
  Basis Set: CC-PVTZ
  Basis Set:
  Basis Set: CC-PVTZ
  Basis Set:
  @DF-RHF Final Energy:  -786.58558158645246
    Total Energy =                       -786.5855815864524629
  Basis Set: CC-PVTZ
  Basis Set:
  Basis Set: CC-PVTZ
  Basis Set:
  @DF-RHF Final Energy:  -786.58590836988924
    Total Energy =                       -786.5859083698896939
  Basis Set: CC-PVTZ
  Basis Set:
  Basis Set: CC-PVTZ
  Basis Set:
  @DF-RHF Final Energy:  -786.58596033871390
    Total Energy =                       -786.5859603387139032
  Basis Set: CC-PVTZ
  Basis Set:
  Basis Set: CC-PVTZ
  Basis Set:
  @DF-RHF Final Energy:  -786.58597980769730
    Total Energy =                       -786.5859798076969582
  Basis Set: CC-PVTZ
  Basis Set:
  Basis Set: CC-PVTZ
  Basis Set:
  @DF-RHF Final Energy:  -786.58598442989216
    Total Energy =                       -786.5859844298922781
  Basis Set: CC-PVTZ
  Basis Set:
  Charge       = 0
  Multiplicity = 1
  Basis Set: CC-PVTZ
  Basis Set:

    Orbital Energies (a.u.)
    -----------------------

    Doubly Occupied:

       1A    -26.365512     2A    -26.362797     3A    -26.361379
       4A    -26.351447     5A    -26.348209     6A    -26.347818
       7A    -20.607314     8A    -11.526816     9A    -11.514704
      10A    -11.351736    11A     -1.776506    12A     -1.762013
      13A     -1.671775    14A     -1.669668    15A     -1.657415
      16A     -1.655675    17A     -1.437187    18A     -1.105191
      19A     -1.003067    20A     -0.943420    21A     -0.876721
      22A     -0.868526    23A     -0.863385    24A     -0.849417
      25A     -0.839000    26A     -0.800019    27A     -0.755005
      28A     -0.741191    29A     -0.726301    30A     -0.724812
      31A     -0.713948    32A     -0.695753    33A     -0.691812
      34A     -0.676220    35A     -0.674869    36A     -0.671124
      37A     -0.659230    38A     -0.654050    39A     -0.621075
      40A     -0.549835    41A     -0.507409

  @DF-RHF Final Energy:  -786.58598556297306

   => Energetics <=

    Nuclear Repulsion Energy =            671.2119886159121052
    One-Electron Energy =               -2429.6372448641436677
    Two-Electron Energy =                 971.8392706852586116
    DFT Exchange-Correlation Energy =       0.0000000000000000
    Empirical Dispersion Energy =           0.0000000000000000
    PCM Polarization Energy =               0.0000000000000000
    EFP Energy =                            0.0000000000000000
    Total Energy =                       -786.5859855629729509
    Molecular point group: c1
  Basis Set: CC-PVTZ
  Basis Set:

  -Total Gradient:
     Atom            X                  Y                   Z
    ------   -----------------  -----------------  -----------------
       1       -0.001863488843    -0.000035445700     0.000074357870
       2        0.002269592084     0.000004065527    -0.000570372207
       3       -0.000054675414    -0.000117421632     0.002031737145
       4       -0.000088669598     0.000149584062    -0.000012139709
       5       -0.000103318052    -0.000071035640    -0.000013815083
       6       -0.000346676326     0.000211620052    -0.001534531286
       7        0.000027558315     0.000037135391    -0.000035474947
       8       -0.000014743226    -0.000149906655     0.000011752886
       9        0.000066228115    -0.000038487727     0.000009269501
      10        0.000073982989     0.000094769362     0.000101239591
      11       -0.000013790747    -0.000090170570    -0.000041249146
      12        0.000048000696     0.000005293530    -0.000020774636

  **** Optimization is complete! (in 7 steps) ****
    Final optimized geometry and variables:
    Molecular point group: c1

    Geometry (in Angstrom), charge = 0, multiplicity = 1:

    H            0.649387647042     2.007523739007     1.043836618383
    O            0.639058400832     1.766686456938     0.134429476918
    C            0.651641512921     0.397385556431    -0.042313464996
    C           -0.209557893544     0.093029912707    -1.267919994912
    C            0.211346539419    -0.346390044968     1.217576476860
    H            1.646956823423     0.039547382110    -0.280928681036
    F            0.304021117497     0.693483112894    -2.313765837933
    F           -0.230391893374    -1.197145441421    -1.515689959788
    F           -1.443381373866     0.501470955383    -1.131177075801
    F            0.935586128583     0.088998149538     2.233082513378
    F            0.406375251561    -1.633868291832     1.110857134351
    F           -1.044781470453    -0.139890449351     1.521570393406

  Mulliken Charges: (a.u.)
   Center  Symbol    Alpha    Beta     Spin     Total
       1     H     0.38246  0.38246  0.00000  0.23507
       2     O     4.18862  4.18862  0.00000 -0.37723
       3     C     2.99471  2.99471  0.00000  0.01058
       4     C     2.67898  2.67898  0.00000  0.64204
       5     C     2.68586  2.68586  0.00000  0.62829
       6     H     0.44291  0.44291  0.00000  0.11418
       7     F     4.60315  4.60315  0.00000 -0.20630
       8     F     4.60669  4.60669  0.00000 -0.21337
       9     F     4.60243  4.60243  0.00000 -0.20485
      10     F     4.61280  4.61280  0.00000 -0.22561
      11     F     4.59968  4.59968  0.00000 -0.19937
      12     F     4.60171  4.60171  0.00000 -0.20343

   Total alpha = 41.00000, Total beta = 41.00000, Total charge = -0.00000

*** Psi4 exiting successfully. Buy a developer a beer!
