  ==> Input File <==

--------------------------------------------------------------------------
set {
	reference rhf
	basis 6-31G*
}

set_num_threads( 4 )
memory 2 gb

molecule MOL {
0 1

O	 -1.743222	 1.056285	 0.500149
C	 -1.083277	 0.139568	 0.115197
C	 0.323299	 -0.082943	 0.642902
C	 -1.597905	 -0.826797	 -0.928415
C	 1.355627	 -0.005344	 -0.493127
H	 0.396251	 -1.044647	 1.143147
H	 0.528637	 0.693580	 1.371677
C	 2.786168	 -0.195604	 0.007473
H	 1.132807	 -0.760304	 -1.243899
H	 1.259610	 0.958506	 -0.981915
H	 3.495561	 -0.130713	 -0.811210
H	 2.912696	 -1.165395	 0.480041
H	 3.049284	 0.565503	 0.735850
H	 -0.884345	 -0.932944	 -1.740347
H	 -2.546612	 -0.482269	 -1.315702
H	 -1.725666	 -1.810182	 -0.483628

	symmetry c1
}
set optking {
	frozen_dihedral = ("
		4 2 3 5
	")
}

ee = optimize('scf')
oeprop('DIPOLE', 'QUADRUPOLE', 'MULLIKEN_CHARGES')
f=open( 'psi4out.xyz', 'w' )
f.write( "16  " )
f.write( str(ee) + "\n" )
f.write( MOL.save_string_xyz() )
f.close()
--------------------------------------------------------------------------

    Molecular point group: c1
  Charge       = 0
  Multiplicity = 1
  Basis Set: 6-31G*
  Basis Set:
  @DF-RHF Final Energy:  -270.02825031789797
    Total Energy =                       -270.0282503178980846
    Molecular point group: c1
  Basis Set: 6-31G*
  Basis Set:
  Basis Set: 6-31G*
  Basis Set:
  @DF-RHF Final Energy:  -270.02917272351624
    Total Energy =                       -270.0291727235160124
  Basis Set: 6-31G*
  Basis Set:
  Basis Set: 6-31G*
  Basis Set:
  @DF-RHF Final Energy:  -270.02865243779081
    Total Energy =                       -270.0286524377909814
  Basis Set: 6-31G*
  Basis Set:
  Basis Set: 6-31G*
  Basis Set:
  @DF-RHF Final Energy:  -270.02964669338968
    Total Energy =                       -270.0296466933899637
  Basis Set: 6-31G*
  Basis Set:
  @DF-RHF Final Energy:  -270.02973210541069
    Total Energy =                       -270.0297321054107442
  @DF-RHF Final Energy:  -270.02976799551709
    Total Energy =                       -270.0297679955171475
  @DF-RHF Final Energy:  -270.02979836327688
    Total Energy =                       -270.0297983632767682
  @DF-RHF Final Energy:  -270.02980006148459
    Total Energy =                       -270.0298000614845932
  @DF-RHF Final Energy:  -270.02982460754208
    Total Energy =                       -270.0298246075421389
  @DF-RHF Final Energy:  -270.02983048814326
    Total Energy =                       -270.0298304881433751
  @DF-RHF Final Energy:  -270.02983544818733
    Total Energy =                       -270.0298354481873275
  Basis Set: 6-31G*
  Basis Set:
  @DF-RHF Final Energy:  -270.02984871271428
    Total Energy =                       -270.0298487127142835
  Basis Set: 6-31G*
  Basis Set:
  Basis Set: 6-31G*
  Basis Set:
  @DF-RHF Final Energy:  -270.02987627902837
    Total Energy =                       -270.0298762790284854
  Basis Set: 6-31G*
  Basis Set:
  Basis Set: 6-31G*
  Basis Set:
  @DF-RHF Final Energy:  -270.02988591439214
    Total Energy =                       -270.0298859143921391
  Basis Set: 6-31G*
  Basis Set:
  Charge       = 0
  Multiplicity = 1
  Basis Set: 6-31G*
  Basis Set:

    Orbital Energies (a.u.)
    -----------------------

    Doubly Occupied:

       1A    -20.548429     2A    -11.324875     3A    -11.236015
       4A    -11.230399     5A    -11.227857     6A    -11.221367
       7A     -1.393665     8A     -1.085390     9A     -1.010515
      10A     -0.951004    11A     -0.833167    12A     -0.735047
      13A     -0.659251    14A     -0.649483    15A     -0.617500
      16A     -0.605548    17A     -0.577421    18A     -0.553953
      19A     -0.535025    20A     -0.520964    21A     -0.505773
      22A     -0.486649    23A     -0.474311    24A     -0.398421

  @DF-RHF Final Energy:  -270.02988602580842

   => Energetics <=

    Nuclear Repulsion Energy =            236.9114834349819603
    One-Electron Energy =                -835.1186837238349199
    Two-Electron Energy =                 328.1773142630445363
    DFT Exchange-Correlation Energy =       0.0000000000000000
    Empirical Dispersion Energy =           0.0000000000000000
    PCM Polarization Energy =               0.0000000000000000
    EFP Energy =                            0.0000000000000000
    Total Energy =                       -270.0298860258084233
    Molecular point group: c1
  Basis Set: 6-31G*
  Basis Set:

  -Total Gradient:
     Atom            X                  Y                   Z
    ------   -----------------  -----------------  -----------------
       1        0.000005368610    -0.000014583930    -0.000005970263
       2       -0.000048431254    -0.000072885633     0.000064906223
       3        0.000028103045     0.000090549504    -0.000013340358
       4        0.000006175639     0.000041839574    -0.000030413522
       5       -0.000006506554    -0.000039364499     0.000001049487
       6       -0.000002804275    -0.000004182805     0.000003503077
       7        0.000004533548     0.000000291163    -0.000005370390
       8        0.000000695523    -0.000009361079    -0.000003400814
       9        0.000004140867     0.000002377152     0.000000372398
      10       -0.000002236233    -0.000000564170     0.000000233000
      11        0.000002044970    -0.000005698687    -0.000000163250
      12       -0.000001606509     0.000003128320     0.000005588996
      13        0.000000201451     0.000003159346    -0.000006160486
      14        0.000005969584     0.000001986598    -0.000005277588
      15        0.000001058468    -0.000004917806    -0.000006429909
      16        0.000003293119     0.000008226948     0.000000873398

  **** Optimization is complete! (in 15 steps) ****
    Final optimized geometry and variables:
    Molecular point group: c1

    Geometry (in Angstrom), charge = 0, multiplicity = 1:

    O           -1.750120175781     1.077613093857     0.502859113106
    C           -1.101923524095     0.148505204183     0.127794156208
    C            0.307681592035    -0.085883350563     0.639424656078
    C           -1.659732968529    -0.833691533229    -0.882777115445
    C            1.377076284670    -0.072275493824    -0.462626702888
    H            0.331942409207    -1.046990705164     1.150564349748
    H            0.512732097781     0.684201741254     1.373267329621
    C            2.787479369451    -0.225467931863     0.104819707475
    H            1.189114807806    -0.871395150088    -1.174003813215
    H            1.309806100897     0.860694634331    -1.016582827363
    H            3.528715399593    -0.215049832449    -0.687647844438
    H            2.892530578055    -1.161503812774     0.645709963850
    H            3.022744685578     0.582281373052     0.790896428854
    H           -1.229085306076    -0.638700156482    -1.860789316034
    H           -2.732147184384    -0.711667563062    -0.947023156800
    H           -1.418268349825    -1.858197793032    -0.618850640183

  Mulliken Charges: (a.u.)
   Center  Symbol    Alpha    Beta     Spin     Total
       1     O     4.26044  4.26044  0.00000 -0.52089
       2     C     2.73419  2.73419  0.00000  0.53162
       3     C     3.20356  3.20356  0.00000 -0.40712
       4     C     3.29031  3.29031  0.00000 -0.58061
       5     C     3.16437  3.16437  0.00000 -0.32874
       6     H     0.41294  0.41294  0.00000  0.17411
       7     H     0.39942  0.39942  0.00000  0.20116
       8     C     3.23955  3.23955  0.00000 -0.47909
       9     H     0.41799  0.41799  0.00000  0.16402
      10     H     0.41294  0.41294  0.00000  0.17412
      11     H     0.41552  0.41552  0.00000  0.16896
      12     H     0.41985  0.41985  0.00000  0.16031
      13     H     0.41667  0.41667  0.00000  0.16666
      14     H     0.40418  0.40418  0.00000  0.19165
      15     H     0.39602  0.39602  0.00000  0.20796
      16     H     0.41207  0.41207  0.00000  0.17587

   Total alpha = 24.00000, Total beta = 24.00000, Total charge = -0.00000
