  ==> Input File <==

--------------------------------------------------------------------------
set {
	reference rhf
	basis cc-pvtz
}

set_num_threads( 4 )
memory 2 gb

molecule MOL {
0 1

H	 -0.988007	 0.318900	 -0.997658
N	 -0.712187	 0.000026	 -0.093397
C	 0.734067	 -0.000020	 0.038424
H	 -1.080695	 -0.920334	 0.018780
H	 1.140372	 -0.872115	 -0.458226
H	 1.140363	 0.872301	 -0.457869
H	 1.095085	 -0.000244	 1.065614

	symmetry c1
}
set optking {
	frozen_dihedral = ("
		1 2 3 7
	")
}

ee = optimize('scf')
oeprop('DIPOLE', 'QUADRUPOLE', 'MULLIKEN_CHARGES')
f=open( 'psi4out.xyz', 'w' )
f.write( "7  " )
f.write( str(ee) + "\n" )
f.write( MOL.save_string_xyz() )
f.close()
--------------------------------------------------------------------------

    Molecular point group: c1
  Charge       = 0
  Multiplicity = 1
  Basis Set: CC-PVTZ
  Basis Set:
  @DF-RHF Final Energy:   -95.25133183062655
    Total Energy =                        -95.2513318306264836
    Molecular point group: c1
  Basis Set: CC-PVTZ
  Basis Set:
  Basis Set: CC-PVTZ
  Basis Set:
  @DF-RHF Final Energy:   -95.25290014648650
    Total Energy =                        -95.2529001464864820
  Basis Set: CC-PVTZ
  Basis Set:
  Basis Set: CC-PVTZ
  Basis Set:
  @DF-RHF Final Energy:   -95.25305748002560
    Total Energy =                        -95.2530574800256318
  Basis Set: CC-PVTZ
  Basis Set:
  Basis Set: CC-PVTZ
  Basis Set:
  @DF-RHF Final Energy:   -95.25306103854332
    Total Energy =                        -95.2530610385432226
  Basis Set: CC-PVTZ
  Basis Set:
  Charge       = 0
  Multiplicity = 1
  Basis Set: CC-PVTZ
  Basis Set:

    Orbital Energies (a.u.)
    -----------------------

    Doubly Occupied:

       1A    -15.527305     2A    -11.235362     3A     -1.170963
       4A     -0.897214     5A     -0.666911     6A     -0.602540
       7A     -0.560526     8A     -0.516491     9A     -0.384552

  @DF-RHF Final Energy:   -95.25306144398125

   => Energetics <=

    Nuclear Repulsion Energy =             42.3841645823037680
    One-Electron Energy =                -212.1507239315796483
    Two-Electron Energy =                  74.5134979052946562
    DFT Exchange-Correlation Energy =       0.0000000000000000
    Empirical Dispersion Energy =           0.0000000000000000
    PCM Polarization Energy =               0.0000000000000000
    EFP Energy =                            0.0000000000000000
    Total Energy =                        -95.2530614439812382
    Molecular point group: c1
  Basis Set: CC-PVTZ
  Basis Set:

  -Total Gradient:
     Atom            X                  Y                   Z
    ------   -----------------  -----------------  -----------------
       1       -0.000006422189     0.002105540475     0.000749669968
       2       -0.000014450560    -0.002130284369    -0.000928748838
       3        0.000037889007    -0.002058190072     0.000219355177
       4       -0.000000840601     0.000008764241    -0.000006949291
       5       -0.000028250393     0.000024618591     0.000003021889
       6       -0.000005895301    -0.000001288709     0.000003082250
       7        0.000017970037     0.002050839843    -0.000039431155

  **** Optimization is complete! (in 5 steps) ****
    Final optimized geometry and variables:
    Molecular point group: c1

    Geometry (in Angstrom), charge = 0, multiplicity = 1:

    H           -1.010079964741     0.338594366568    -0.931274146656
    N           -0.716336380753     0.029021081197    -0.030902855342
    C            0.731705106970     0.004420288226     0.074831592634
    H           -1.116644488715    -0.868553322967     0.134539955197
    H            1.206162099674    -0.845510358056    -0.411124627991
    H            1.134705509601     0.905368181887    -0.370904343634
    H            1.026598072640     0.014240450612     1.117131305883

  Mulliken Charges: (a.u.)
   Center  Symbol    Alpha    Beta     Spin     Total
       1     H     0.42685  0.42685  0.00000  0.14630
       2     N     3.68926  3.68926  0.00000 -0.37852
       3     C     3.06973  3.06973  0.00000 -0.13946
       4     H     0.42789  0.42789  0.00000  0.14422
       5     H     0.47132  0.47132  0.00000  0.05737
       6     H     0.45760  0.45760  0.00000  0.08480
       7     H     0.45735  0.45735  0.00000  0.08530

   Total alpha =  9.00000, Total beta =  9.00000, Total charge =  0.00000
