  ==> Input File <==

--------------------------------------------------------------------------
set {
	reference rhf
	basis 6-31G*
}

set_num_threads( 4 )
memory 2 gb

molecule MOL {
0 1

H	 -0.625319	 2.588974	 -2.814241
O	 -1.093470	 1.828570	 -2.499587
C	 -0.605004	 1.462728	 -1.236833
C	 0.753170	 0.792290	 -1.344278
H	 -0.539027	 2.317274	 -0.569183
H	 -1.317483	 0.768760	 -0.813474
O	 1.171513	 0.459272	 -0.058250
H	 1.468265	 1.468302	 -1.817171
H	 0.675261	 -0.092007	 -1.973988
C	 2.397842	 -0.198080	 -0.002151
H	 2.508049	 -0.905315	 -0.822092
H	 3.173794	 0.550865	 -0.078850
H	 2.517602	 -0.735921	 0.936026

	symmetry c1
}
set optking {
	frozen_dihedral = ("
		4 7 10 13
	")
}

ee = optimize('scf')
oeprop('DIPOLE', 'QUADRUPOLE', 'MULLIKEN_CHARGES')
f=open( 'psi4out.xyz', 'w' )
f.write( "13  " )
f.write( str(ee) + "\n" )
f.write( MOL.save_string_xyz() )
f.close()
--------------------------------------------------------------------------

    Molecular point group: c1
  Charge       = 0
  Multiplicity = 1
  Basis Set: 6-31G*
  Basis Set:
  @DF-RHF Final Energy:  -267.94858817242783
    Total Energy =                       -267.9485881724277760
    Molecular point group: c1
  Basis Set: 6-31G*
  Basis Set:
  Basis Set: 6-31G*
  Basis Set:
  @DF-RHF Final Energy:  -267.94946627085147
    Total Energy =                       -267.9494662708515307
  Basis Set: 6-31G*
  Basis Set:
  Basis Set: 6-31G*
  Basis Set:
  @DF-RHF Final Energy:  -267.94969455155763
    Total Energy =                       -267.9496945515573429
  Basis Set: 6-31G*
  Basis Set:
  Charge       = 0
  Multiplicity = 1
  Basis Set: 6-31G*
  Basis Set:

    Orbital Energies (a.u.)
    -----------------------

    Doubly Occupied:

       1A    -20.561552     2A    -20.560061     3A    -11.271014
       4A    -11.270136     5A    -11.268840     6A     -1.387735
       7A     -1.364985     8A     -1.018536     9A     -0.913419
      10A     -0.841813    11A     -0.709463    12A     -0.673482
      13A     -0.659759    14A     -0.637387    15A     -0.595483
      16A     -0.570656    17A     -0.545100    18A     -0.489880
      19A     -0.481160    20A     -0.438307    21A     -0.421089

  @DF-RHF Final Energy:  -267.94969532664817

   => Energetics <=

    Nuclear Repulsion Energy =            190.1632463685285188
    One-Electron Energy =                -742.8661677280033473
    Two-Electron Energy =                 284.7532260328266602
    DFT Exchange-Correlation Energy =       0.0000000000000000
    Empirical Dispersion Energy =           0.0000000000000000
    PCM Polarization Energy =               0.0000000000000000
    EFP Energy =                            0.0000000000000000
    Total Energy =                       -267.9496953266482251
    Molecular point group: c1
  Basis Set: 6-31G*
  Basis Set:

  -Total Gradient:
     Atom            X                  Y                   Z
    ------   -----------------  -----------------  -----------------
       1       -0.000000680169     0.000011578808    -0.000024235272
       2        0.000085421105     0.000009269307     0.000045756343
       3       -0.000033706967    -0.000050683274     0.000078989413
       4       -0.000915235513    -0.001972295273    -0.000268710769
       5       -0.000021943917     0.000028233605    -0.000008740387
       6        0.000018031810    -0.000008840832     0.000016889408
       7        0.001132960834     0.002183002310     0.000061421818
       8        0.000016655766    -0.000001778016     0.000052060375
       9       -0.000009176558     0.000001138798    -0.000026730590
      10        0.000914645809     0.001802044197     0.001160733195
      11       -0.000037922340     0.000006134062    -0.000021373533
      12       -0.000028911774     0.000028279299     0.000004181654
      13       -0.001120138089    -0.002036082993    -0.001070241657

  **** Optimization is complete! (in 4 steps) ****
    Final optimized geometry and variables:
    Molecular point group: c1

    Geometry (in Angstrom), charge = 0, multiplicity = 1:

    H           -1.165735595053     1.707544042886    -1.753739320322
    O           -1.625767971608     0.940922545905    -1.442200803889
    C           -1.130696771266     0.572375879376    -0.182674505871
    C            0.232726704585    -0.085911591194    -0.297821144415
    H           -1.070397688246     1.424073873925     0.489004867740
    H           -1.835461358942    -0.130235032594     0.239362171060
    O            0.653668303653    -0.426958761256     0.985683614509
    H            0.940014241025     0.600335200529    -0.767986460514
    H            0.160861364688    -0.966467847932    -0.932628840703
    C            1.885964423886    -1.075621861253     1.047549110677
    H            1.984727950053    -1.814230142565     0.255132771187
    H            2.710347933746    -0.370853807260     0.968053922670
    H            1.939690766827    -1.592146233445     1.996251563346

  Mulliken Charges: (a.u.)
   Center  Symbol    Alpha    Beta     Spin     Total
       1     H     0.28126  0.28126  0.00000  0.43748
       2     O     4.37093  4.37093  0.00000 -0.74186
       3     C     3.00474  3.00474  0.00000 -0.00949
       4     C     2.99651  2.99651  0.00000  0.00698
       5     H     0.42228  0.42228  0.00000  0.15543
       6     H     0.40845  0.40845  0.00000  0.18310
       7     O     4.30871  4.30871  0.00000 -0.61741
       8     H     0.43791  0.43791  0.00000  0.12418
       9     H     0.42272  0.42272  0.00000  0.15455
      10     C     3.07892  3.07892  0.00000 -0.15783
      11     H     0.42909  0.42909  0.00000  0.14183
      12     H     0.42678  0.42678  0.00000  0.14644
      13     H     0.41170  0.41170  0.00000  0.17661

   Total alpha = 21.00000, Total beta = 21.00000, Total charge = -0.00000
