                              Psi4 1.0.54 Driver

  ==> Input File <==

--------------------------------------------------------------------------
set {
	reference rhf
	basis cc-pvtz
}

set_num_threads( 4 )
memory 2 gb

molecule MOL {
0 1

H	 -4.340537	 -0.784487	 0.000000
O	 -3.958786	 0.074640	 0.000000
C	 -2.613554	 0.009900	 0.000000
C	 -1.922322	 1.041164	 0.613896
C	 -1.918397	 -1.032683	 -0.581947
H	 -2.471813	 1.844900	 1.062147
C	 -0.545515	 1.025465	 0.643054
H	 -2.447657	 -1.836324	 -1.060081
C	 -0.535788	 -1.046905	 -0.551777
H	 -0.012610	 1.824103	 1.118404
C	 0.145034	 -0.019643	 0.059523
H	 -0.000946	 -1.857372	 -1.004315
Br	 2.042861	 -0.036588	 0.102421

	symmetry c1
}
set optking {
	frozen_dihedral = ("
		4 3 2 1
	")
}

ee,wfn = optimize('scf', return_wfn=True)
oeprop( wfn, 'DIPOLE', 'QUADRUPOLE', 'MULLIKEN_CHARGES')
f=open( 'psi4out.xyz', 'w' )
f.write( "13  " )
f.write( str(ee) + "\n" )
f.write( MOL.save_string_xyz() )
f.close()
--------------------------------------------------------------------------

    Molecular point group: c1
  Charge       = 0
  Multiplicity = 1
  Basis Set: CC-PVTZ
  Basis Set:
  @DF-RHF Final Energy: -2877.54579068529029
    Total Energy =                      -2877.5457906852930137
    Molecular point group: c1
  Basis Set: CC-PVTZ
  Basis Set:
  Basis Set: CC-PVTZ
  Basis Set:
  @DF-RHF Final Energy: -2877.54583822822860
    Total Energy =                      -2877.5458382282281491
  Basis Set: CC-PVTZ
  Basis Set:
  Basis Set: CC-PVTZ
  Basis Set:
  @DF-RHF Final Energy: -2877.54584656037423
    Total Energy =                      -2877.5458465603746845
  Basis Set: CC-PVTZ
  Basis Set:
  Charge       = 0
  Multiplicity = 1
  Basis Set: CC-PVTZ
  Basis Set:

    Orbital Energies (a.u.)
    -----------------------

    Doubly Occupied:

       1A   -490.019051     2A    -65.159375     3A    -58.514601
       4A    -58.513233     5A    -58.513227     6A    -20.593115
       7A    -11.309787     8A    -11.289263     9A    -11.253707
      10A    -11.252129    11A    -11.242886    12A    -11.238198
      13A     -9.833173    14A     -7.444793    15A     -7.438035
      16A     -7.437975    17A     -3.188483    18A     -3.184929
      19A     -3.184823    20A     -3.176173    21A     -3.176169
      22A     -1.423758    23A     -1.180138    24A     -1.067006
      25A     -1.042130    26A     -0.970544    27A     -0.867843
      28A     -0.827776    29A     -0.757261    30A     -0.687670
      31A     -0.654775    32A     -0.636213    33A     -0.610296
      34A     -0.605624    35A     -0.570133    36A     -0.525700
      37A     -0.507997    38A     -0.501492    39A     -0.429148
      40A     -0.414135    41A     -0.360064    42A     -0.320129

  @DF-RHF Final Energy: -2877.54584737450477

   => Energetics <=

    Nuclear Repulsion Energy =            525.4285205758424127
    One-Electron Energy =               -5042.1028208721509145
    Two-Electron Energy =                1639.1284529218019088
    DFT Exchange-Correlation Energy =       0.0000000000000000
    Empirical Dispersion Energy =           0.0000000000000000
    PCM Polarization Energy =               0.0000000000000000
    EFP Energy =                            0.0000000000000000
    Total Energy =                      -2877.5458473745065930
    Molecular point group: c1
  Basis Set: CC-PVTZ
  Basis Set:

  -Total Gradient:
     Atom            X                  Y                   Z
    ------   -----------------  -----------------  -----------------
       1        0.000016955681    -0.000000515601     0.002422116928
       2       -0.000084832259    -0.000370909207    -0.002296320114
       3        0.000168877675     0.001137891550    -0.001663727716
       4        0.000074647645    -0.000838807568     0.001516194784
       5       -0.000133877021     0.000091292119     0.000000215039
       6       -0.000019311920     0.000005296609     0.000014661978
       7       -0.000155545748     0.000110051788     0.000038090454
       8        0.000007667908     0.000002138310     0.000002142471
       9        0.000171575216     0.000064825790     0.000057067496
      10       -0.000004585033    -0.000010309924    -0.000006069394
      11       -0.000011765090    -0.000195001013    -0.000088794249
      12       -0.000012976276    -0.000010640314     0.000006350366
      13       -0.000016828611     0.000014687469    -0.000001928033

  **** Optimization is complete! (in 4 steps) ****
    Final optimized geometry and variables:
    Molecular point group: c1

    Geometry (in Angstrom), charge = 0, multiplicity = 1:

    H           -4.339644316122    -0.772008551426    -0.067455550930
    O           -3.961354341647     0.088828179745    -0.066242937687
    C           -2.611227517974     0.026037465008    -0.053875017147
    C           -1.920437165559     1.054844783852     0.560874115907
    C           -1.917468935908    -1.017721158599    -0.635782092410
    H           -2.469774191931     1.855477266494     1.014972623521
    C           -0.542010794280     1.044480198389     0.581344490885
    H           -2.450146146713    -1.814755222277    -1.120176561204
    C           -0.535537461111    -1.034481862075    -0.604641217251
    H           -0.008214713668     1.843435991703     1.055045556043
    C            0.145881339750    -0.002569159864     0.000529091611
    H           -0.000666473905    -1.845849075006    -1.055460949201
    BR           2.043531434829    -0.019367381453     0.038680324298

  Mulliken Charges: (a.u.)
   Center  Symbol    Alpha    Beta     Spin     Total
       1     H     0.38496  0.38496  0.00000  0.23008
       2     O     4.17616  4.17616  0.00000 -0.35233
       3     C     2.86678  2.86678  0.00000  0.26645
       4     C     3.09252  3.09252  0.00000 -0.18505
       5     C     3.11343  3.11343  0.00000 -0.22685
       6     H     0.41479  0.41479  0.00000  0.17042
       7     C     3.07917  3.07917  0.00000 -0.15833
       8     H     0.42604  0.42604  0.00000  0.14792
       9     C     3.08532  3.08532  0.00000 -0.17064
      10     H     0.41052  0.41052  0.00000  0.17896
      11     C     2.97352  2.97352  0.00000  0.05296
      12     H     0.41055  0.41055  0.00000  0.17891
      13    BR    17.56625 17.56625  0.00000 -0.13250

   Total alpha = 42.00000, Total beta = 42.00000, Total charge =  0.00000

*** Psi4 exiting successfully. Buy a developer a beer!
