                              Psi4 1.0.54 Driver

  ==> Input File <==

--------------------------------------------------------------------------
set {
	reference rhf
	basis cc-pvtz
}

set_num_threads( 4 )
memory 2 gb

molecule MOL {
0 1

H	 0.900624	 -0.749983	 2.144203
C	 -0.048471	 -0.826000	 1.634153
O	 0.000000	 0.000000	 0.518769
H	 -0.213346	 -1.864417	 1.354221
H	 -0.838926	 -0.525311	 2.318713
C	 -1.165153	 0.000000	 -0.236961
H	 -1.229451	 0.882440	 -0.870223
H	 -2.002557	 0.000000	 0.445289
H	 -1.229451	 -0.882440	 -0.870223

	symmetry c1
}
set optking {
	frozen_dihedral = ("
		2 3 6 7
	")
}

ee,wfn = optimize('scf', return_wfn=True)
oeprop( wfn, 'DIPOLE', 'QUADRUPOLE', 'MULLIKEN_CHARGES')
f=open( 'psi4out.xyz', 'w' )
f.write( "9  " )
f.write( str(ee) + "\n" )
f.write( MOL.save_string_xyz() )
f.close()
--------------------------------------------------------------------------

    Molecular point group: c1
  Charge       = 0
  Multiplicity = 1
  Basis Set: CC-PVTZ
  Basis Set:
  @DF-RHF Final Energy:  -154.12529437972495
    Total Energy =                       -154.1252943797249770
    Molecular point group: c1
  Basis Set: CC-PVTZ
  Basis Set:
  Basis Set: CC-PVTZ
  Basis Set:
  @DF-RHF Final Energy:  -154.12359887416778
    Total Energy =                       -154.1235988741678113
  Basis Set: CC-PVTZ
  Basis Set:
  Basis Set: CC-PVTZ
  Basis Set:
  @DF-RHF Final Energy:  -154.12623697036275
    Total Energy =                       -154.1262369703628394
  Basis Set: CC-PVTZ
  Basis Set:
  Basis Set: CC-PVTZ
  Basis Set:
  @DF-RHF Final Energy:  -154.12628415107858
    Total Energy =                       -154.1262841510784654
  Basis Set: CC-PVTZ
  Basis Set:
  Charge       = 0
  Multiplicity = 1
  Basis Set: CC-PVTZ
  Basis Set:

    Orbital Energies (a.u.)
    -----------------------

    Doubly Occupied:

       1A    -20.549524     2A    -11.263348     3A    -11.263062
       4A     -1.381638     5A     -0.975851     6A     -0.872739
       7A     -0.663273     8A     -0.655249     9A     -0.646496
      10A     -0.554277    11A     -0.528447    12A     -0.476307
      13A     -0.419388

  @DF-RHF Final Energy:  -154.12628495366556

   => Energetics <=

    Nuclear Repulsion Energy =             84.7946766660151212
    One-Electron Energy =                -377.3427254029177220
    Two-Electron Energy =                 138.4217637832370542
    DFT Exchange-Correlation Energy =       0.0000000000000000
    Empirical Dispersion Energy =           0.0000000000000000
    PCM Polarization Energy =               0.0000000000000000
    EFP Energy =                            0.0000000000000000
    Total Energy =                       -154.1262849536655608
    Molecular point group: c1
  Basis Set: CC-PVTZ
  Basis Set:

  -Total Gradient:
     Atom            X                  Y                   Z
    ------   -----------------  -----------------  -----------------
       1        0.000018947878     0.000017243619    -0.000027178892
       2       -0.000580034544     0.001686868285     0.000921059447
       3        0.000451689920    -0.002064247297    -0.000842866999
       4        0.000010907557     0.000025816262    -0.000039128252
       5       -0.000000200669     0.000022181354    -0.000030205874
       6        0.001111932761    -0.001312979491    -0.001537079048
       7       -0.001042906535     0.001639281110     0.001522098553
       8        0.000027771983    -0.000005348803     0.000031407928
       9        0.000001891649    -0.000008815038     0.000001893137

  **** Optimization is complete! (in 5 steps) ****
    Final optimized geometry and variables:
    Molecular point group: c1

    Geometry (in Angstrom), charge = 0, multiplicity = 1:

    H            1.165867956150    -0.431543259548     1.633794069917
    C            0.236560256212    -0.438578416839     1.082792417278
    O            0.458359588653     0.196926644387    -0.132244924449
    H           -0.078713428671    -1.471176587096     0.945290647047
    H           -0.522029365253     0.077342881514     1.667048817029
    C           -0.654489563821     0.257190868829    -0.963176001815
    H           -0.492212998153     1.045433082429    -1.684661545662
    H           -1.555417124424     0.497855048396    -0.402992313726
    H           -0.815781667339    -0.683529458750    -1.483908922500

  Mulliken Charges: (a.u.)
   Center  Symbol    Alpha    Beta     Spin     Total
       1     H     0.44879  0.44879  0.00000  0.10242
       2     C     3.02177  3.02177  0.00000 -0.04353
       3     O     4.16865  4.16865  0.00000 -0.33730
       4     H     0.47377  0.47377  0.00000  0.05245
       5     H     0.47204  0.47204  0.00000  0.05592
       6     C     3.02031  3.02031  0.00000 -0.04062
       7     H     0.45012  0.45012  0.00000  0.09976
       8     H     0.47601  0.47601  0.00000  0.04798
       9     H     0.46854  0.46854  0.00000  0.06292

   Total alpha = 13.00000, Total beta = 13.00000, Total charge =  0.00000

*** Psi4 exiting successfully. Buy a developer a beer!
