  ==> Input File <==

--------------------------------------------------------------------------
set {
	reference rhf
	basis cc-pvtz
}

set_num_threads( 4 )
memory 2 gb

molecule MOL {
0 1

H	 -2.266619	 1.169943	 0.000098
O	 -1.438073	 1.611259	 0.000041
C	 -0.408657	 0.734701	 0.000005
C	 -0.545767	 -0.389610	 -0.792796
C	 0.739510	 0.940529	 0.755954
H	 -1.446825	 -0.512119	 -1.361141
C	 0.465253	 -1.325818	 -0.840967
C	 1.739078	 -0.016452	 0.688283
C	 0.887608	 2.167987	 1.620603
H	 0.351791	 -2.196187	 -1.458677
C	 1.616170	 -1.143995	 -0.098835
H	 2.632738	 0.128005	 1.266619
H	 0.111943	 2.222558	 2.379343
H	 1.838614	 2.161083	 2.133419
H	 0.843383	 3.081666	 1.034464
H	 2.406780	 -1.868045	 -0.131350

	symmetry c1
}
set optking {
	frozen_dihedral = ("
		4 3 2 1
	")
}

ee = optimize('scf')
oeprop('DIPOLE', 'QUADRUPOLE', 'MULLIKEN_CHARGES')
f=open( 'psi4out.xyz', 'w' )
f.write( "16  " )
f.write( str(ee) + "\n" )
f.write( MOL.save_string_xyz() )
f.close()
--------------------------------------------------------------------------

    Molecular point group: c1
  Charge       = 0
  Multiplicity = 1
  Basis Set: CC-PVTZ
  Basis Set:
  @DF-RHF Final Energy:  -344.71651931668447
    Total Energy =                       -344.7165193166842982
    Molecular point group: c1
  Basis Set: CC-PVTZ
  Basis Set:
  Basis Set: CC-PVTZ
  Basis Set:
  @DF-RHF Final Energy:  -344.71839164648998
    Total Energy =                       -344.7183916464903746
  Basis Set: CC-PVTZ
  Basis Set:
  Basis Set: CC-PVTZ
  Basis Set:
  @DF-RHF Final Energy:  -344.71853075883280
    Total Energy =                       -344.7185307588326850
  Basis Set: CC-PVTZ
  Basis Set:
  Basis Set: CC-PVTZ
  Basis Set:
  @DF-RHF Final Energy:  -344.71854205773894
    Total Energy =                       -344.7185420577385457
  Basis Set: CC-PVTZ
  Basis Set:
  Basis Set: CC-PVTZ
  Basis Set:
  @DF-RHF Final Energy:  -344.71854493956613
    Total Energy =                       -344.7185449395662999
  Basis Set: CC-PVTZ
  Basis Set:
  Charge       = 0
  Multiplicity = 1
  Basis Set: CC-PVTZ
  Basis Set:

    Orbital Energies (a.u.)
    -----------------------

    Doubly Occupied:

       1A    -20.577754     2A    -11.288023     3A    -11.230070
       4A    -11.228365     5A    -11.225819     6A    -11.223685
       7A    -11.219080     8A    -11.213503     9A     -1.406345
      10A     -1.153050    11A     -1.047351    12A     -1.006419
      13A     -0.932400    14A     -0.843795    15A     -0.803298
      16A     -0.734129    17A     -0.673468    18A     -0.655469
      19A     -0.618447    20A     -0.596842    21A     -0.575900
      22A     -0.562881    23A     -0.543993    24A     -0.537039
      25A     -0.502297    26A     -0.485667    27A     -0.473892
      28A     -0.333450    29A     -0.313381

  @DF-RHF Final Energy:  -344.71854509296071

   => Energetics <=

    Nuclear Repulsion Energy =            350.7695228866755883
    One-Electron Energy =               -1162.9645119277722642
    Two-Electron Energy =                 467.4764439481359659
    DFT Exchange-Correlation Energy =       0.0000000000000000
    Empirical Dispersion Energy =           0.0000000000000000
    PCM Polarization Energy =               0.0000000000000000
    EFP Energy =                            0.0000000000000000
    Total Energy =                       -344.7185450929607669
    Molecular point group: c1
  Basis Set: CC-PVTZ
  Basis Set:

  -Total Gradient:
     Atom            X                  Y                   Z
    ------   -----------------  -----------------  -----------------
       1        0.000016988447    -0.000101216700     0.002590625287
       2        0.000383550234     0.000669477213    -0.004015201377
       3       -0.001268400200    -0.001543523437     0.002881885157
       4        0.000828288051     0.000978405759    -0.001466109918
       5       -0.000011608508    -0.000010675929     0.000014842817
       6        0.000003522784    -0.000000659654     0.000002662617
       7        0.000005173528    -0.000005709956    -0.000012272143
       8        0.000025901717     0.000018840495    -0.000030676508
       9        0.000018706271     0.000001010271    -0.000003375849
      10        0.000005439596     0.000000641665     0.000001776157
      11       -0.000004812649     0.000004591822     0.000034718926
      12        0.000001584975    -0.000000573794     0.000005760926
      13       -0.000001180600    -0.000006440477    -0.000001487045
      14        0.000000623623     0.000001555649    -0.000000757662
      15       -0.000001944547    -0.000003218852     0.000000515766
      16       -0.000001832726    -0.000002504071    -0.000002907149

  **** Optimization is complete! (in 6 steps) ****
    Final optimized geometry and variables:
    Molecular point group: c1

    Geometry (in Angstrom), charge = 0, multiplicity = 1:

    H           -2.574660249643     0.882496934881    -0.149027276511
    O           -1.721260385376     1.276514393022    -0.137350870350
    C           -0.749754181969     0.325424198388    -0.178629456732
    C           -0.876791286215    -0.789892386647    -0.981513087806
    C            0.402429228016     0.545783035148     0.567630121025
    H           -1.767716318559    -0.920107661024    -1.567929259853
    C            0.139105178484    -1.726627504046    -1.032305322563
    C            1.408863197294    -0.399667329134     0.489663511006
    C            0.534003863171     1.778889819324     1.422585522761
    H            0.030985735699    -2.595284993816    -1.653168827018
    C            1.287542455676    -1.532798620299    -0.296042422585
    H            2.306187474804    -0.248861603704     1.060373481416
    H           -0.262813853098     1.833424618322     2.154286466445
    H            1.480029733044     1.779248942266     1.947045824111
    H            0.476313045553     2.679040291821     0.822723562151
    H            2.084433980517    -2.250105678685    -0.331914677270

  Mulliken Charges: (a.u.)
   Center  Symbol    Alpha    Beta     Spin     Total
       1     H     0.38519  0.38519  0.00000  0.22961
       2     O     4.18274  4.18274  0.00000 -0.36548
       3     C     2.87504  2.87504  0.00000  0.24993
       4     C     3.12523  3.12523  0.00000 -0.25047
       5     C     2.99425  2.99425  0.00000  0.01151
       6     H     0.42964  0.42964  0.00000  0.14071
       7     C     3.07382  3.07382  0.00000 -0.14764
       8     C     3.08652  3.08652  0.00000 -0.17305
       9     C     3.14018  3.14018  0.00000 -0.28036
      10     H     0.42257  0.42257  0.00000  0.15485
      11     C     3.08619  3.08619  0.00000 -0.17238
      12     H     0.42490  0.42490  0.00000  0.15020
      13     H     0.44929  0.44929  0.00000  0.10143
      14     H     0.45402  0.45402  0.00000  0.09195
      15     H     0.44580  0.44580  0.00000  0.10841
      16     H     0.42462  0.42462  0.00000  0.15076

   Total alpha = 29.00000, Total beta = 29.00000, Total charge =  0.00000
