                              Psi4 1.0.54 Driver

  ==> Input File <==

--------------------------------------------------------------------------
set {
	reference rhf
	basis cc-pvtz
}

set_num_threads( 4 )
memory 2 gb

molecule MOL {
0 1

H	 1.003207	 2.515850	 -0.333557
O	 1.266951	 1.871470	 0.298634
C	 0.706474	 0.636793	 -0.025501
C	 -0.793473	 0.591216	 0.050087
H	 1.120681	 -0.080873	 0.672848
H	 1.018138	 0.318096	 -1.018474
C	 -1.534243	 -0.493009	 -0.013340
H	 -1.266611	 1.552628	 0.164437
H	 -1.101195	 -1.466332	 -0.144046
H	 -2.604242	 -0.437780	 0.050785

	symmetry c1
}
set optking {
	frozen_dihedral = ("
		5 3 4 7
	")
}

ee,wfn = optimize('scf', return_wfn=True)
oeprop( wfn, 'DIPOLE', 'QUADRUPOLE', 'MULLIKEN_CHARGES')
f=open( 'psi4out.xyz', 'w' )
f.write( "10  " )
f.write( str(ee) + "\n" )
f.write( MOL.save_string_xyz() )
f.close()
--------------------------------------------------------------------------

    Molecular point group: c1
  Charge       = 0
  Multiplicity = 1
  Basis Set: CC-PVTZ
  Basis Set:
  @DF-RHF Final Energy:  -191.99422224690480
    Total Energy =                       -191.9942222469047124
    Molecular point group: c1
  Basis Set: CC-PVTZ
  Basis Set:
  Basis Set: CC-PVTZ
  Basis Set:
  @DF-RHF Final Energy:  -191.99463702208934
    Total Energy =                       -191.9946370220893073
  Basis Set: CC-PVTZ
  Basis Set:
  Basis Set: CC-PVTZ
  Basis Set:
  @DF-RHF Final Energy:  -191.99468249393789
    Total Energy =                       -191.9946824939379439
  Basis Set: CC-PVTZ
  Basis Set:
  Basis Set: CC-PVTZ
  Basis Set:
  @DF-RHF Final Energy:  -191.99468933251927
    Total Energy =                       -191.9946893325192150
  Basis Set: CC-PVTZ
  Basis Set:
  Charge       = 0
  Multiplicity = 1
  Basis Set: CC-PVTZ
  Basis Set:

    Orbital Energies (a.u.)
    -----------------------

    Doubly Occupied:

       1A    -20.553695     2A    -11.277195     3A    -11.230489
       4A    -11.218294     5A     -1.372813     6A     -1.064983
       7A     -0.923117     8A     -0.779099     9A     -0.702481
      10A     -0.643786    11A     -0.625927    12A     -0.582183
      13A     -0.530122    14A     -0.507159    15A     -0.449421
      16A     -0.368043

  @DF-RHF Final Energy:  -191.99469020105931

   => Energetics <=

    Nuclear Repulsion Energy =            117.0781613144321653
    One-Electron Energy =                -492.4880884822929374
    Two-Electron Energy =                 183.4152369668015012
    DFT Exchange-Correlation Energy =       0.0000000000000000
    Empirical Dispersion Energy =           0.0000000000000000
    PCM Polarization Energy =               0.0000000000000000
    EFP Energy =                            0.0000000000000000
    Total Energy =                       -191.9946902010592567
    Molecular point group: c1
  Basis Set: CC-PVTZ
  Basis Set:

  -Total Gradient:
     Atom            X                  Y                   Z
    ------   -----------------  -----------------  -----------------
       1       -0.000030414807     0.000019353542    -0.000033604782
       2        0.000068770351     0.000021975038     0.000066204288
       3       -0.000065647340    -0.000636689616    -0.000890242075
       4        0.000038884476     0.000010505530     0.000941164951
       5       -0.000000649186     0.000458911550     0.000452291951
       6       -0.000015674470     0.000036903253     0.000013393210
       7        0.000034518598     0.000101852488    -0.000523550042
       8       -0.000008905524     0.000003730835     0.000000843973
       9       -0.000012561934    -0.000004272366    -0.000007420702
      10       -0.000008320160    -0.000012270252    -0.000019080773

  **** Optimization is complete! (in 5 steps) ****
    Final optimized geometry and variables:
    Molecular point group: c1

    Geometry (in Angstrom), charge = 0, multiplicity = 1:

    H            1.085049634980     1.794816495451    -0.418011485279
    O            1.272897486445     1.155649692708     0.244940262228
    C            0.732188101992    -0.084946491617    -0.114829500986
    C           -0.775953294387    -0.108689520567    -0.026998243645
    H            1.154410248200    -0.805961324089     0.570791964861
    H            1.049476519708    -0.362595175167    -1.116031767848
    C           -1.516181157251    -1.192565144863    -0.091368381391
    H           -1.246967458659     0.853008672352     0.086138326707
    H           -1.082872319498    -2.172131646271    -0.194841179202
    H           -2.586889512561    -1.142876581776    -0.038799247326

  Mulliken Charges: (a.u.)
   Center  Symbol    Alpha    Beta     Spin     Total
       1     H     0.39264  0.39264  0.00000  0.21473
       2     O     4.20335  4.20335  0.00000 -0.40669
       3     C     2.95125  2.95125  0.00000  0.09751
       4     C     3.07971  3.07971  0.00000 -0.15942
       5     H     0.45015  0.45015  0.00000  0.09970
       6     H     0.46512  0.46512  0.00000  0.06975
       7     C     3.17416  3.17416  0.00000 -0.34833
       8     H     0.42271  0.42271  0.00000  0.15457
       9     H     0.43292  0.43292  0.00000  0.13417
      10     H     0.42799  0.42799  0.00000  0.14402

   Total alpha = 16.00000, Total beta = 16.00000, Total charge =  0.00000

*** Psi4 exiting successfully. Buy a developer a beer!
