                              Psi4 1.0.54 Driver

  ==> Input File <==

--------------------------------------------------------------------------
set {
	reference rhf
	basis cc-pvtz
}

set_num_threads( 4 )
memory 2 gb

molecule MOL {
0 1

H	 1.867651	 1.723827	 -0.071159
O	 0.986576	 1.381144	 -0.074480
C	 1.050374	 0.054877	 0.000135
C	 -0.318151	 -0.570512	 0.000144
O	 2.080034	 -0.523417	 0.057967
C	 -1.454884	 0.441630	 -0.000560
H	 -0.371613	 -1.223646	 -0.864985
H	 -0.371920	 -1.222758	 0.865929
C	 -2.822577	 -0.232186	 0.000063
H	 -1.359760	 1.084704	 -0.867077
H	 -1.359641	 1.085996	 0.864983
H	 -2.954352	 -0.858985	 -0.875745
H	 -3.615886	 0.505352	 0.000019
H	 -2.953878	 -0.858359	 0.876394

	symmetry c1
}
set optking {
	frozen_dihedral = ("
		2 3 4 7
	")
}

ee,wfn = optimize('scf', return_wfn=True)
oeprop( wfn, 'DIPOLE', 'QUADRUPOLE', 'MULLIKEN_CHARGES')
f=open( 'psi4out.xyz', 'w' )
f.write( "14  " )
f.write( str(ee) + "\n" )
f.write( MOL.save_string_xyz() )
f.close()
--------------------------------------------------------------------------

    Molecular point group: c1
  Charge       = 0
  Multiplicity = 1
  Basis Set: CC-PVTZ
  Basis Set:
  @DF-RHF Final Energy:  -305.99694414502699
    Total Energy =                       -305.9969441450269869
    Molecular point group: c1
  Basis Set: CC-PVTZ
  Basis Set:
  Basis Set: CC-PVTZ
  Basis Set:
  @DF-RHF Final Energy:  -305.99790176693659
    Total Energy =                       -305.9979017669368204
  Basis Set: CC-PVTZ
  Basis Set:
  Basis Set: CC-PVTZ
  Basis Set:
  @DF-RHF Final Energy:  -305.99806713100043
    Total Energy =                       -305.9980671310001981
  Basis Set: CC-PVTZ
  Basis Set:
  Basis Set: CC-PVTZ
  Basis Set:
  @DF-RHF Final Energy:  -305.99817551750010
    Total Energy =                       -305.9981755175002718
  Basis Set: CC-PVTZ
  Basis Set:
  Basis Set: CC-PVTZ
  Basis Set:
  @DF-RHF Final Energy:  -305.99826026735775
    Total Energy =                       -305.9982602673578640
  Basis Set: CC-PVTZ
  Basis Set:
  Charge       = 0
  Multiplicity = 1
  Basis Set: CC-PVTZ
  Basis Set:

    Orbital Energies (a.u.)
    -----------------------

    Doubly Occupied:

       1A    -20.607477     2A    -20.536349     3A    -11.374628
       4A    -11.240170     5A    -11.228094     6A    -11.217747
       7A     -1.479435     8A     -1.368111     9A     -1.086254
      10A     -0.979143    11A     -0.848375    12A     -0.821453
      13A     -0.703640    14A     -0.681140    15A     -0.670420
      16A     -0.619076    17A     -0.593016    18A     -0.565178
      19A     -0.550212    20A     -0.527937    21A     -0.497373
      22A     -0.494943    23A     -0.469874    24A     -0.439939

  @DF-RHF Final Energy:  -305.99826276188719

   => Energetics <=

    Nuclear Repulsion Energy =            240.8392886720096442
    One-Electron Energy =                -894.4751317457845516
    Two-Electron Energy =                 347.6375803118877457
    DFT Exchange-Correlation Energy =       0.0000000000000000
    Empirical Dispersion Energy =           0.0000000000000000
    PCM Polarization Energy =               0.0000000000000000
    EFP Energy =                            0.0000000000000000
    Total Energy =                       -305.9982627618871902
    Molecular point group: c1
  Basis Set: CC-PVTZ
  Basis Set:

  -Total Gradient:
     Atom            X                  Y                   Z
    ------   -----------------  -----------------  -----------------
       1       -0.000027654870    -0.000041818440    -0.000000606360
       2        0.000017349528     0.000025344404     0.000142226866
       3       -0.000007705916    -0.000050486654    -0.000164380886
       4       -0.000023751174     0.000217422152    -0.000064336338
       5        0.000044148294     0.000011150062    -0.000006613158
       6       -0.000003741765    -0.000013211542    -0.000017176232
       7        0.000042817591    -0.000139699478     0.000102293575
       8       -0.000001552294    -0.000019660557     0.000004469673
       9       -0.000021704063     0.000018603388     0.000004269601
      10       -0.000012089567    -0.000001063862     0.000011481478
      11       -0.000006973684    -0.000006241290    -0.000012154564
      12        0.000005764956     0.000005684956    -0.000002120105
      13       -0.000008558570    -0.000007465771     0.000000151101
      14        0.000003651532     0.000001442634     0.000002495349

  **** Optimization is complete! (in 6 steps) ****
    Final optimized geometry and variables:
    Molecular point group: c1

    Geometry (in Angstrom), charge = 0, multiplicity = 1:

    H            2.127500619733     1.441820791735     0.058122284761
    O            1.209989193024     1.218497684833     0.007432577986
    C            1.104144252317    -0.103614281017     0.051139890654
    C           -0.312633251728    -0.618353458543    -0.027872430579
    O            2.052665903185    -0.805465357450     0.140475941721
    C           -1.429110753572     0.419517424541    -0.051669700033
    H           -0.349292774417    -1.243888059916    -0.913468753258
    H           -0.428670364471    -1.293077841541     0.812591625527
    C           -2.805287724675    -0.233525074747    -0.123799340147
    H           -1.293687881806     1.080979847381    -0.898777662057
    H           -1.366356446096     1.041392747577     0.833626860363
    H           -2.907603649494    -0.837873786519    -1.018917966017
    H           -3.587953904215     0.515185687367    -0.139451006994
    H           -2.980768252829    -0.877895007208     0.731097215053

  Mulliken Charges: (a.u.)
   Center  Symbol    Alpha    Beta     Spin     Total
       1     H     0.38526  0.38526  0.00000  0.22948
       2     O     4.14887  4.14887  0.00000 -0.29773
       3     C     2.81159  2.81159  0.00000  0.37682
       4     C     3.09866  3.09866  0.00000 -0.19733
       5     O     4.19803  4.19803  0.00000 -0.39606
       6     C     3.08351  3.08351  0.00000 -0.16702
       7     H     0.43788  0.43788  0.00000  0.12424
       8     H     0.43660  0.43660  0.00000  0.12681
       9     C     3.15197  3.15197  0.00000 -0.30395
      10     H     0.44638  0.44638  0.00000  0.10724
      11     H     0.44697  0.44697  0.00000  0.10605
      12     H     0.45451  0.45451  0.00000  0.09098
      13     H     0.44537  0.44537  0.00000  0.10925
      14     H     0.45439  0.45439  0.00000  0.09122

   Total alpha = 24.00000, Total beta = 24.00000, Total charge =  0.00000

*** Psi4 exiting successfully. Buy a developer a beer!
