                              Psi4 1.0.54 Driver

  ==> Input File <==

--------------------------------------------------------------------------
set {
	reference rhf
	basis cc-pvtz
}

set_num_threads( 4 )
memory 2 gb

molecule MOL {
0 1

H	 1.213523	 1.588582	 -0.804214
O	 0.406379	 1.098417	 -0.845721
C	 0.489979	 0.078084	 0.002623
C	 -0.763662	 -0.754014	 0.000816
O	 1.449204	 -0.113291	 0.666833
C	 -2.038001	 0.074705	 -0.000833
H	 -0.712945	 -1.405886	 -0.864342
H	 -0.715137	 -1.405770	 0.866182
H	 -2.087267	 0.710831	 -0.874232
H	 -2.903419	 -0.576199	 -0.001922
H	 -2.089467	 0.710909	 0.872389

	symmetry c1
}
set optking {
	frozen_dihedral = ("
		2 3 4 7
	")
}

ee,wfn = optimize('scf', return_wfn=True)
oeprop( wfn, 'DIPOLE', 'QUADRUPOLE', 'MULLIKEN_CHARGES')
f=open( 'psi4out.xyz', 'w' )
f.write( "11  " )
f.write( str(ee) + "\n" )
f.write( MOL.save_string_xyz() )
f.close()
--------------------------------------------------------------------------

    Molecular point group: c1
  Charge       = 0
  Multiplicity = 1
  Basis Set: CC-PVTZ
  Basis Set:
  @DF-RHF Final Energy:  -266.95092039530419
    Total Energy =                       -266.9509203953041379
    Molecular point group: c1
  Basis Set: CC-PVTZ
  Basis Set:
  Basis Set: CC-PVTZ
  Basis Set:
  @DF-RHF Final Energy:  -266.95083784942801
    Total Energy =                       -266.9508378494281260
  Basis Set: CC-PVTZ
  Basis Set:
  Basis Set: CC-PVTZ
  Basis Set:
  @DF-RHF Final Energy:  -266.92654885063075
    Total Energy =                       -266.9265488506307520
  Basis Set: CC-PVTZ
  Basis Set:
  Basis Set: CC-PVTZ
  Basis Set:
  @DF-RHF Final Energy:  -266.95080080289864
    Total Energy =                       -266.9508008028988115
  Basis Set: CC-PVTZ
  Basis Set:
  Basis Set: CC-PVTZ
  Basis Set:
  @DF-RHF Final Energy:  -266.95131999718257
    Total Energy =                       -266.9513199971825657
  Basis Set: CC-PVTZ
  Basis Set:
  Basis Set: CC-PVTZ
  Basis Set:
  @DF-RHF Final Energy:  -266.95132556219153
    Total Energy =                       -266.9513255621914141
  Basis Set: CC-PVTZ
  Basis Set:
  Charge       = 0
  Multiplicity = 1
  Basis Set: CC-PVTZ
  Basis Set:

    Orbital Energies (a.u.)
    -----------------------

    Doubly Occupied:

       1A    -20.606304     2A    -20.539552     3A    -11.374128
       4A    -11.242612     5A    -11.225794     6A     -1.478963
       7A     -1.369115     8A     -1.068288     9A     -0.912233
      10A     -0.823811    11A     -0.705828    12A     -0.683926
      13A     -0.653353    14A     -0.608026    15A     -0.592328
      16A     -0.551927    17A     -0.527172    18A     -0.512460
      19A     -0.480802    20A     -0.443593

  @DF-RHF Final Energy:  -266.95132815374950

   => Energetics <=

    Nuclear Repulsion Energy =            180.3987870414599399
    One-Electron Energy =                -721.8998003492019961
    Two-Electron Energy =                 274.5496851539925842
    DFT Exchange-Correlation Energy =       0.0000000000000000
    Empirical Dispersion Energy =           0.0000000000000000
    PCM Polarization Energy =               0.0000000000000000
    EFP Energy =                            0.0000000000000000
    Total Energy =                       -266.9513281537494436
    Molecular point group: c1
  Basis Set: CC-PVTZ
  Basis Set:

  -Total Gradient:
     Atom            X                  Y                   Z
    ------   -----------------  -----------------  -----------------
       1        0.000002411384     0.000001999688     0.000005135359
       2       -0.000237063325     0.000440957900     0.000286805120
       3        0.000285223600    -0.000643053718    -0.000328295955
       4       -0.000219630988     0.000710023069    -0.000466893291
       5        0.000045989681    -0.000035740397     0.000032977765
       6        0.000012988980     0.000012673843     0.000007479662
       7        0.000111053411    -0.000492901292     0.000481711678
       8        0.000011597623    -0.000026077655     0.000024595127
       9       -0.000004819719     0.000039886258    -0.000030668474
      10       -0.000007561998    -0.000005187500    -0.000005221617
      11       -0.000000188648    -0.000002580196    -0.000007625374

  **** Optimization is complete! (in 7 steps) ****
    Final optimized geometry and variables:
    Molecular point group: c1

    Geometry (in Angstrom), charge = 0, multiplicity = 1:

    H            1.752558904270     1.069376883532    -0.518815021149
    O            0.869678741341     0.790651635573    -0.710399419304
    C            0.519335270436    -0.129448239931     0.182581641826
    C           -0.864736200090    -0.678414481079    -0.045483450578
    O            1.250638684499    -0.477413659641     1.044607919374
    C           -1.916525261489     0.364379545390    -0.413618821927
    H           -0.775004934517    -1.415167307194    -0.838138833700
    H           -1.135568901469    -1.211882034533     0.853658791428
    H           -1.671260218831     0.863549626533    -1.340261173759
    H           -2.881013700573    -0.113788322273    -0.528471180905
    H           -2.008319720294     1.117075360911     0.360379769838

  Mulliken Charges: (a.u.)
   Center  Symbol    Alpha    Beta     Spin     Total
       1     H     0.38054  0.38054  0.00000  0.23893
       2     O     4.16079  4.16079  0.00000 -0.32157
       3     C     2.80489  2.80489  0.00000  0.39022
       4     C     3.09164  3.09164  0.00000 -0.18328
       5     O     4.19377  4.19377  0.00000 -0.38754
       6     C     3.14501  3.14501  0.00000 -0.29002
       7     H     0.44521  0.44521  0.00000  0.10957
       8     H     0.43435  0.43435  0.00000  0.13129
       9     H     0.44526  0.44526  0.00000  0.10948
      10     H     0.44807  0.44807  0.00000  0.10387
      11     H     0.45048  0.45048  0.00000  0.09904

   Total alpha = 20.00000, Total beta = 20.00000, Total charge =  0.00000

*** Psi4 exiting successfully. Buy a developer a beer!
