  ==> Input File <==

--------------------------------------------------------------------------
set {
	reference rhf
	basis cc-pvtz
}

set_num_threads( 4 )
memory 2 gb

molecule MOL {
0 1

H	 -4.082671	 0.305860	 0.970942
O	 -3.370356	 -0.248173	 0.710462
C	 -2.302264	 0.528872	 0.237390
C	 -1.175688	 -0.398187	 -0.171891
H	 -2.616038	 1.129130	 -0.614084
H	 -1.957104	 1.212374	 1.010383
C	 0.196029	 0.106276	 0.266738
H	 -1.201873	 -0.515469	 -1.250677
H	 -1.365975	 -1.378728	 0.252664
C	 1.330220	 -0.826136	 -0.155230
H	 0.359542	 1.097229	 -0.145561
H	 0.212134	 0.218135	 1.348778
C	 2.719700	 -0.407669	 0.328325
H	 1.339388	 -0.911200	 -1.239363
H	 1.119001	 -1.821953	 0.224128
C	 3.241564	 0.893452	 -0.276737
H	 3.418299	 -1.204729	 0.093035
H	 2.711776	 -0.323368	 1.411960
H	 3.254204	 0.841071	 -1.360784
H	 2.634460	 1.745075	 0.005842
H	 4.254264	 1.092401	 0.054971

	symmetry c1
}
set optking {
	frozen_dihedral = ("
		2 3 4 8
	")
}

ee = optimize('scf')
oeprop('DIPOLE', 'QUADRUPOLE', 'MULLIKEN_CHARGES')
f=open( 'psi4out.xyz', 'w' )
f.write( "21  " )
f.write( str(ee) + "\n" )
f.write( MOL.save_string_xyz() )
f.close()
--------------------------------------------------------------------------

    Molecular point group: c1
  Charge       = 0
  Multiplicity = 1
  Basis Set: CC-PVTZ
  Basis Set:
  @DF-RHF Final Energy:  -310.32814976235011
    Total Energy =                       -310.3281497623498240
    Molecular point group: c1
  Basis Set: CC-PVTZ
  Basis Set:
  Basis Set: CC-PVTZ
  Basis Set:
  @DF-RHF Final Energy:  -310.32849375633663
    Total Energy =                       -310.3284937563366839
  Basis Set: CC-PVTZ
  Basis Set:
  Basis Set: CC-PVTZ
  Basis Set:
  @DF-RHF Final Energy:  -310.32857622244683
    Total Energy =                       -310.3285762224467135
  Basis Set: CC-PVTZ
  Basis Set:
  Charge       = 0
  Multiplicity = 1
  Basis Set: CC-PVTZ
  Basis Set:

    Orbital Energies (a.u.)
    -----------------------

    Doubly Occupied:

       1A    -20.545212     2A    -11.265249     3A    -11.212593
       4A    -11.212118     5A    -11.210426     6A    -11.209056
       7A    -11.205822     8A     -1.362379     9A     -1.086248
      10A     -1.032688    11A     -0.954253    12A     -0.876329
      13A     -0.807945    14A     -0.778676    15A     -0.702005
      16A     -0.649481    17A     -0.629154    18A     -0.603618
      19A     -0.586593    20A     -0.574250    21A     -0.536359
      22A     -0.523444    23A     -0.509658    24A     -0.485658
      25A     -0.483525    26A     -0.460720    27A     -0.455228
      28A     -0.445774    29A     -0.430658

  @DF-RHF Final Energy:  -310.32857622408778

   => Energetics <=

    Nuclear Repulsion Energy =            312.9314860208933169
    One-Electron Energy =               -1040.8498925937296917
    Two-Electron Energy =                 417.5898303487487624
    DFT Exchange-Correlation Energy =       0.0000000000000000
    Empirical Dispersion Energy =           0.0000000000000000
    PCM Polarization Energy =               0.0000000000000000
    EFP Energy =                            0.0000000000000000
    Total Energy =                       -310.3285762240876124
    Molecular point group: c1
  Basis Set: CC-PVTZ
  Basis Set:

  -Total Gradient:
     Atom            X                  Y                   Z
    ------   -----------------  -----------------  -----------------
       1       -0.000029007547     0.000019304140     0.000024828865
       2        0.001096055589     0.000181713276     0.002697992052
       3       -0.000922268213     0.000515171849    -0.003594062512
       4       -0.002527260641    -0.003819050173     0.001286842954
       5       -0.000019062797    -0.000023679057     0.000010326187
       6        0.000025005580    -0.000002698310     0.000008625414
       7       -0.000055508320    -0.000008035427    -0.000046854361
       8        0.002398660340     0.003051490987    -0.000414286728
       9       -0.000033736059     0.000034073615     0.000016408060
      10        0.000005261438     0.000054828746    -0.000038666126
      11       -0.000041371797    -0.000071873295    -0.000006380684
      12        0.000010110806     0.000055250678     0.000029395687
      13       -0.000035443965     0.000034649226     0.000078686659
      14       -0.000009937436     0.000033687749    -0.000008826409
      15        0.000024762792    -0.000021511900    -0.000034781583
      16        0.000037742949    -0.000011214502    -0.000015733516
      17        0.000014512505    -0.000005021268     0.000030008757
      18       -0.000012932475     0.000027323440     0.000000793632
      19       -0.000014410687     0.000013223926    -0.000017860410
      20        0.000083130146    -0.000035610026     0.000012348196
      21        0.000005697791    -0.000022023673    -0.000018804134

  **** Optimization is complete! (in 4 steps) ****
    Final optimized geometry and variables:
    Molecular point group: c1

    Geometry (in Angstrom), charge = 0, multiplicity = 1:

    H           -4.143367376802     0.370279744418     0.758214750358
    O           -3.416771865432    -0.193316059064     0.565753608821
    C           -2.331679014742     0.564931798671     0.094494327345
    C           -1.196440151158    -0.381340852013    -0.295056248650
    H           -2.630529015376     1.173459115581    -0.754439920121
    H           -1.993881282897     1.241496248798     0.875800643187
    C            0.179622567488     0.134487356661     0.123807059568
    H           -1.191693738774    -0.525012824860    -1.370669263027
    H           -1.388286100354    -1.342448784899     0.164971692232
    C            1.315151903955    -0.787423124816    -0.314917607775
    H            0.328628792845     1.127990348150    -0.289544694637
    H            0.205215063098     0.246116797583     1.205255701395
    C            2.705071372565    -0.372791648247     0.171034591433
    H            1.322371800283    -0.857593811743    -1.400312818822
    H            1.107239051646    -1.789194601507     0.050753181110
    C            3.226263006153     0.933342467583    -0.423552281391
    H            3.403823589481    -1.167538173051    -0.071495764493
    H            2.697911539776    -0.297567770926     1.255222508607
    H            3.233293537242     0.891938682277    -1.508165150361
    H            2.622205484692     1.783065858365    -0.129134544313
    H            4.241022268501     1.127101123984    -0.095114781849

  Mulliken Charges: (a.u.)
   Center  Symbol    Alpha    Beta     Spin     Total
       1     H     0.39584  0.39584  0.00000  0.20832
       2     O     4.19654  4.19654  0.00000 -0.39307
       3     C     2.96438  2.96438  0.00000  0.07124
       4     C     3.08768  3.08768  0.00000 -0.17536
       5     H     0.47257  0.47257  0.00000  0.05486
       6     H     0.47596  0.47596  0.00000  0.04808
       7     C     3.10139  3.10139  0.00000 -0.20278
       8     H     0.45486  0.45486  0.00000  0.09029
       9     H     0.44410  0.44410  0.00000  0.11180
      10     C     3.09619  3.09619  0.00000 -0.19239
      11     H     0.45368  0.45368  0.00000  0.09265
      12     H     0.45330  0.45330  0.00000  0.09340
      13     C     3.08989  3.08989  0.00000 -0.17978
      14     H     0.45405  0.45405  0.00000  0.09190
      15     H     0.44833  0.44833  0.00000  0.10333
      16     C     3.15227  3.15227  0.00000 -0.30454
      17     H     0.44856  0.44856  0.00000  0.10288
      18     H     0.45458  0.45458  0.00000  0.09084
      19     H     0.45509  0.45509  0.00000  0.08982
      20     H     0.45423  0.45423  0.00000  0.09153
      21     H     0.44651  0.44651  0.00000  0.10697

   Total alpha = 29.00000, Total beta = 29.00000, Total charge = -0.00000
