  ==> Input File <==

--------------------------------------------------------------------------
set {
	reference rhf
	basis 6-31G*
}

set_num_threads( 4 )
memory 2 gb

molecule MOL {
0 1

H	 2.652209	 0.763231	 0.000000
O	 2.263154	 -0.100023	 0.000000
C	 0.912879	 -0.015685	 0.000000
C	 0.261236	 -0.189457	 -1.213979
C	 0.183750	 0.233257	 1.151296
H	 0.845303	 -0.381546	 -2.094761
C	 -1.116984	 -0.112332	 -1.264682
H	 0.689967	 0.367946	 2.092638
C	 -1.199951	 0.308122	 1.085859
H	 -1.616949	 -0.247626	 -2.207240
C	 -1.859054	 0.136707	 -0.117412
H	 -1.758549	 0.501738	 1.984287
H	 -2.931013	 0.195313	 -0.164666

	symmetry c1
}
set optking {
	frozen_dihedral = ("
		4 3 2 1
	")
}

ee = optimize('scf')
oeprop('DIPOLE', 'QUADRUPOLE', 'MULLIKEN_CHARGES')
f=open( 'psi4out.xyz', 'w' )
f.write( "13  " )
f.write( str(ee) + "\n" )
f.write( MOL.save_string_xyz() )
f.close()
--------------------------------------------------------------------------

    Molecular point group: c1
  Charge       = 0
  Multiplicity = 1
  Basis Set: 6-31G*
  Basis Set:
  @DF-RHF Final Energy:  -305.55277453831678
    Total Energy =                       -305.5527745383164415
    Molecular point group: c1
  Basis Set: 6-31G*
  Basis Set:
  Basis Set: 6-31G*
  Basis Set:
  @DF-RHF Final Energy:  -305.55345060610028
    Total Energy =                       -305.5534506061005686
  Basis Set: 6-31G*
  Basis Set:
  Basis Set: 6-31G*
  Basis Set:
  @DF-RHF Final Energy:  -305.55350670407125
    Total Energy =                       -305.5535067040713102
  Basis Set: 6-31G*
  Basis Set:
  Basis Set: 6-31G*
  Basis Set:
  @DF-RHF Final Energy:  -305.55351231837960
    Total Energy =                       -305.5535123183799442
  Basis Set: 6-31G*
  Basis Set:
  Charge       = 0
  Multiplicity = 1
  Basis Set: 6-31G*
  Basis Set:

    Orbital Energies (a.u.)
    -----------------------

    Doubly Occupied:

       1A    -20.576413     2A    -11.288571     3A    -11.234738
       4A    -11.234342     5A    -11.227834     6A    -11.227185
       7A    -11.226255     8A     -1.391193     9A     -1.147555
      10A     -1.017940    11A     -1.003459    12A     -0.835155
      13A     -0.823222    14A     -0.731791    15A     -0.679726
      16A     -0.645079    17A     -0.628096    18A     -0.591047
      19A     -0.588571    20A     -0.521161    21A     -0.513740
      22A     -0.492009    23A     -0.465964    24A     -0.336539
      25A     -0.324172

  @DF-RHF Final Energy:  -305.55351323228791

   => Energetics <=

    Nuclear Repulsion Energy =            272.6263270331984927
    One-Electron Energy =                -954.8561651875807001
    Two-Electron Energy =                 376.6763249220944090
    DFT Exchange-Correlation Energy =       0.0000000000000000
    Empirical Dispersion Energy =           0.0000000000000000
    PCM Polarization Energy =               0.0000000000000000
    EFP Energy =                            0.0000000000000000
    Total Energy =                       -305.5535132322877416
    Molecular point group: c1
  Basis Set: 6-31G*
  Basis Set:

  -Total Gradient:
     Atom            X                  Y                   Z
    ------   -----------------  -----------------  -----------------
       1        0.000045503107     0.000004482929    -0.000661346483
       2        0.000148860672     0.000253211784     0.000743757726
       3       -0.000294993650    -0.000731868025     0.000190296830
       4        0.000048636874     0.000452705144    -0.000198650542
       5        0.000144175853     0.000016471397    -0.000037890952
       6       -0.000023965069    -0.000004107784     0.000027695293
       7        0.000046616105     0.000058469104    -0.000029606230
       8        0.000024507640    -0.000013043924     0.000000838728
       9       -0.000104281527     0.000009929453    -0.000079318273
      10       -0.000039268053    -0.000005780646     0.000007754515
      11       -0.000004133430    -0.000031112157     0.000087971086
      12        0.000011851205    -0.000004422876    -0.000012501161
      13       -0.000003509731    -0.000004934399    -0.000039000537

  **** Optimization is complete! (in 5 steps) ****
    Final optimized geometry and variables:
    Molecular point group: c1

    Geometry (in Angstrom), charge = 0, multiplicity = 1:

    H            2.662596007510     0.715487142798     0.082557300317
    O            2.271867399155    -0.148103075181     0.084120619795
    C            0.905322435138    -0.047733702357     0.034935197107
    C            0.252491135146    -0.227449868308    -1.172870862507
    C            0.183228009737     0.196540922851     1.191220452982
    H            0.832136459651    -0.425982474667    -2.055621967790
    C           -1.130494885394    -0.159107572650    -1.221678563651
    H            0.707178739168     0.318330502961     2.122036987845
    C           -1.199334847577     0.267913795602     1.134366835431
    H           -1.636868408632    -0.301202176511    -2.159758814196
    C           -1.860723667291     0.091021267109    -0.070588502543
    H           -1.758860833310     0.457085981113     2.033070932384
    H           -2.933717166749     0.143857147480    -0.111701559903

  Mulliken Charges: (a.u.)
   Center  Symbol    Alpha    Beta     Spin     Total
       1     H     0.27129  0.27129  0.00000  0.45742
       2     O     4.38830  4.38830  0.00000 -0.77661
       3     C     2.81963  2.81963  0.00000  0.36073
       4     C     3.11721  3.11721  0.00000 -0.23443
       5     C     3.11985  3.11985  0.00000 -0.23969
       6     H     0.39358  0.39358  0.00000  0.21283
       7     C     3.09703  3.09703  0.00000 -0.19407
       8     H     0.39528  0.39528  0.00000  0.20943
       9     C     3.09689  3.09689  0.00000 -0.19378
      10     H     0.39802  0.39802  0.00000  0.20395
      11     C     3.10530  3.10530  0.00000 -0.21060
      12     H     0.39809  0.39809  0.00000  0.20382
      13     H     0.39950  0.39950  0.00000  0.20099

   Total alpha = 25.00000, Total beta = 25.00000, Total charge =  0.00000
