  ==> Input File <==

--------------------------------------------------------------------------
set {
	reference rhf
	basis 6-31G*
}

set_num_threads( 4 )
memory 2 gb

molecule MOL {
0 1

O	 -1.487788	 1.240889	 -0.102860
C	 -1.083277	 0.139568	 0.115197
C	 0.323299	 -0.082943	 0.642902
C	 -1.933017	 -1.084621	 -0.143902
C	 1.355627	 -0.005344	 -0.493127
H	 0.396251	 -1.044647	 1.143147
H	 0.528637	 0.693580	 1.371677
C	 2.699360	 0.546441	 -0.020725
H	 1.502711	 -0.993402	 -0.923684
H	 0.954538	 0.622165	 -1.282114
H	 3.408068	 0.596878	 -0.841017
H	 3.132373	 -0.080000	 0.753805
H	 2.589319	 1.547620	 0.384957
H	 -1.393885	 -1.806447	 -0.750509
H	 -2.850323	 -0.799888	 -0.640100
H	 -2.169004	 -1.571158	 0.798858

	symmetry c1
}
set optking {
	frozen_dihedral = ("
		9 5 3 2
	")
}

ee = optimize('scf')
oeprop('DIPOLE', 'QUADRUPOLE', 'MULLIKEN_CHARGES')
f=open( 'psi4out.xyz', 'w' )
f.write( "16  " )
f.write( str(ee) + "\n" )
f.write( MOL.save_string_xyz() )
f.close()
--------------------------------------------------------------------------

    Molecular point group: c1
  Charge       = 0
  Multiplicity = 1
  Basis Set: 6-31G*
  Basis Set:
  @DF-RHF Final Energy:  -270.02716734622618
    Total Energy =                       -270.0271673462261788
    Molecular point group: c1
  Basis Set: 6-31G*
  Basis Set:
  Basis Set: 6-31G*
  Basis Set:
  @DF-RHF Final Energy:  -270.02745338211844
    Total Energy =                       -270.0274533821184377
  Basis Set: 6-31G*
  Basis Set:
  Basis Set: 6-31G*
  Basis Set:
  @DF-RHF Final Energy:  -270.02741300059165
    Total Energy =                       -270.0274130005916504
  Basis Set: 6-31G*
  Basis Set:
  Basis Set: 6-31G*
  Basis Set:
  @DF-RHF Final Energy:  -270.02755969781776
    Total Energy =                       -270.0275596978179351
  Basis Set: 6-31G*
  Basis Set:
  @DF-RHF Final Energy:  -270.02756912088114
    Total Energy =                       -270.0275691208811963
  @DF-RHF Final Energy:  -270.02758863779371
    Total Energy =                       -270.0275886377939969
  @DF-RHF Final Energy:  -270.02760773081195
    Total Energy =                       -270.0276077308120648
  @DF-RHF Final Energy:  -270.02762572634288
    Total Energy =                       -270.0276257263429898
  @DF-RHF Final Energy:  -270.02764774123028
    Total Energy =                       -270.0276477412302825
  @DF-RHF Final Energy:  -270.02767720844656
    Total Energy =                       -270.0276772084465620
  Basis Set: 6-31G*
  Basis Set:
  @DF-RHF Final Energy:  -270.02765266776015
    Total Energy =                       -270.0276526677604352
  Basis Set: 6-31G*
  Basis Set:
  Basis Set: 6-31G*
  Basis Set:
  @DF-RHF Final Energy:  -270.02768901083124
    Total Energy =                       -270.0276890108312955
  Basis Set: 6-31G*
  Basis Set:
  Basis Set: 6-31G*
  Basis Set:
  @DF-RHF Final Energy:  -270.02769242902832
    Total Energy =                       -270.0276924290283205
  Basis Set: 6-31G*
  Basis Set:
  Charge       = 0
  Multiplicity = 1
  Basis Set: 6-31G*
  Basis Set:

    Orbital Energies (a.u.)
    -----------------------

    Doubly Occupied:

       1A    -20.548269     2A    -11.324587     3A    -11.235886
       4A    -11.229620     5A    -11.227807     6A    -11.219667
       7A     -1.393697     8A     -1.082737     9A     -1.011678
      10A     -0.949249    11A     -0.831412    12A     -0.735409
      13A     -0.660518    14A     -0.644422    15A     -0.618372
      16A     -0.604213    17A     -0.577257    18A     -0.553810
      19A     -0.540992    20A     -0.516261    21A     -0.501412
      22A     -0.485145    23A     -0.473674    24A     -0.398114

  @DF-RHF Final Energy:  -270.02769258188658

   => Energetics <=

    Nuclear Repulsion Energy =            237.1362837774395302
    One-Electron Energy =                -835.5995391581519698
    Two-Electron Energy =                 328.4355627988262540
    DFT Exchange-Correlation Energy =       0.0000000000000000
    Empirical Dispersion Energy =           0.0000000000000000
    PCM Polarization Energy =               0.0000000000000000
    EFP Energy =                            0.0000000000000000
    Total Energy =                       -270.0276925818861855
    Molecular point group: c1
  Basis Set: 6-31G*
  Basis Set:

  -Total Gradient:
     Atom            X                  Y                   Z
    ------   -----------------  -----------------  -----------------
       1        0.000006313142    -0.000000664619    -0.000000779894
       2        0.000308467767     0.002886303725     0.000013026178
       3        0.000283783125    -0.004037052607     0.000576508536
       4       -0.000016294366    -0.000008040816     0.000027284192
       5       -0.003608084317     0.001508835619    -0.003175365084
       6       -0.000001332813     0.000004681012     0.000002539045
       7        0.000003695674     0.000000511841     0.000002274858
       8       -0.000006178851    -0.000008668981    -0.000005729306
       9        0.003020290845    -0.000344453628     0.002581052373
      10       -0.000001082363    -0.000004192234    -0.000002859637
      11        0.000003339386     0.000002492201    -0.000001006563
      12        0.000002342662     0.000000403174    -0.000000011505
      13       -0.000003106515    -0.000002340346     0.000001076490
      14        0.000002093542     0.000004623309    -0.000006743223
      15        0.000001015357     0.000001092921    -0.000002496322
      16        0.000004737727    -0.000003530571    -0.000008770139

  **** Optimization is complete! (in 14 steps) ****
    Final optimized geometry and variables:
    Molecular point group: c1

    Geometry (in Angstrom), charge = 0, multiplicity = 1:

    O           -1.623270381539     1.102402473057     0.212122520735
    C           -1.075898642763     0.042646493798     0.182849294817
    C            0.356783483260    -0.114190461164     0.657927471478
    C           -1.772188750613    -1.192900262733    -0.346929609433
    C            1.351853095097    -0.209579355544    -0.520308698973
    H            0.452117892612    -0.989172599666     1.294740389474
    H            0.578109025552     0.761540120076     1.256091149271
    C            2.725077052304     0.354846371720    -0.153075156135
    H            1.479783307818    -1.248654642034    -0.809082145984
    H            0.964997987039     0.325532590712    -1.382431394785
    H            3.424262512060     0.241483067121    -0.975404201298
    H            3.140633467959    -0.158667657589     0.709242476944
    H            2.660507251651     1.411047619114     0.088127265455
    H           -1.178889011065    -1.670333830593    -1.120945660612
    H           -2.742031414611    -0.926711948135    -0.743653025891
    H           -1.896792049432    -1.916138607314     0.454489518282

  Mulliken Charges: (a.u.)
   Center  Symbol    Alpha    Beta     Spin     Total
       1     O     4.26040  4.26040  0.00000 -0.52081
       2     C     2.73816  2.73816  0.00000  0.52367
       3     C     3.20268  3.20268  0.00000 -0.40536
       4     C     3.28997  3.28997  0.00000 -0.57993
       5     C     3.16304  3.16304  0.00000 -0.32608
       6     H     0.41332  0.41332  0.00000  0.17336
       7     H     0.39933  0.39933  0.00000  0.20134
       8     C     3.24004  3.24004  0.00000 -0.48008
       9     H     0.41785  0.41785  0.00000  0.16431
      10     H     0.41072  0.41072  0.00000  0.17857
      11     H     0.41670  0.41670  0.00000  0.16661
      12     H     0.41983  0.41983  0.00000  0.16035
      13     H     0.41520  0.41520  0.00000  0.16960
      14     H     0.40811  0.40811  0.00000  0.18377
      15     H     0.39677  0.39677  0.00000  0.20645
      16     H     0.40788  0.40788  0.00000  0.18424

   Total alpha = 24.00000, Total beta = 24.00000, Total charge =  0.00000
