                              Psi4 1.0.54 Driver

  ==> Input File <==

--------------------------------------------------------------------------
set {
	reference rhf
	basis cc-pvtz
}

set_num_threads( 4 )
memory 2 gb

molecule MOL {
0 1

O	 1.607598	 -0.375674	 -0.281966
C	 0.576499	 0.134701	 -0.003900
C	 -0.765656	 -0.550508	 -0.002152
O	 0.466774	 1.407053	 0.341143
C	 -1.945526	 0.411052	 0.000603
H	 -0.794329	 -1.203792	 -0.868145
H	 -0.791555	 -1.205429	 0.862701
C	 -3.282915	 -0.321280	 0.002596
H	 -1.880300	 1.059126	 -0.864925
H	 -1.877207	 1.057892	 0.866807
H	 -3.388495	 -0.952755	 -0.873419
H	 -4.107811	 0.380864	 0.004116
H	 -3.385717	 -0.953283	 0.878571
C	 1.653301	 2.174451	 0.376688
H	 2.351648	 1.763447	 1.090440
H	 1.356419	 3.166672	 0.675096
H	 2.119094	 2.201416	 -0.597146

	symmetry c1
}
set optking {
	frozen_dihedral = ("
		1 2 3 6
	")
}

ee,wfn = optimize('scf', return_wfn=True)
oeprop( wfn, 'DIPOLE', 'QUADRUPOLE', 'MULLIKEN_CHARGES')
f=open( 'psi4out.xyz', 'w' )
f.write( "17  " )
f.write( str(ee) + "\n" )
f.write( MOL.save_string_xyz() )
f.close()
--------------------------------------------------------------------------

    Molecular point group: c1
  Charge       = 0
  Multiplicity = 1
  Basis Set: CC-PVTZ
  Basis Set:
  @DF-RHF Final Energy:  -345.03169427915145
    Total Energy =                       -345.0316942791510542
    Molecular point group: c1
  Basis Set: CC-PVTZ
  Basis Set:
  Basis Set: CC-PVTZ
  Basis Set:
  @DF-RHF Final Energy:  -344.92423427574340
    Total Energy =                       -344.9242342757432311
  Basis Set: CC-PVTZ
  Basis Set:
  Basis Set: CC-PVTZ
  Basis Set:
  @DF-RHF Final Energy:  -345.01574719514736
    Total Energy =                       -345.0157471951475259
  Basis Set: CC-PVTZ
  Basis Set:
  Basis Set: CC-PVTZ
  Basis Set:
  @DF-RHF Final Energy:  -345.03219618558444
    Total Energy =                       -345.0321961855844393
  Basis Set: CC-PVTZ
  Basis Set:
  @DF-RHF Final Energy:  -345.02758089620932
    Total Energy =                       -345.0275808962093151
  @DF-RHF Final Energy:  -345.03260634161154
    Total Energy =                       -345.0326063416115403
  Basis Set: CC-PVTZ
  Basis Set:
  @DF-RHF Final Energy:  -345.03290970824634
    Total Energy =                       -345.0329097082463932
  Basis Set: CC-PVTZ
  Basis Set:
  Basis Set: CC-PVTZ
  Basis Set:
  @DF-RHF Final Energy:  -345.03298072794541
    Total Energy =                       -345.0329807279451870
  Basis Set: CC-PVTZ
  Basis Set:
  Basis Set: CC-PVTZ
  Basis Set:
  @DF-RHF Final Energy:  -345.03298636080643
    Total Energy =                       -345.0329863608064329
  Basis Set: CC-PVTZ
  Basis Set:
  Charge       = 0
  Multiplicity = 1
  Basis Set: CC-PVTZ
  Basis Set:

    Orbital Energies (a.u.)
    -----------------------

    Doubly Occupied:

       1A    -20.599473     2A    -20.530124     3A    -11.365143
       4A    -11.279670     5A    -11.234515     6A    -11.224799
       7A    -11.215189     8A     -1.473671     9A     -1.364500
      10A     -1.084216    11A     -0.998573    12A     -0.944055
      13A     -0.832234    14A     -0.777148    15A     -0.698931
      16A     -0.686901    17A     -0.674643    18A     -0.639221
      19A     -0.597335    20A     -0.573491    21A     -0.559097
      22A     -0.533019    23A     -0.524528    24A     -0.518045
      25A     -0.490399    26A     -0.484373    27A     -0.456646
      28A     -0.434029

  @DF-RHF Final Energy:  -345.03298647596569

   => Energetics <=

    Nuclear Repulsion Energy =            314.8272919609886458
    One-Electron Energy =               -1094.1326227348813518
    Two-Electron Energy =                 434.2723442979273614
    DFT Exchange-Correlation Energy =       0.0000000000000000
    Empirical Dispersion Energy =           0.0000000000000000
    PCM Polarization Energy =               0.0000000000000000
    EFP Energy =                            0.0000000000000000
    Total Energy =                       -345.0329864759653447
    Molecular point group: c1
  Basis Set: CC-PVTZ
  Basis Set:

  -Total Gradient:
     Atom            X                  Y                   Z
    ------   -----------------  -----------------  -----------------
       1       -0.000117019707     0.000126604095     0.000627983545
       2        0.000103167426    -0.000157776017    -0.000996213306
       3        0.000178521981    -0.000268653831     0.000894666925
       4        0.000001864093     0.000030886523    -0.000016124933
       5        0.000006098532     0.000020412795     0.000031105323
       6       -0.000181632801     0.000265693675    -0.000529153147
       7       -0.000003578439     0.000006338660    -0.000016264048
       8       -0.000004814172    -0.000024430487    -0.000004879706
       9        0.000006343651    -0.000005761484     0.000014519363
      10        0.000004732026    -0.000007637341    -0.000006633622
      11       -0.000005024763     0.000006998815     0.000009992662
      12        0.000009070605    -0.000003901465     0.000000480569
      13        0.000000050491     0.000006667096    -0.000013496449
      14       -0.000003863100     0.000001246778     0.000010032376
      15       -0.000001405241     0.000010341437    -0.000015347844
      16        0.000010089364    -0.000017677485     0.000001750004
      17       -0.000002599945     0.000010648237     0.000007582289

  **** Optimization is complete! (in 10 steps) ****
    Final optimized geometry and variables:
    Molecular point group: c1

    Geometry (in Angstrom), charge = 0, multiplicity = 1:

    O            1.881199994773    -0.581397957267     0.337990477228
    C            0.797040263638    -0.131107813707     0.179536732940
    C           -0.457722199030    -0.972743245706     0.189360783421
    O            0.570335355190     1.158007495558     0.008192791551
    C           -1.720072736458    -0.338720260305    -0.385524571205
    H           -0.209783993114    -1.885444345470    -0.337686584147
    H           -0.615885147756    -1.255939261338     1.225815667797
    C           -2.902181778814    -1.301693788636    -0.351606722321
    H           -1.535298584941    -0.025863167857    -1.407370122944
    H           -1.962995036856     0.558772208602     0.168886858423
    H           -2.697831450127    -2.197640785637    -0.928018724020
    H           -3.790441616006    -0.838634033197    -0.764214545896
    H           -3.130366697576    -1.607993275435     0.663896510063
    C            1.691623898395     2.019312949201     0.017971041896
    H            2.206627594872     1.962331258625     0.965219692622
    H            1.304087429149     3.013041489905    -0.137266086976
    H            2.378557088848     1.758039266803    -0.772923976317

  Mulliken Charges: (a.u.)
   Center  Symbol    Alpha    Beta     Spin     Total
       1     O     4.20373  4.20373  0.00000 -0.40746
       2     C     2.81311  2.81311  0.00000  0.37377
       3     C     3.08682  3.08682  0.00000 -0.17363
       4     O     4.14162  4.14162  0.00000 -0.28325
       5     C     3.08067  3.08067  0.00000 -0.16134
       6     H     0.43709  0.43709  0.00000  0.12582
       7     H     0.44259  0.44259  0.00000  0.11481
       8     C     3.15246  3.15246  0.00000 -0.30492
       9     H     0.44998  0.44998  0.00000  0.10004
      10     H     0.44675  0.44675  0.00000  0.10651
      11     H     0.45432  0.45432  0.00000  0.09137
      12     H     0.44605  0.44605  0.00000  0.10789
      13     H     0.45480  0.45480  0.00000  0.09040
      14     C     3.03651  3.03651  0.00000 -0.07302
      15     H     0.45340  0.45340  0.00000  0.09321
      16     H     0.44680  0.44680  0.00000  0.10641
      17     H     0.45330  0.45330  0.00000  0.09340

   Total alpha = 28.00000, Total beta = 28.00000, Total charge =  0.00000

*** Psi4 exiting successfully. Buy a developer a beer!
