  ==> Input File <==

--------------------------------------------------------------------------
set {
	reference rhf
	basis cc-pvtz
}

set_num_threads( 4 )
memory 2 gb

molecule MOL {
0 1

H	 -0.053660	 -0.326530	 2.435434
O	 0.652784	 -0.262766	 1.817920
C	 0.409074	 0.784085	 0.930038
C	 -0.793473	 0.591216	 0.050087
H	 1.293702	 0.873006	 0.310498
H	 0.307404	 1.728153	 1.462106
C	 -1.534243	 -0.493009	 -0.013340
H	 -1.036527	 1.438391	 -0.569967
H	 -1.101195	 -1.466332	 -0.144046
H	 -2.604242	 -0.437780	 0.050785

	symmetry c1
}
set optking {
	frozen_dihedral = ("
		3 4 7 9
	")
}

ee = optimize('scf')
oeprop('DIPOLE', 'QUADRUPOLE', 'MULLIKEN_CHARGES')
f=open( 'psi4out.xyz', 'w' )
f.write( "10  " )
f.write( str(ee) + "\n" )
f.write( MOL.save_string_xyz() )
f.close()
--------------------------------------------------------------------------

    Molecular point group: c1
  Charge       = 0
  Multiplicity = 1
  Basis Set: CC-PVTZ
  Basis Set:
  @DF-RHF Final Energy:  -191.94291786009660
    Total Energy =                       -191.9429178600966566
    Molecular point group: c1
  Basis Set: CC-PVTZ
  Basis Set:
  Basis Set: CC-PVTZ
  Basis Set:
  @DF-RHF Final Energy:  -191.96381054795080
    Total Energy =                       -191.9638105479508283
  Basis Set: CC-PVTZ
  Basis Set:
  Basis Set: CC-PVTZ
  Basis Set:
  @DF-RHF Final Energy:  -191.97731011676896
    Total Energy =                       -191.9773101167688196
  Basis Set: CC-PVTZ
  Basis Set:
  Basis Set: CC-PVTZ
  Basis Set:
  @DF-RHF Final Energy:  -191.97902414829440
    Total Energy =                       -191.9790241482943145
  Basis Set: CC-PVTZ
  Basis Set:
  Basis Set: CC-PVTZ
  Basis Set:
  @DF-RHF Final Energy:  -191.97911288136459
    Total Energy =                       -191.9791128813645855
  Basis Set: CC-PVTZ
  Basis Set:
  Basis Set: CC-PVTZ
  Basis Set:
  @DF-RHF Final Energy:  -191.97911717978360
    Total Energy =                       -191.9791171797836569
  Basis Set: CC-PVTZ
  Basis Set:
  Basis Set: CC-PVTZ
  Basis Set:
  @DF-RHF Final Energy:  -191.97911839365784
    Total Energy =                       -191.9791183936578136
  Basis Set: CC-PVTZ
  Basis Set:
  Charge       = 0
  Multiplicity = 1
  Basis Set: CC-PVTZ
  Basis Set:

    Orbital Energies (a.u.)
    -----------------------

    Doubly Occupied:

       1A    -20.553394     2A    -11.281265     3A    -11.240129
       4A    -11.220900     5A     -1.374785     6A     -1.065182
       7A     -0.936027     8A     -0.774976     9A     -0.690235
      10A     -0.661787    11A     -0.626051    12A     -0.571777
      13A     -0.539105    14A     -0.502077    15A     -0.449868
      16A     -0.365789

  @DF-RHF Final Energy:  -191.97911851919730

   => Energetics <=

    Nuclear Repulsion Energy =            119.1175082584465912
    One-Electron Energy =                -496.4865558251029825
    Two-Electron Energy =                 185.3899290474590771
    DFT Exchange-Correlation Energy =       0.0000000000000000
    Empirical Dispersion Energy =           0.0000000000000000
    PCM Polarization Energy =               0.0000000000000000
    EFP Energy =                            0.0000000000000000
    Total Energy =                       -191.9791185191973000
    Molecular point group: c1
  Basis Set: CC-PVTZ
  Basis Set:

  -Total Gradient:
     Atom            X                  Y                   Z
    ------   -----------------  -----------------  -----------------
       1       -0.000009143833     0.000006784060     0.000000880816
       2        0.000034873892     0.000006667676    -0.000022974175
       3       -0.011487030275     0.012025388271     0.010780469715
       4        0.019334320703    -0.021864348583    -0.029564337278
       5        0.000007473501    -0.000003590688     0.000008524675
       6        0.000003881806     0.000014289438    -0.000006783653
       7       -0.008423091278     0.014229396724     0.045665463148
       8        0.000078549084    -0.000172440412    -0.000333879121
       9        0.000449573829    -0.004296395588    -0.026549496394
      10        0.000010592572     0.000054249100     0.000022132268

  **** Optimization is complete! (in 8 steps) ****
    Final optimized geometry and variables:
    Molecular point group: c1

    Geometry (in Angstrom), charge = 0, multiplicity = 1:

    H            0.294800622576    -0.665385045660     1.492118556268
    O            1.037462492141    -0.388822487072     0.984862400577
    C            0.667290358055     0.663977685259     0.152895236843
    C           -0.494107229077     0.371725733010    -0.756329324124
    H            1.552204400494     0.937190647301    -0.409723464428
    H            0.379342349540     1.540833901549     0.728955686592
    C           -1.386027328534    -0.596841457339    -0.618457011044
    H           -0.813425989327     1.256218184544    -1.288450126121
    H           -1.123173778450    -1.627211128975    -0.448566411058
    H           -2.313902118970    -0.496205711982    -1.155967257566

  Mulliken Charges: (a.u.)
   Center  Symbol    Alpha    Beta     Spin     Total
       1     H     0.38941  0.38941  0.00000  0.22118
       2     O     4.20064  4.20064  0.00000 -0.40129
       3     C     2.95072  2.95072  0.00000  0.09856
       4     C     3.06770  3.06770  0.00000 -0.13540
       5     H     0.45342  0.45342  0.00000  0.09316
       6     H     0.46815  0.46815  0.00000  0.06369
       7     C     3.18637  3.18637  0.00000 -0.37273
       8     H     0.42859  0.42859  0.00000  0.14282
       9     H     0.42118  0.42118  0.00000  0.15764
      10     H     0.43382  0.43382  0.00000  0.13236

   Total alpha = 16.00000, Total beta = 16.00000, Total charge = -0.00000
