  ==> Input File <==

--------------------------------------------------------------------------
set {
	reference rhf
	basis cc-pvtz
}

set_num_threads( 4 )
memory 2 gb

molecule MOL {
0 1

H	 -0.355557	 2.505562	 -0.175779
C	 0.352894	 2.015138	 0.504836
C	 0.692262	 0.592428	 0.156232
O	 0.785977	 2.605253	 1.433188
C	 -0.554654	 -0.292621	 0.086567
H	 1.399731	 0.220048	 0.885380
H	 1.181828	 0.603323	 -0.815408
C	 -1.846385	 0.513195	 -0.016346
H	 -0.473986	 -0.956115	 -0.769708
H	 -0.597929	 -0.929215	 0.966651
C	 -3.089953	 -0.365049	 -0.098564
H	 -1.798267	 1.154820	 -0.891143
H	 -1.925398	 1.173265	 0.842889
H	 -3.055079	 -1.012299	 -0.968245
H	 -3.988403	 0.236438	 -0.170014
H	 -3.183055	 -0.995885	 0.779079

	symmetry c1
}
set optking {
	frozen_dihedral = ("
		6 3 5 9
	")
}

ee = optimize('scf')
oeprop('DIPOLE', 'QUADRUPOLE', 'MULLIKEN_CHARGES')
f=open( 'psi4out.xyz', 'w' )
f.write( "16  " )
f.write( str(ee) + "\n" )
f.write( MOL.save_string_xyz() )
f.close()
--------------------------------------------------------------------------

    Molecular point group: c1
  Charge       = 0
  Multiplicity = 1
  Basis Set: CC-PVTZ
  Basis Set:
  @DF-RHF Final Energy:  -270.10804627701566
    Total Energy =                       -270.1080462770156032
    Molecular point group: c1
  Basis Set: CC-PVTZ
  Basis Set:
  Basis Set: CC-PVTZ
  Basis Set:
  @DF-RHF Final Energy:  -270.10878153567353
    Total Energy =                       -270.1087815356735291
  Basis Set: CC-PVTZ
  Basis Set:
  Basis Set: CC-PVTZ
  Basis Set:
  @DF-RHF Final Energy:  -270.11095804015235
    Total Energy =                       -270.1109580401522408
  Basis Set: CC-PVTZ
  Basis Set:
  Basis Set: CC-PVTZ
  Basis Set:
  @DF-RHF Final Energy:  -270.11121619806045
    Total Energy =                       -270.1112161980605038
  Basis Set: CC-PVTZ
  Basis Set:
  @DF-RHF Final Energy:  -270.11138032921411
    Total Energy =                       -270.1113803292140574
  @DF-RHF Final Energy:  -270.11143761000494
    Total Energy =                       -270.1114376100049412
  @DF-RHF Final Energy:  -270.11145658772193
    Total Energy =                       -270.1114565877219889
  Basis Set: CC-PVTZ
  Basis Set:
  @DF-RHF Final Energy:  -270.11147845670121
    Total Energy =                       -270.1114784567014340
  Basis Set: CC-PVTZ
  Basis Set:
  Basis Set: CC-PVTZ
  Basis Set:
  @DF-RHF Final Energy:  -270.11148883436880
    Total Energy =                       -270.1114888343688563
  Basis Set: CC-PVTZ
  Basis Set:
  Basis Set: CC-PVTZ
  Basis Set:
  @DF-RHF Final Energy:  -270.11149185280135
    Total Energy =                       -270.1114918528014073
  Basis Set: CC-PVTZ
  Basis Set:
  Charge       = 0
  Multiplicity = 1
  Basis Set: CC-PVTZ
  Basis Set:

    Orbital Energies (a.u.)
    -----------------------

    Doubly Occupied:

       1A    -20.550619     2A    -11.319943     3A    -11.234408
       4A    -11.233566     5A    -11.228325     6A    -11.216862
       7A     -1.405385     8A     -1.094204     9A     -1.016510
      10A     -0.906086    11A     -0.834418    12A     -0.771676
      13A     -0.681857    14A     -0.647583    15A     -0.626921
      16A     -0.604124    17A     -0.581522    18A     -0.562815
      19A     -0.526003    20A     -0.514915    21A     -0.493237
      22A     -0.476453    23A     -0.471779    24A     -0.409487

  @DF-RHF Final Energy:  -270.11149260086665

   => Energetics <=

    Nuclear Repulsion Energy =            234.3265918037673430
    One-Electron Energy =                -830.0587723067576462
    Two-Electron Energy =                 325.6206879021234499
    DFT Exchange-Correlation Energy =       0.0000000000000000
    Empirical Dispersion Energy =           0.0000000000000000
    PCM Polarization Energy =               0.0000000000000000
    EFP Energy =                            0.0000000000000000
    Total Energy =                       -270.1114926008668817
    Molecular point group: c1
  Basis Set: CC-PVTZ
  Basis Set:

  -Total Gradient:
     Atom            X                  Y                   Z
    ------   -----------------  -----------------  -----------------
       1       -0.000012116827    -0.000006167823     0.000004814475
       2        0.000021908786     0.000009921534     0.000013117846
       3        0.001724512520    -0.002361411140    -0.004155441286
       4       -0.000007181018    -0.000000284287    -0.000010381293
       5        0.001810110737    -0.002847269680     0.003579827911
       6       -0.001711654011     0.002400032114     0.002935794923
       7       -0.000004702541    -0.000003824920     0.000008351539
       8       -0.000001454656    -0.000002079345    -0.000025647752
       9       -0.001834784870     0.002819105075    -0.002359595162
      10        0.000007738436     0.000002188245     0.000002138255
      11       -0.000001750502    -0.000005440178     0.000011587989
      12        0.000009091810     0.000012045840    -0.000003254197
      13        0.000009811832    -0.000013576600    -0.000003712786
      14       -0.000000050759     0.000002072296     0.000003139628
      15       -0.000005088945    -0.000001477302    -0.000000216141
      16       -0.000004389987    -0.000003833830    -0.000000523946

  **** Optimization is complete! (in 11 steps) ****
    Final optimized geometry and variables:
    Molecular point group: c1

    Geometry (in Angstrom), charge = 0, multiplicity = 1:

    H            0.556067683754     1.831414586714    -0.574912656763
    C            1.084387076021     1.211373601368     0.156992483840
    C            1.310101672477    -0.227864318936    -0.232641438648
    O            1.453500015397     1.689321107223     1.174431201721
    C            0.024287200951    -1.092523610772    -0.281076488530
    H            2.001108229826    -0.626066743856     0.497075262137
    H            1.791084224225    -0.221691520201    -1.205712181082
    C           -1.298212893847    -0.331483692732    -0.405740582382
    H            0.092281657028    -1.759427827842    -1.132961719504
    H           -0.014434523358    -1.709439073440     0.608248884593
    C           -2.496067613164    -1.273581338470    -0.459130170113
    H           -1.289671695211     0.282877753804    -1.301651585276
    H           -1.418573465951     0.346945924262     0.433338821830
    H           -2.429487745210    -1.944322999785    -1.309093784698
    H           -3.423827920217    -0.720645889770    -0.545507786522
    H           -2.554749347668    -1.881146807321     0.437437934684

  Mulliken Charges: (a.u.)
   Center  Symbol    Alpha    Beta     Spin     Total
       1     H     0.46079  0.46079  0.00000  0.07842
       2     C     2.90688  2.90688  0.00000  0.18624
       3     C     3.08634  3.08634  0.00000 -0.17269
       4     O     4.16682  4.16682  0.00000 -0.33364
       5     C     3.09591  3.09591  0.00000 -0.19181
       6     H     0.44101  0.44101  0.00000  0.11797
       7     H     0.44867  0.44867  0.00000  0.10267
       8     C     3.10007  3.10007  0.00000 -0.20013
       9     H     0.44924  0.44924  0.00000  0.10152
      10     H     0.44515  0.44515  0.00000  0.10970
      11     C     3.14966  3.14966  0.00000 -0.29933
      12     H     0.45034  0.45034  0.00000  0.09932
      13     H     0.44570  0.44570  0.00000  0.10860
      14     H     0.45437  0.45437  0.00000  0.09125
      15     H     0.44616  0.44616  0.00000  0.10769
      16     H     0.45289  0.45289  0.00000  0.09421

   Total alpha = 24.00000, Total beta = 24.00000, Total charge = -0.00000
