  ==> Input File <==

--------------------------------------------------------------------------
set {
	reference rhf
	basis 6-31G*
}

set_num_threads( 4 )
memory 2 gb

molecule MOL {
0 1

H	 1.933862	 -3.795430	 -0.084252
C	 2.176560	 -2.741711	 0.008071
C	 0.919783	 -1.877503	 -0.084780
H	 2.679650	 -2.601740	 0.960717
H	 2.884562	 -2.496158	 -0.778493
C	 1.217350	 -0.386724	 0.039429
H	 0.215440	 -2.155428	 0.693068
H	 0.422657	 -2.066163	 -1.034866
N	 0.000003	 0.397874	 -0.023260
H	 1.690004	 -0.194283	 0.998871
H	 1.942447	 -0.092866	 -0.726900
C	 -1.217365	 -0.386708	 0.039277
H	 -0.000031	 1.072115	 0.718656
C	 -2.452633	 0.504241	 -0.042481
H	 -1.215291	 -1.074557	 -0.802042
H	 -1.269739	 -1.003477	 0.942735
C	 -3.758029	 -0.289423	 -0.010781
H	 -2.394220	 1.093569	 -0.952170
H	 -2.440793	 1.210787	 0.785871
H	 -3.816659	 -0.981993	 -0.845726
H	 -4.617837	 0.370165	 -0.069296
H	 -3.847478	 -0.867502	 0.904682

	symmetry c1
}
set optking {
	frozen_dihedral = ("
		10 6 9 12
	")
}

ee = optimize('scf')
oeprop('DIPOLE', 'QUADRUPOLE', 'MULLIKEN_CHARGES')
f=open( 'psi4out.xyz', 'w' )
f.write( "22  " )
f.write( str(ee) + "\n" )
f.write( MOL.save_string_xyz() )
f.close()
--------------------------------------------------------------------------

    Molecular point group: c1
  Charge       = 0
  Multiplicity = 1
  Basis Set: 6-31G*
  Basis Set:
  @DF-RHF Final Energy:  -290.36183131219258
    Total Energy =                       -290.3618313121922370
    Molecular point group: c1
  Basis Set: 6-31G*
  Basis Set:
  Basis Set: 6-31G*
  Basis Set:
  @DF-RHF Final Energy:  -290.36042637513918
    Total Energy =                       -290.3604263751392978
  Basis Set: 6-31G*
  Basis Set:
  Basis Set: 6-31G*
  Basis Set:
  @DF-RHF Final Energy:  -290.36969847191847
    Total Energy =                       -290.3696984719189231
  Basis Set: 6-31G*
  Basis Set:
  Basis Set: 6-31G*
  Basis Set:
  @DF-RHF Final Energy:  -290.37173456617563
    Total Energy =                       -290.3717345661752347
  Basis Set: 6-31G*
  Basis Set:
  Basis Set: 6-31G*
  Basis Set:
  @DF-RHF Final Energy:  -290.37208724354622
    Total Energy =                       -290.3720872435462184
  Basis Set: 6-31G*
  Basis Set:
  Basis Set: 6-31G*
  Basis Set:
  @DF-RHF Final Energy:  -290.37225786900132
    Total Energy =                       -290.3722578690013734
  Basis Set: 6-31G*
  Basis Set:
  Basis Set: 6-31G*
  Basis Set:
  @DF-RHF Final Energy:  -290.37227273849891
    Total Energy =                       -290.3722727384989071
  Basis Set: 6-31G*
  Basis Set:
  Charge       = 0
  Multiplicity = 1
  Basis Set: 6-31G*
  Basis Set:

    Orbital Energies (a.u.)
    -----------------------

    Doubly Occupied:

       1A    -15.527614     2A    -11.238881     3A    -11.237008
       4A    -11.216652     5A    -11.212036     6A    -11.211280
       7A    -11.208700     8A     -1.195534     9A     -1.057289
      10A     -1.027779    11A     -0.929462    12A     -0.875231
      13A     -0.814113    14A     -0.778725    15A     -0.665040
      16A     -0.629377    17A     -0.619133    18A     -0.613138
      19A     -0.568308    20A     -0.558348    21A     -0.542443
      22A     -0.531502    23A     -0.503946    24A     -0.487053
      25A     -0.479572    26A     -0.473315    27A     -0.464495
      28A     -0.461283    29A     -0.342991

  @DF-RHF Final Energy:  -290.37227332231242

   => Energetics <=

    Nuclear Repulsion Energy =            317.8795535716887457
    One-Electron Energy =               -1021.5631627633160861
    Two-Electron Energy =                 413.3113358693154851
    DFT Exchange-Correlation Energy =       0.0000000000000000
    Empirical Dispersion Energy =           0.0000000000000000
    PCM Polarization Energy =               0.0000000000000000
    EFP Energy =                            0.0000000000000000
    Total Energy =                       -290.3722733223117984
    Molecular point group: c1
  Basis Set: 6-31G*
  Basis Set:

  -Total Gradient:
     Atom            X                  Y                   Z
    ------   -----------------  -----------------  -----------------
       1       -0.000001311717     0.000001844923     0.000000195023
       2       -0.000004444153     0.000004894093    -0.000016342145
       3        0.000009008089    -0.000012399237    -0.000013510804
       4        0.000000642297    -0.000007796605     0.000004858005
       5        0.000002948379     0.000004387859     0.000008735570
       6       -0.002058761685    -0.003346472257     0.000353633955
       7       -0.000041729154     0.000013231733     0.000009699306
       8        0.000038681992    -0.000007651113     0.000016152775
       9        0.000447173164     0.001019129900     0.003839792078
      10        0.001637250577     0.002571653425    -0.001426031542
      11        0.000010496218    -0.000001711093     0.000007219769
      12        0.000006099680    -0.000252431672    -0.002776485094
      13       -0.000002330774     0.000021295082    -0.000009164583
      14       -0.000014227169    -0.000009436827    -0.000006991964
      15       -0.000017502048    -0.000000173155    -0.000003537489
      16        0.000004723908    -0.000001761774    -0.000008379445
      17       -0.000011769814     0.000010496802     0.000018181140
      18        0.000003309953    -0.000013663376    -0.000009484283
      19       -0.000005316349     0.000003820168     0.000003337648
      20        0.000007279058     0.000009518219     0.000000252702
      21       -0.000005594767    -0.000002129340     0.000006442278
      22       -0.000004625685    -0.000004645758     0.000001427104

  **** Optimization is complete! (in 8 steps) ****
    Final optimized geometry and variables:
    Molecular point group: c1

    Geometry (in Angstrom), charge = 0, multiplicity = 1:

    H            2.805293911875    -3.049900319765    -0.190398254080
    C            2.886481480542    -1.978654419926    -0.036971129840
    C            1.512820281449    -1.310415341077    -0.102590853730
    H            3.357419492655    -1.818001206217     0.928672450783
    H            3.552432881357    -1.585118513361    -0.799374373139
    C            1.620029123605     0.201409925048     0.092123500374
    H            0.866141651224    -1.745088119978     0.653428657336
    H            1.059154549725    -1.524043611482    -1.065742935534
    N            0.368433201494     0.955875452099     0.021524680231
    H            2.126738565341     0.399236370668     1.037190539251
    H            2.288092459134     0.586501355066    -0.675903280148
    C           -0.909533413504     0.276454279834     0.092472725972
    H            0.390058891199     1.711956366622     0.673531606437
    C           -2.045678191456     1.281625069897    -0.077046466537
    H           -0.967656529297    -0.451046640829    -0.708624126351
    H           -1.060366057706    -0.274116368041     1.026332279941
    C           -3.425758935418     0.626991023117    -0.034687453753
    H           -1.906474672465     1.804612784688    -1.017992292944
    H           -1.980677330356     2.033348257860     0.708113485920
    H           -3.536843250349    -0.106879614525    -0.828020526753
    H           -4.212068169671     1.365014327646    -0.156942461178
    H           -3.594404929984     0.119234696209     0.910839417338

  Mulliken Charges: (a.u.)
   Center  Symbol    Alpha    Beta     Spin     Total
       1     H     0.41743  0.41743  0.00000  0.16514
       2     C     3.24225  3.24225  0.00000 -0.48449
       3     C     3.16809  3.16809  0.00000 -0.33618
       4     H     0.42116  0.42116  0.00000  0.15769
       5     H     0.41971  0.41971  0.00000  0.16058
       6     C     3.03288  3.03288  0.00000 -0.06577
       7     H     0.41892  0.41892  0.00000  0.16215
       8     H     0.41707  0.41707  0.00000  0.16586
       9     N     3.87479  3.87479  0.00000 -0.74958
      10     H     0.43251  0.43251  0.00000  0.13498
      11     H     0.42233  0.42233  0.00000  0.15535
      12     C     3.04328  3.04328  0.00000 -0.08656
      13     H     0.33186  0.33186  0.00000  0.33627
      14     C     3.15504  3.15504  0.00000 -0.31008
      15     H     0.42052  0.42052  0.00000  0.15896
      16     H     0.43712  0.43712  0.00000  0.12575
      17     C     3.24315  3.24315  0.00000 -0.48630
      18     H     0.41340  0.41340  0.00000  0.17319
      19     H     0.42751  0.42751  0.00000  0.14497
      20     H     0.42109  0.42109  0.00000  0.15781
      21     H     0.41798  0.41798  0.00000  0.16405
      22     H     0.42190  0.42190  0.00000  0.15620

   Total alpha = 29.00000, Total beta = 29.00000, Total charge =  0.00000
