                              Psi4 1.0.54 Driver

  ==> Input File <==

--------------------------------------------------------------------------
set {
	reference rhf
	basis cc-pvtz
}

set_num_threads( 4 )
memory 2 gb

molecule MOL {
0 1

H	 3.889604	 0.356866	 -0.089510
N	 3.091268	 -0.241216	 -0.065538
C	 1.860978	 0.530248	 0.016256
H	 3.192566	 -0.835836	 0.730398
C	 0.644130	 -0.381765	 -0.031064
H	 1.835721	 1.204666	 -0.833114
H	 1.808789	 1.151975	 0.911067
C	 -0.678115	 0.376691	 0.025731
H	 0.693998	 -0.977147	 -0.936845
H	 0.693309	 -1.082142	 0.800523
C	 -1.015170	 1.101981	 -1.274096
H	 -0.643546	 1.099152	 0.838017
H	 -1.483088	 -0.313486	 0.267696
C	 -2.334532	 1.864209	 -1.211126
H	 -0.211933	 1.791673	 -1.517876
H	 -1.054082	 0.381710	 -2.086787
H	 -2.314796	 2.616884	 -0.429890
H	 -2.543261	 2.366906	 -2.148534
H	 -3.163485	 1.195779	 -1.002859

	symmetry c1
}
set optking {
	frozen_dihedral = ("
		12 8 5 9
	")
}

ee,wfn = optimize('scf', return_wfn=True)
oeprop( wfn, 'DIPOLE', 'QUADRUPOLE', 'MULLIKEN_CHARGES')
f=open( 'psi4out.xyz', 'w' )
f.write( "19  " )
f.write( str(ee) + "\n" )
f.write( MOL.save_string_xyz() )
f.close()
--------------------------------------------------------------------------

    Molecular point group: c1
  Charge       = 0
  Multiplicity = 1
  Basis Set: CC-PVTZ
  Basis Set:
  @DF-RHF Final Energy:  -251.44595535470961
    Total Energy =                       -251.4459553547096675
    Molecular point group: c1
  Basis Set: CC-PVTZ
  Basis Set:
  Basis Set: CC-PVTZ
  Basis Set:
  @DF-RHF Final Energy:  -251.44614127651721
    Total Energy =                       -251.4461412765170962
  Basis Set: CC-PVTZ
  Basis Set:
  Basis Set: CC-PVTZ
  Basis Set:
  @DF-RHF Final Energy:  -251.44622644976224
    Total Energy =                       -251.4462264497622073
  Basis Set: CC-PVTZ
  Basis Set:
  Basis Set: CC-PVTZ
  Basis Set:
  @DF-RHF Final Energy:  -251.44622841599656
    Total Energy =                       -251.4462284159968135
  Basis Set: CC-PVTZ
  Basis Set:
  Charge       = 0
  Multiplicity = 1
  Basis Set: CC-PVTZ
  Basis Set:

    Orbital Energies (a.u.)
    -----------------------

    Doubly Occupied:

       1A    -15.526364     2A    -11.237581     3A    -11.211492
       4A    -11.210637     5A    -11.207999     6A    -11.205437
       7A     -1.178185     8A     -1.073410     9A     -0.997723
      10A     -0.899935    11A     -0.826934    12A     -0.778539
      13A     -0.664072    14A     -0.637122    15A     -0.619573
      16A     -0.593255    17A     -0.570973    18A     -0.548910
      19A     -0.526827    20A     -0.500089    21A     -0.489218
      22A     -0.463506    23A     -0.456422    24A     -0.447564
      25A     -0.383931

  @DF-RHF Final Energy:  -251.44622870167149

   => Energetics <=

    Nuclear Repulsion Energy =            248.9680520940041788
    One-Electron Energy =                -832.3171671442762545
    Two-Electron Energy =                 331.9028863486007594
    DFT Exchange-Correlation Energy =       0.0000000000000000
    Empirical Dispersion Energy =           0.0000000000000000
    PCM Polarization Energy =               0.0000000000000000
    EFP Energy =                            0.0000000000000000
    Total Energy =                       -251.4462287016713162
    Molecular point group: c1
  Basis Set: CC-PVTZ
  Basis Set:

  -Total Gradient:
     Atom            X                  Y                   Z
    ------   -----------------  -----------------  -----------------
       1        0.000014148948    -0.000006839841     0.000004470687
       2        0.000016158469     0.000021370587     0.000005100615
       3       -0.000023876350    -0.000036004824     0.000001563193
       4        0.000000153241     0.000003511329    -0.000001963426
       5       -0.000549406745    -0.000953077119     0.000531149186
       6       -0.000006368520     0.000000240790    -0.000001614854
       7        0.000013011639     0.000007031332     0.000000697376
       8       -0.000413899425    -0.000780911697     0.000816671871
       9        0.000519181531     0.000930268736    -0.000590829714
      10        0.000000788573     0.000005243857     0.000000494676
      11       -0.000014171265    -0.000048691486     0.000019134584
      12        0.000448804114     0.000826463006    -0.000744032433
      13       -0.000001941741     0.000007773045    -0.000009195301
      14        0.000001236842     0.000013408523    -0.000015202724
      15        0.000003864369    -0.000001607082     0.000006352357
      16       -0.000003206622     0.000003338454    -0.000019118439
      17        0.000002276245    -0.000003065624     0.000004202218
      18       -0.000011778224     0.000012821021    -0.000004990389
      19        0.000005024923    -0.000001273008    -0.000002889481

  **** Optimization is complete! (in 5 steps) ****
    Final optimized geometry and variables:
    Molecular point group: c1

    Geometry (in Angstrom), charge = 0, multiplicity = 1:

    H            3.619647120314    -0.230417117699     0.402190480789
    N            2.806900168128    -0.809112746144     0.413575145498
    C            1.592920653407    -0.008859353797     0.447353873053
    H            2.871864741715    -1.393077375797     1.221104328788
    C            0.360448478658    -0.902729008529     0.383738277932
    H            1.614575763990     0.653587116269    -0.409652515241
    H            1.526956716499     0.624934821534     1.333019559824
    C           -0.967987178175    -0.144437021641     0.415633211464
    H            0.424197802584    -1.506475580337    -0.515659073025
    H            0.395064661216    -1.591502176126     1.224100249994
    C           -1.323037806766     0.566453593348    -0.890076717831
    H           -0.948932390439     0.586591316544     1.220934997892
    H           -1.764734471176    -0.842169388749     0.655748617521
    C           -2.669236343901     1.280876364415    -0.827527354155
    H           -0.551668030463     1.286556025778    -1.143371191523
    H           -1.338261616553    -0.160274518213    -1.697600564364
    H           -2.675346548118     2.037313765518    -0.049596955086
    H           -2.898159002691     1.771490096450    -1.766679075817
    H           -3.472708593722     0.583610919509    -0.614224668321

  Mulliken Charges: (a.u.)
   Center  Symbol    Alpha    Beta     Spin     Total
       1     H     0.43008  0.43008  0.00000  0.13984
       2     N     3.68934  3.68934  0.00000 -0.37867
       3     C     3.02478  3.02478  0.00000 -0.04956
       4     H     0.43100  0.43100  0.00000  0.13800
       5     C     3.09008  3.09008  0.00000 -0.18016
       6     H     0.45627  0.45627  0.00000  0.08745
       7     H     0.46846  0.46846  0.00000  0.06308
       8     C     3.10134  3.10134  0.00000 -0.20267
       9     H     0.45006  0.45006  0.00000  0.09988
      10     H     0.45386  0.45386  0.00000  0.09227
      11     C     3.08303  3.08303  0.00000 -0.16607
      12     H     0.45656  0.45656  0.00000  0.08688
      13     H     0.44827  0.44827  0.00000  0.10345
      14     C     3.14970  3.14970  0.00000 -0.29940
      15     H     0.45481  0.45481  0.00000  0.09039
      16     H     0.45350  0.45350  0.00000  0.09300
      17     H     0.45551  0.45551  0.00000  0.08898
      18     H     0.44848  0.44848  0.00000  0.10304
      19     H     0.45486  0.45486  0.00000  0.09027

   Total alpha = 25.00000, Total beta = 25.00000, Total charge =  0.00000

*** Psi4 exiting successfully. Buy a developer a beer!
