  ==> Input File <==

--------------------------------------------------------------------------
set {
	reference rhf
	basis 6-31G*
}

set_num_threads( 1 )
memory 2 gb

molecule MOL {
0 1

O	 1.846825	 1.296220	 0.000415
C	 1.705091	 0.115954	 0.001797
C	 0.381791	 -0.609817	 0.001258
O	 2.721346	 -0.737485	 -0.000216
C	 -0.823008	 0.326187	 0.001381
H	 0.371250	 -1.265087	 -0.865474
H	 0.370908	 -1.265746	 0.867490
C	 -1.481300	 0.425078	 -1.375548
H	 -0.510305	 1.311469	 0.332478
H	 -1.546299	 -0.021986	 0.732090
C	 -2.691275	 1.360751	 -1.393810
H	 -0.749995	 0.771269	 -2.104480
H	 -1.790497	 -0.566398	 -1.703044
C	 -3.349330	 1.458205	 -2.769571
H	 -2.383539	 2.352299	 -1.069352
H	 -3.423084	 1.015743	 -0.666786
H	 -2.651473	 1.833841	 -3.512610
H	 -4.203374	 2.128040	 -2.750091
H	 -3.698891	 0.486496	 -3.107060
C	 4.024888	 -0.184556	 -0.001949
H	 4.179030	 0.422472	 -0.882452
H	 4.701782	 -1.024608	 -0.003642
H	 4.181981	 0.421185	 0.878906

	symmetry c1
}
set optking {
	frozen_dihedral = ("
		15 11 8 12,
		9 5 8 12,
		1 2 3 6,
		1 2 4 20
	")
}

ee = energy('scf')
oeprop('DIPOLE', 'QUADRUPOLE', 'MULLIKEN_CHARGES')
f=open( 'psi4out.xyz', 'w' )
f.write( "23  " )
f.write( str(ee) + "\n" )
f.write( MOL.save_string_xyz() )
f.close()
--------------------------------------------------------------------------

    Molecular point group: c1

    Geometry (in Angstrom), charge = 0, multiplicity = 1:

       Center              X                  Y                   Z               Mass
    ------------   -----------------  -----------------  -----------------  -----------------
           O          1.546582872656     0.909675736368     0.618377640639    15.994914619560
           C          1.404848872656    -0.270590263632     0.619759640639    12.000000000000
           C          0.081548872656    -0.996361263632     0.619220640639    12.000000000000
           O          2.421103872656    -1.124029263632     0.617746640639    15.994914619560
           C         -1.123250127344    -0.060357263632     0.619343640639    12.000000000000
           H          0.071007872656    -1.651631263632    -0.247511359361     1.007825032070
           H          0.070665872656    -1.652290263632     1.485452640639     1.007825032070
           C         -1.781542127344     0.038533736368    -0.757585359361    12.000000000000
           H         -0.810547127344     0.924924736368     0.950440640639     1.007825032070
           H         -1.846541127344    -0.408530263632     1.350052640639     1.007825032070
           C         -2.991517127344     0.974206736368    -0.775847359361    12.000000000000
           H         -1.050237127344     0.384724736368    -1.486517359361     1.007825032070
           H         -2.090739127344    -0.952942263632    -1.085081359361     1.007825032070
           C         -3.649572127344     1.071660736368    -2.151608359361    12.000000000000
           H         -2.683781127344     1.965754736368    -0.451389359361     1.007825032070
           H         -3.723326127344     0.629198736368    -0.048823359361     1.007825032070
           H         -2.951715127344     1.447296736368    -2.894647359361     1.007825032070
           H         -4.503616127344     1.741495736368    -2.132128359361     1.007825032070
           H         -3.999133127344     0.099951736368    -2.489097359361     1.007825032070
           C          3.724645872656    -0.571100263632     0.616013640639    12.000000000000
           H          3.878787872656     0.035927736368    -0.264489359361     1.007825032070
           H          4.401539872656    -1.411152263632     0.614320640639     1.007825032070
           H          3.881738872656     0.034640736368     1.496868640639     1.007825032070

  Charge       = 0
  Multiplicity = 1
  Basis Set: 6-31G*
  Basis Set:

    Orbital Energies (a.u.)
    -----------------------

    Doubly Occupied:

       1A    -20.604382     2A    -20.546458     3A    -11.372977
       4A    -11.281262     5A    -11.234237     6A    -11.215908
       7A    -11.214886     8A    -11.213591     9A    -11.207385
      10A     -1.470115    11A     -1.363891    12A     -1.091564
      13A     -1.041940    14A     -0.986308    15A     -0.930427
      16A     -0.843134    17A     -0.794432    18A     -0.766548
      19A     -0.703733    20A     -0.680935    21A     -0.672620
      22A     -0.640053    23A     -0.613584    24A     -0.599508
      25A     -0.569471    26A     -0.556421    27A     -0.553243
      28A     -0.530722    29A     -0.523234    30A     -0.500124
      31A     -0.487112    32A     -0.467944    33A     -0.462805
      34A     -0.456776    35A     -0.450655    36A     -0.439502

  @DF-RHF Final Energy:  -422.97254379350164

   => Energetics <=

    Nuclear Repulsion Energy =            458.2076099453742586
    One-Electron Energy =               -1484.1846256998783247
    Two-Electron Energy =                 603.0044719610023094
    DFT Exchange-Correlation Energy =       0.0000000000000000
    Empirical Dispersion Energy =           0.0000000000000000
    PCM Polarization Energy =               0.0000000000000000
    EFP Energy =                            0.0000000000000000
    Total Energy =                       -422.9725437935016998

  Mulliken Charges: (a.u.)
   Center  Symbol    Alpha    Beta     Spin     Total
       1     O     4.28528  4.28528  0.00000 -0.57056
       2     C     2.60955  2.60955  0.00000  0.78090
       3     C     3.21075  3.21075  0.00000 -0.42150
       4     O     4.30610  4.30610  0.00000 -0.61221
       5     C     3.16153  3.16153  0.00000 -0.32307
       6     H     0.39814  0.39814  0.00000  0.20372
       7     H     0.39742  0.39742  0.00000  0.20517
       8     C     3.15459  3.15459  0.00000 -0.30918
       9     H     0.39597  0.39597  0.00000  0.20806
      10     H     0.41951  0.41951  0.00000  0.16097
      11     C     3.15259  3.15259  0.00000 -0.30519
      12     H     0.41942  0.41942  0.00000  0.16116
      13     H     0.42508  0.42508  0.00000  0.14984
      14     C     3.23956  3.23956  0.00000 -0.47912
      15     H     0.41940  0.41940  0.00000  0.16120
      16     H     0.42360  0.42360  0.00000  0.15280
      17     H     0.42095  0.42095  0.00000  0.15810
      18     H     0.41915  0.41915  0.00000  0.16170
      19     H     0.42264  0.42264  0.00000  0.15473
      20     C     3.09230  3.09230  0.00000 -0.18461
      21     H     0.40905  0.40905  0.00000  0.18190
      22     H     0.40838  0.40838  0.00000  0.18324
      23     H     0.40903  0.40903  0.00000  0.18194

   Total alpha = 36.00000, Total beta = 36.00000, Total charge = -0.00000
