                              Psi4 1.0.54 Driver

  ==> Input File <==

--------------------------------------------------------------------------
set {
	reference rhf
	basis cc-pvtz
}

set_num_threads( 4 )
memory 2 gb

molecule MOL {
0 1

H	 1.829476	 -1.485896	 -1.036288
C	 0.986757	 -0.849320	 -1.247067
O	 0.462329	 -0.453336	 -0.000137
H	 0.254914	 -1.405833	 -1.818834
H	 1.322017	 0.006891	 -1.818681
C	 -0.590565	 0.341382	 0.000062
O	 -1.693898	 -0.053880	 0.000252
H	 -0.340426	 1.403822	 0.000200

	symmetry c1
}
set optking {
	frozen_dihedral = ("
		2 3 6 7
	")
}

ee,wfn = optimize('scf', return_wfn=True)
oeprop( wfn, 'DIPOLE', 'QUADRUPOLE', 'MULLIKEN_CHARGES')
f=open( 'psi4out.xyz', 'w' )
f.write( "8  " )
f.write( str(ee) + "\n" )
f.write( MOL.save_string_xyz() )
f.close()
--------------------------------------------------------------------------

    Molecular point group: c1
  Charge       = 0
  Multiplicity = 1
  Basis Set: CC-PVTZ
  Basis Set:
  @DF-RHF Final Energy:  -227.85880040276393
    Total Energy =                       -227.8588004027639329
    Molecular point group: c1
  Basis Set: CC-PVTZ
  Basis Set:
  Basis Set: CC-PVTZ
  Basis Set:
  @DF-RHF Final Energy:  -227.85775625991715
    Total Energy =                       -227.8577562599170392
  Basis Set: CC-PVTZ
  Basis Set:
  Basis Set: CC-PVTZ
  Basis Set:
  @DF-RHF Final Energy:  -227.85884637275478
    Total Energy =                       -227.8588463727547833
  Basis Set: CC-PVTZ
  Basis Set:
  Basis Set: CC-PVTZ
  Basis Set:
  @DF-RHF Final Energy:  -227.85930778461540
    Total Energy =                       -227.8593077846153392
  Basis Set: CC-PVTZ
  Basis Set:
  Basis Set: CC-PVTZ
  Basis Set:
  @DF-RHF Final Energy:  -227.85932107680389
    Total Energy =                       -227.8593210768038944
  Basis Set: CC-PVTZ
  Basis Set:
  Charge       = 0
  Multiplicity = 1
  Basis Set: CC-PVTZ
  Basis Set:

    Orbital Energies (a.u.)
    -----------------------

    Doubly Occupied:

       1A    -20.589736     2A    -20.563478     3A    -11.376410
       4A    -11.296878     5A     -1.473163     6A     -1.384903
       7A     -0.986585     8A     -0.834879     9A     -0.740762
      10A     -0.690853    11A     -0.668580    12A     -0.628387
      13A     -0.564378    14A     -0.514993    15A     -0.476268
      16A     -0.460800

  @DF-RHF Final Energy:  -227.85932225086077

   => Energetics <=

    Nuclear Repulsion Energy =            122.0660319115043677
    One-Electron Energy =                -553.3486055405583102
    Two-Electron Energy =                 203.4232513781931289
    DFT Exchange-Correlation Energy =       0.0000000000000000
    Empirical Dispersion Energy =           0.0000000000000000
    PCM Polarization Energy =               0.0000000000000000
    EFP Energy =                            0.0000000000000000
    Total Energy =                       -227.8593222508608278
    Molecular point group: c1
  Basis Set: CC-PVTZ
  Basis Set:

  -Total Gradient:
     Atom            X                  Y                   Z
    ------   -----------------  -----------------  -----------------
       1       -0.000006204038     0.000010487263     0.000013638325
       2        0.000351067661     0.000402190526    -0.000009705600
       3       -0.000522910833    -0.000603686770     0.000317770565
       4        0.000002308103     0.000005519473    -0.000001820347
       5       -0.000005924925     0.000001543515     0.000014752114
       6        0.000202335804     0.000226971075    -0.001051016848
       7       -0.000015486071    -0.000008606434     0.000721929203
       8       -0.000005185702    -0.000034418648    -0.000005547412

  **** Optimization is complete! (in 6 steps) ****
    Final optimized geometry and variables:
    Molecular point group: c1

    Geometry (in Angstrom), charge = 0, multiplicity = 1:

    H            2.020476092837    -1.234427093555    -0.750871417062
    C            1.174923963910    -0.591355482350    -0.929291639128
    O            0.663915582743    -0.233197002465     0.338901719378
    H            0.426847739101    -1.121446499622    -1.503423162633
    H            1.502682063249     0.285662832678    -1.477021790243
    C           -0.383360816645     0.600212753787     0.340557635680
    O           -1.500894574714     0.253177390798     0.312407301285
    H           -0.091548698727     1.647645484641     0.404524488023

  Mulliken Charges: (a.u.)
   Center  Symbol    Alpha    Beta     Spin     Total
       1     H     0.44398  0.44398  0.00000  0.11204
       2     C     3.02223  3.02223  0.00000 -0.04445
       3     O     4.15495  4.15495  0.00000 -0.30990
       4     H     0.45421  0.45421  0.00000  0.09158
       5     H     0.46663  0.46663  0.00000  0.06674
       6     C     2.83086  2.83086  0.00000  0.33828
       7     O     4.16209  4.16209  0.00000 -0.32418
       8     H     0.46505  0.46505  0.00000  0.06990

   Total alpha = 16.00000, Total beta = 16.00000, Total charge = -0.00000

*** Psi4 exiting successfully. Buy a developer a beer!
