  ==> Input File <==

--------------------------------------------------------------------------
set {
	reference rhf
	basis cc-pvtz
}

set_num_threads( 4 )
memory 2 gb

molecule MOL {
0 1

O	 2.595335	 1.775341	 0.472827
C	 1.997853	 1.469326	 1.452358
C	 0.728090	 0.644069	 1.402518
C	 2.470359	 1.887518	 2.826431
C	 0.288398	 0.247429	 0.000314
H	 0.885782	 -0.236886	 2.020676
H	 -0.051614	 1.212327	 1.904663
C	 -0.993089	 -0.581367	 -0.000217
H	 1.086607	 -0.307973	 -0.478753
H	 0.148515	 1.142576	 -0.594899
C	 -2.258482	 0.271340	 0.000669
H	 -1.002280	 -1.233920	 -0.870484
H	 -1.002061	 -1.235367	 0.868958
C	 -3.544441	 -0.550271	 -0.000253
H	 -2.250545	 0.925250	 -0.867923
H	 -2.250598	 0.923423	 0.870642
C	 -4.804551	 0.308747	 0.000556
H	 -3.553737	 -1.201524	 -0.870151
H	 -3.553831	 -1.203282	 0.868313
H	 -4.842050	 0.949078	 -0.874436
H	 -5.698404	 -0.304480	 -0.000254
H	 -4.842277	 0.947103	 0.876982
H	 2.650972	 1.013203	 3.442061
H	 3.377429	 2.465783	 2.741430
H	 1.706421	 2.477337	 3.320955

	symmetry c1
}
set optking {
	frozen_dihedral = ("
		9 5 8 12
	")
}

ee = optimize('scf')
oeprop('DIPOLE', 'QUADRUPOLE', 'MULLIKEN_CHARGES')
f=open( 'psi4out.xyz', 'w' )
f.write( "25  " )
f.write( str(ee) + "\n" )
f.write( MOL.save_string_xyz() )
f.close()
--------------------------------------------------------------------------

    Molecular point group: c1
  Charge       = 0
  Multiplicity = 1
  Basis Set: CC-PVTZ
  Basis Set:
  @DF-RHF Final Energy:  -387.27159378094973
    Total Energy =                       -387.2715937809500701
    Molecular point group: c1
  Basis Set: CC-PVTZ
  Basis Set:
  Basis Set: CC-PVTZ
  Basis Set:
  @DF-RHF Final Energy:  -387.27181926125348
    Total Energy =                       -387.2718192612530856
  Basis Set: CC-PVTZ
  Basis Set:
  Basis Set: CC-PVTZ
  Basis Set:
  @DF-RHF Final Energy:  -387.27139506281378
    Total Energy =                       -387.2713950628141220
  Basis Set: CC-PVTZ
  Basis Set:
  Basis Set: CC-PVTZ
  Basis Set:
  @DF-RHF Final Energy:  -387.27185990746949
    Total Energy =                       -387.2718599074701160
  Basis Set: CC-PVTZ
  Basis Set:
  Basis Set: CC-PVTZ
  Basis Set:
  @DF-RHF Final Energy:  -387.27186664774183
    Total Energy =                       -387.2718666477419447
  Basis Set: CC-PVTZ
  Basis Set:
  Charge       = 0
  Multiplicity = 1
  Basis Set: CC-PVTZ
  Basis Set:

    Orbital Energies (a.u.)
    -----------------------

    Doubly Occupied:

       1A    -20.538891     2A    -11.320501     3A    -11.230216
       4A    -11.226612     5A    -11.215216     6A    -11.215016
       7A    -11.214600     8A    -11.213775     9A    -11.208183
      10A     -1.398925    11A     -1.095481    12A     -1.057381
      13A     -1.015442    14A     -0.969498    15A     -0.896171
      16A     -0.816366    17A     -0.790164    18A     -0.733334
      19A     -0.661037    20A     -0.645787    21A     -0.642713
      22A     -0.623634    23A     -0.599221    24A     -0.576269
      25A     -0.571666    26A     -0.567597    27A     -0.542796
      28A     -0.526626    29A     -0.518325    30A     -0.495293
      31A     -0.487363    32A     -0.478874    33A     -0.464260
      34A     -0.460516    35A     -0.447628    36A     -0.402409

  @DF-RHF Final Energy:  -387.27186680720160

   => Energetics <=

    Nuclear Repulsion Energy =            444.1651424101212342
    One-Electron Energy =               -1405.1384463852468798
    Two-Electron Energy =                 573.7014371679235865
    DFT Exchange-Correlation Energy =       0.0000000000000000
    Empirical Dispersion Energy =           0.0000000000000000
    PCM Polarization Energy =               0.0000000000000000
    EFP Energy =                            0.0000000000000000
    Total Energy =                       -387.2718668072020591
    Molecular point group: c1
  Basis Set: CC-PVTZ
  Basis Set:

  -Total Gradient:
     Atom            X                  Y                   Z
    ------   -----------------  -----------------  -----------------
       1        0.000006778875     0.000007248724    -0.000005578697
       2       -0.000015297169    -0.000004675869    -0.000000147117
       3       -0.000007451032     0.000003375193     0.000004476301
       4        0.000016912454    -0.000016417034     0.000000544237
       5        0.001085040129    -0.001874219752     0.003378773370
       6       -0.000001945801    -0.000004183814    -0.000007275795
       7        0.000002127402    -0.000007785116    -0.000003640925
       8       -0.001655575795     0.002747498747    -0.002407369052
       9       -0.000655555817     0.001132980669    -0.002448293153
      10       -0.000006602529     0.000000844333    -0.000004864758
      11        0.000003607076    -0.000000492004     0.000031246516
      12        0.001216406545    -0.002007585714     0.001454754440
      13        0.000007855672     0.000009613033     0.000006058628
      14        0.000015116252     0.000001706236     0.000015950805
      15        0.000011558649     0.000004302628     0.000008968530
      16        0.000002966534    -0.000006383584     0.000000975149
      17       -0.000010329758    -0.000002548815    -0.000029417754
      18       -0.000005606053    -0.000007850009     0.000005539594
      19        0.000002376505     0.000006925036     0.000002364133
      20       -0.000004205911     0.000008096098     0.000001754783
      21       -0.000005007038     0.000002627832    -0.000006435310
      22        0.000005429282    -0.000009299809     0.000000169026
      23       -0.000005708647     0.000006404779     0.000002899658
      24       -0.000000683047     0.000003192013     0.000001847676
      25       -0.000002206773     0.000006626195    -0.000003300280

  **** Optimization is complete! (in 6 steps) ****
    Final optimized geometry and variables:
    Molecular point group: c1

    Geometry (in Angstrom), charge = 0, multiplicity = 1:

    O            2.989695285172     1.172251657240    -0.214484332994
    C            2.400779188686     0.856445459113     0.767048652049
    C            1.137324509926     0.020922002427     0.721781366843
    C            2.878812740405     1.271291129973     2.140388455777
    C            0.702987484487    -0.386309568055    -0.679631857656
    H            1.304225104964    -0.857534700113     1.340778357992
    H            0.357193531820     0.585297189236     1.226128633076
    C           -0.600259907280    -1.193958639507    -0.706369820710
    H            1.497283770238    -0.949813429534    -1.152971869883
    H            0.590555465580     0.504873506822    -1.286997099824
    C           -1.867517335575    -0.342811025908    -0.693041770159
    H           -0.602847592453    -1.832870409851    -1.583895572968
    H           -0.619528289919    -1.875863635740     0.141549152073
    C           -3.150661399485    -1.168771370951    -0.682654340584
    H           -1.866765703907     0.307073451760    -1.564443916247
    H           -1.862650294487     0.313829625027     0.173707934751
    C           -4.414211053465    -0.314859852661    -0.691409090778
    H           -3.157281342958    -1.829991886108    -1.544837035257
    H           -3.156854481290    -1.811898188686     0.193239343093
    H           -4.454624971035     0.315183288955    -1.573678642938
    H           -5.305500295469    -0.931704278899    -0.684988374146
    H           -4.454902153817     0.333373312338     0.177797047243
    H            3.071556172553     0.395226861557     2.749766299952
    H            3.780083851702     1.858215383769     2.052635777235
    H            2.112988394334     1.851527465524     2.643301389630

  Mulliken Charges: (a.u.)
   Center  Symbol    Alpha    Beta     Spin     Total
       1     O     4.17091  4.17091  0.00000 -0.34181
       2     C     2.86157  2.86157  0.00000  0.27687
       3     C     3.10957  3.10957  0.00000 -0.21913
       4     C     3.15075  3.15075  0.00000 -0.30150
       5     C     3.09402  3.09402  0.00000 -0.18803
       6     H     0.44501  0.44501  0.00000  0.10998
       7     H     0.44598  0.44598  0.00000  0.10805
       8     C     3.10127  3.10127  0.00000 -0.20254
       9     H     0.44006  0.44006  0.00000  0.11988
      10     H     0.44668  0.44668  0.00000  0.10664
      11     C     3.08498  3.08498  0.00000 -0.16996
      12     H     0.44462  0.44462  0.00000  0.11076
      13     H     0.45754  0.45754  0.00000  0.08493
      14     C     3.08487  3.08487  0.00000 -0.16973
      15     H     0.45244  0.45244  0.00000  0.09512
      16     H     0.45712  0.45712  0.00000  0.08576
      17     C     3.14964  3.14964  0.00000 -0.29927
      18     H     0.45360  0.45360  0.00000  0.09279
      19     H     0.45468  0.45468  0.00000  0.09064
      20     H     0.45445  0.45445  0.00000  0.09110
      21     H     0.44816  0.44816  0.00000  0.10367
      22     H     0.45589  0.45589  0.00000  0.08822
      23     H     0.45030  0.45030  0.00000  0.09939
      24     H     0.43535  0.43535  0.00000  0.12930
      25     H     0.45056  0.45056  0.00000  0.09888

   Total alpha = 36.00000, Total beta = 36.00000, Total charge = -0.00000
