  ==> Input File <==

--------------------------------------------------------------------------
set {
	reference rhf
	basis cc-pvtz
}

set_num_threads( 4 )
memory 2 gb

molecule MOL {
0 1

H	 -0.081634	 -0.547896	 -0.818849
N	 -0.625934	 -0.663929	 -0.000707
C	 -1.978635	 -0.158664	 0.001017
C	 -0.060256	 -1.290137	 1.054970
H	 -2.519057	 -0.493535	 -0.876362
H	 -1.938890	 0.917202	 -0.004137
H	 -2.514266	 -0.485137	 0.884506
C	 1.366433	 -1.740428	 0.829990
O	 -0.632679	 -1.484176	 2.086356
H	 2.000789	 -0.890184	 0.608011
H	 1.722785	 -2.231335	 1.720547
H	 1.419708	 -2.427061	 -0.006858

	symmetry c1
}
set optking {
	frozen_dihedral = ("
		4 2 3 5
	")
}

ee = optimize('scf')
oeprop('DIPOLE', 'QUADRUPOLE', 'MULLIKEN_CHARGES')
f=open( 'psi4out.xyz', 'w' )
f.write( "12  " )
f.write( str(ee) + "\n" )
f.write( MOL.save_string_xyz() )
f.close()
--------------------------------------------------------------------------

    Molecular point group: c1
  Charge       = 0
  Multiplicity = 1
  Basis Set: CC-PVTZ
  Basis Set:
  @DF-RHF Final Energy:  -247.10036510529372
    Total Energy =                       -247.1003651052937471
    Molecular point group: c1
  Basis Set: CC-PVTZ
  Basis Set:
  Basis Set: CC-PVTZ
  Basis Set:
  @DF-RHF Final Energy:  -247.10086324014281
    Total Energy =                       -247.1008632401425871
  Basis Set: CC-PVTZ
  Basis Set:
  Basis Set: CC-PVTZ
  Basis Set:
  @DF-RHF Final Energy:  -247.10057249128371
    Total Energy =                       -247.1005724912835717
  Basis Set: CC-PVTZ
  Basis Set:
  Basis Set: CC-PVTZ
  Basis Set:
  @DF-RHF Final Energy:  -247.10100384032847
    Total Energy =                       -247.1010038403286444
  Basis Set: CC-PVTZ
  Basis Set:
  Basis Set: CC-PVTZ
  Basis Set:
  @DF-RHF Final Energy:  -247.10100812275499
    Total Energy =                       -247.1010081227548767
  Basis Set: CC-PVTZ
  Basis Set:
  Basis Set: CC-PVTZ
  Basis Set:
  @DF-RHF Final Energy:  -247.10101016792802
    Total Energy =                       -247.1010101679279956
  Basis Set: CC-PVTZ
  Basis Set:
  Basis Set: CC-PVTZ
  Basis Set:
  @DF-RHF Final Energy:  -247.10101168073535
    Total Energy =                       -247.1010116807356098
  Basis Set: CC-PVTZ
  Basis Set:
  Charge       = 0
  Multiplicity = 1
  Basis Set: CC-PVTZ
  Basis Set:

    Orbital Energies (a.u.)
    -----------------------

    Doubly Occupied:

       1A    -20.506725     2A    -15.574869     3A    -11.336838
       4A    -11.252466     5A    -11.228081     6A     -1.388547
       7A     -1.231012     8A     -1.016695     9A     -0.932857
      10A     -0.788199    11A     -0.690956    12A     -0.651697
      13A     -0.635417    14A     -0.586812    15A     -0.582984
      16A     -0.555634    17A     -0.544919    18A     -0.511220
      19A     -0.417335    20A     -0.389405

  @DF-RHF Final Energy:  -247.10101221343655

   => Energetics <=

    Nuclear Repulsion Energy =            181.6485560880851153
    One-Electron Energy =                -695.8537959372923751
    Two-Electron Energy =                 267.1042276357705987
    DFT Exchange-Correlation Energy =       0.0000000000000000
    Empirical Dispersion Energy =           0.0000000000000000
    PCM Polarization Energy =               0.0000000000000000
    EFP Energy =                            0.0000000000000000
    Total Energy =                       -247.1010122134366611
    Molecular point group: c1
  Basis Set: CC-PVTZ
  Basis Set:

  -Total Gradient:
     Atom            X                  Y                   Z
    ------   -----------------  -----------------  -----------------
       1        0.000010627149     0.000018502230     0.000012779187
       2        0.000017650780     0.000122670419     0.000055586990
       3        0.000047908916     0.000080601531    -0.000106331967
       4       -0.000043931794    -0.000138730700    -0.000011142179
       5       -0.000043033370    -0.000100786691     0.000068122008
       6       -0.000007560798     0.000002262333    -0.000005369104
       7        0.000005725555    -0.000001202516     0.000003263418
       8        0.000020082492     0.000047326189     0.000018204627
       9        0.000000881450    -0.000004850624    -0.000022067603
      10        0.000012584481    -0.000014709630    -0.000019876997
      11        0.000000119353     0.000001896702     0.000000254567
      12       -0.000021054213    -0.000012979244     0.000006577052

  **** Optimization is complete! (in 8 steps) ****
    Final optimized geometry and variables:
    Molecular point group: c1

    Geometry (in Angstrom), charge = 0, multiplicity = 1:

    H            0.320821467765     0.517740748724    -1.604395187232
    N           -0.233708883550     0.380618416283    -0.796358601583
    C           -1.576733151054     0.910828608822    -0.787333505776
    C            0.333358814861    -0.231590525690     0.267033180978
    H           -2.127579673702     0.561382728964    -1.651703947812
    H           -1.576278797810     1.994956199111    -0.789682880544
    H           -2.072591755208     0.567761984176     0.104845400300
    C            1.760933882326    -0.682651230792     0.047852832165
    O           -0.238671513985    -0.410591345348     1.301173917160
    H            2.397260298679     0.169071924301    -0.163306139838
    H            2.111375113489    -1.179419476217     0.937595065432
    H            1.819623712830    -1.362917329548    -0.793689907867

  Mulliken Charges: (a.u.)
   Center  Symbol    Alpha    Beta     Spin     Total
       1     H     0.41045  0.41045  0.00000  0.17910
       2     N     3.62168  3.62168  0.00000 -0.24336
       3     C     3.08547  3.08547  0.00000 -0.17095
       4     C     2.83664  2.83664  0.00000  0.32672
       5     H     0.45519  0.45519  0.00000  0.08961
       6     H     0.45631  0.45631  0.00000  0.08738
       7     H     0.43156  0.43156  0.00000  0.13688
       8     C     3.15359  3.15359  0.00000 -0.30717
       9     O     4.21549  4.21549  0.00000 -0.43097
      10     H     0.44998  0.44998  0.00000  0.10003
      11     H     0.43353  0.43353  0.00000  0.13293
      12     H     0.45010  0.45010  0.00000  0.09980

   Total alpha = 20.00000, Total beta = 20.00000, Total charge = -0.00000
