                              Psi4 1.0.54 Driver

  ==> Input File <==

--------------------------------------------------------------------------
set {
	reference rhf
	basis cc-pvtz
}

set_num_threads( 4 )
memory 2 gb

molecule MOL {
0 1

H	 -3.582083	 1.433893	 -0.307250
C	 -2.857486	 0.864309	 0.237581
C	 -2.105997	 -0.000418	 -0.398703
H	 -2.764985	 1.019348	 1.294560
O	 -1.189946	 -0.765863	 0.237511
H	 -2.184461	 -0.157681	 -1.459004
C	 0.026572	 -0.995256	 -0.379403
C	 1.057223	 0.049888	 -0.004615
H	 -0.054361	 -1.010670	 -1.459674
H	 0.397526	 -1.952058	 -0.044198
F	 2.203233	 -0.234060	 -0.590375
F	 0.698147	 1.254887	 -0.392621
F	 1.266440	 0.094219	 1.288722

	symmetry c1
}
set optking {
	frozen_dihedral = ("
		6 3 5 7
	")
}

ee,wfn = optimize('scf', return_wfn=True)
oeprop( wfn, 'DIPOLE', 'QUADRUPOLE', 'MULLIKEN_CHARGES')
f=open( 'psi4out.xyz', 'w' )
f.write( "13  " )
f.write( str(ee) + "\n" )
f.write( MOL.save_string_xyz() )
f.close()
--------------------------------------------------------------------------

    Molecular point group: c1
  Charge       = 0
  Multiplicity = 1
  Basis Set: CC-PVTZ
  Basis Set:
  @DF-RHF Final Energy:  -527.74083604346060
    Total Energy =                       -527.7408360434606038
    Molecular point group: c1
  Basis Set: CC-PVTZ
  Basis Set:
  Basis Set: CC-PVTZ
  Basis Set:
  @DF-RHF Final Energy:  -527.74086642972668
    Total Energy =                       -527.7408664297264522
  Basis Set: CC-PVTZ
  Basis Set:
  Basis Set: CC-PVTZ
  Basis Set:
  @DF-RHF Final Energy:  -527.74112948272762
    Total Energy =                       -527.7411294827278425
  Basis Set: CC-PVTZ
  Basis Set:
  Basis Set: CC-PVTZ
  Basis Set:
  @DF-RHF Final Energy:  -527.74113421124810
    Total Energy =                       -527.7411342112482089
  Basis Set: CC-PVTZ
  Basis Set:
  Basis Set: CC-PVTZ
  Basis Set:
  @DF-RHF Final Energy:  -527.74113536023356
    Total Energy =                       -527.7411353602337840
  Basis Set: CC-PVTZ
  Basis Set:
  Charge       = 0
  Multiplicity = 1
  Basis Set: CC-PVTZ
  Basis Set:

    Orbital Energies (a.u.)
    -----------------------

    Doubly Occupied:

       1A    -26.339475     2A    -26.337610     3A    -26.336096
       4A    -20.601128     5A    -11.495752     6A    -11.318133
       7A    -11.296656     8A    -11.217473     9A     -1.748164
      10A     -1.644411    11A     -1.643142    12A     -1.440933
      13A     -1.085629    14A     -1.021037    15A     -0.930367
      16A     -0.842014    17A     -0.837209    18A     -0.823210
      19A     -0.798086    20A     -0.722721    21A     -0.718046
      22A     -0.696578    23A     -0.681251    24A     -0.668908
      25A     -0.659686    26A     -0.648683    27A     -0.647671
      28A     -0.585223    29A     -0.568334    30A     -0.530227
      31A     -0.501736    32A     -0.363957

  @DF-RHF Final Energy:  -527.74113581045799

   => Energetics <=

    Nuclear Repulsion Energy =            415.4718513127638744
    One-Electron Energy =               -1554.9268782387575811
    Two-Electron Energy =                 611.7138911155359438
    DFT Exchange-Correlation Energy =       0.0000000000000000
    Empirical Dispersion Energy =           0.0000000000000000
    PCM Polarization Energy =               0.0000000000000000
    EFP Energy =                            0.0000000000000000
    Total Energy =                       -527.7411358104577630
    Molecular point group: c1
  Basis Set: CC-PVTZ
  Basis Set:

  -Total Gradient:
     Atom            X                  Y                   Z
    ------   -----------------  -----------------  -----------------
       1        0.000012126394    -0.000000237678    -0.000009713481
       2       -0.000041441507     0.000008757382     0.000031690806
       3        0.002046672343     0.002417467330    -0.000068369892
       4        0.000017107438    -0.000008377314    -0.000008692943
       5       -0.001305098852    -0.002322474588    -0.000912369433
       6       -0.001371022097    -0.001344095782     0.000267670904
       7        0.000623225208     0.001221227111     0.000692581079
       8       -0.000035072982     0.000100509607    -0.000035153528
       9       -0.000000305350     0.000001746988     0.000001929681
      10        0.000002769620     0.000008567435     0.000005770553
      11        0.000010913275    -0.000031451461    -0.000020042375
      12        0.000044079482    -0.000031560271     0.000006739314
      13       -0.000003952971    -0.000020078764     0.000047959321

  **** Optimization is complete! (in 6 steps) ****
    Final optimized geometry and variables:
    Molecular point group: c1

    Geometry (in Angstrom), charge = 0, multiplicity = 1:

    H           -3.655491324762     1.379423052079    -0.274823077281
    C           -2.918700329173     0.815966433365     0.260750549613
    C           -2.134280603969    -0.007413950367    -0.388077778239
    H           -2.848767641728     0.934944559478     1.324148037965
    O           -1.243011959981    -0.812867426303     0.241701815993
    H           -2.198506647341    -0.148430291437    -1.453272256988
    C           -0.030138535135    -1.053313241102    -0.380887525789
    C            1.015699401879    -0.016565542136    -0.024067940759
    H           -0.119272381348    -1.075534116465    -1.461127739542
    H            0.336072548264    -2.009848691935    -0.039741315458
    F            2.162193232560    -0.343883531271    -0.587704889604
    F            0.691818021533     1.184158938392    -0.449194639843
    F            1.211766193396     0.057921176093     1.270662018845

  Mulliken Charges: (a.u.)
   Center  Symbol    Alpha    Beta     Spin     Total
       1     H     0.42504  0.42504  0.00000  0.14991
       2     C     3.18262  3.18262  0.00000 -0.36524
       3     C     2.96731  2.96731  0.00000  0.06539
       4     H     0.42273  0.42273  0.00000  0.15453
       5     O     4.14956  4.14956  0.00000 -0.29912
       6     H     0.43629  0.43629  0.00000  0.12742
       7     C     3.01667  3.01667  0.00000 -0.03333
       8     C     2.67637  2.67637  0.00000  0.64725
       9     H     0.45647  0.45647  0.00000  0.08707
      10     H     0.43781  0.43781  0.00000  0.12438
      11     F     4.61296  4.61296  0.00000 -0.22592
      12     F     4.60855  4.60855  0.00000 -0.21710
      13     F     4.60762  4.60762  0.00000 -0.21525

   Total alpha = 32.00000, Total beta = 32.00000, Total charge =  0.00000

*** Psi4 exiting successfully. Buy a developer a beer!
