  ==> Input File <==

--------------------------------------------------------------------------
set {
	reference rhf
	basis 6-31G*
}

set_num_threads( 1 )
memory 2 gb

molecule MOL {
0 1

H	 -2.078599	 -1.195644	 1.349977
C	 -2.435624	 -0.809112	 0.397472
O	 -1.392607	 -0.295399	 -0.366433
H	 -2.882667	 -1.618363	 -0.163248
H	 -3.196957	 -0.055478	 0.594540
C	 -0.719715	 0.768384	 0.229244
C	 0.719720	 0.768376	 -0.229267
H	 -1.185038	 1.714362	 -0.050570
H	 -0.750528	 0.687237	 1.313896
O	 1.392611	 -0.295398	 0.366430
H	 0.750534	 0.687200	 -1.313918
H	 1.185043	 1.714359	 0.050526
C	 2.706965	 -0.449871	 -0.062409
H	 2.756559	 -0.644779	 -1.131878
H	 3.305899	 0.433456	 0.155466
H	 3.125548	 -1.294566	 0.467107

	symmetry c1
}
set optking {
	frozen_dihedral = ("
		3 6 7 11,
		7 10 13 14
	")
}

ee = energy('scf')
oeprop('DIPOLE', 'QUADRUPOLE', 'MULLIKEN_CHARGES')
f=open( 'psi4out.xyz', 'w' )
f.write( "16  " )
f.write( str(ee) + "\n" )
f.write( MOL.save_string_xyz() )
f.close()
--------------------------------------------------------------------------

    Molecular point group: c1

    Geometry (in Angstrom), charge = 0, multiplicity = 1:

       Center              X                  Y                   Z               Mass
    ------------   -----------------  -----------------  -----------------  -----------------
           H         -2.126274804477    -1.132521835336     1.291107279631     1.007825032070
           C         -2.483299804477    -0.745989835336     0.338602279631    12.000000000000
           O         -1.440282804477    -0.232276835336    -0.425302720369    15.994914619560
           H         -2.930342804477    -1.555240835336    -0.222117720369     1.007825032070
           H         -3.244632804477     0.007644164664     0.535670279631     1.007825032070
           C         -0.767390804477     0.831506164664     0.170374279631    12.000000000000
           C          0.672044195523     0.831498164664    -0.288136720369    12.000000000000
           H         -1.232713804477     1.777484164664    -0.109439720369     1.007825032070
           H         -0.798203804477     0.750359164664     1.255026279631     1.007825032070
           O          1.344935195523    -0.232275835336     0.307560279631    15.994914619560
           H          0.702858195523     0.750322164664    -1.372787720369     1.007825032070
           H          1.137367195523     1.777481164664    -0.008343720369     1.007825032070
           C          2.659289195523    -0.386748835336    -0.121278720369    12.000000000000
           H          2.708883195523    -0.581656835336    -1.190747720369     1.007825032070
           H          3.258223195523     0.496578164664     0.096596279631     1.007825032070
           H          3.077872195523    -1.231443835336     0.408237279631     1.007825032070

  Charge       = 0
  Multiplicity = 1
  Basis Set: 6-31G*
  Basis Set:

    Orbital Energies (a.u.)
    -----------------------

    Doubly Occupied:

       1A    -20.554212     2A    -20.552184     3A    -11.268349
       4A    -11.267622     5A    -11.264129     6A    -11.262347
       7A     -1.388359     8A     -1.370282     9A     -1.030126
      10A     -0.936693    11A     -0.891064    12A     -0.824166
      13A     -0.682053    14A     -0.681497    15A     -0.657180
      16A     -0.632946    17A     -0.630491    18A     -0.599495
      19A     -0.544850    20A     -0.538236    21A     -0.510367
      22A     -0.477993    23A     -0.463685    24A     -0.417065
      25A     -0.410304

  @DF-RHF Final Energy:  -306.97657385317359

   => Energetics <=

    Nuclear Repulsion Energy =            259.9393110444073045
    One-Electron Energy =                -934.1202968242918132
    Two-Electron Energy =                 367.2044119267109750
    DFT Exchange-Correlation Energy =       0.0000000000000000
    Empirical Dispersion Energy =           0.0000000000000000
    PCM Polarization Energy =               0.0000000000000000
    EFP Energy =                            0.0000000000000000
    Total Energy =                       -306.9765738531735337

  Mulliken Charges: (a.u.)
   Center  Symbol    Alpha    Beta     Spin     Total
       1     H     0.42522  0.42522  0.00000  0.14957
       2     C     3.08061  3.08061  0.00000 -0.16123
       3     O     4.30160  4.30160  0.00000 -0.60319
       4     H     0.41258  0.41258  0.00000  0.17484
       5     H     0.43198  0.43198  0.00000  0.13603
       6     C     2.99483  2.99483  0.00000  0.01033
       7     C     2.99290  2.99290  0.00000  0.01420
       8     H     0.42900  0.42900  0.00000  0.14200
       9     H     0.42301  0.42301  0.00000  0.15398
      10     O     4.30202  4.30202  0.00000 -0.60404
      11     H     0.42259  0.42259  0.00000  0.15483
      12     H     0.43308  0.43308  0.00000  0.13384
      13     C     3.07948  3.07948  0.00000 -0.15896
      14     H     0.42787  0.42787  0.00000  0.14427
      15     H     0.43156  0.43156  0.00000  0.13688
      16     H     0.41168  0.41168  0.00000  0.17664

   Total alpha = 25.00000, Total beta = 25.00000, Total charge =  0.00000
