  ==> Input File <==

--------------------------------------------------------------------------
set {
	reference rhf
	basis cc-pvtz
}

set_num_threads( 4 )
memory 2 gb

molecule MOL {
0 1

O	 -0.377998	 0.231423	 -0.808401
C	 0.485107	 0.171416	 -0.000134
C	 1.606966	 -0.836201	 0.000174
O	 0.579025	 0.996997	 1.027573
C	 2.988788	 -0.202529	 -0.000115
H	 1.465110	 -1.474645	 -0.864821
H	 1.465209	 -1.474077	 0.865596
H	 3.131767	 0.419673	 -0.873407
H	 3.750876	 -0.972315	 0.000098
H	 3.131883	 0.420264	 0.872742
C	 -0.412468	 2.005764	 1.160302
C	 -0.090568	 2.809454	 2.398426
H	 -1.384349	 1.538192	 1.232220
H	 -0.408191	 2.623905	 0.273619
H	 -0.096772	 2.180031	 3.279426
H	 -0.830198	 3.590419	 2.529851
H	 0.884900	 3.271983	 2.315360

	symmetry c1
}
set optking {
	frozen_dihedral = ("
		4 2 3 6
	")
}

ee = optimize('scf')
oeprop('DIPOLE', 'QUADRUPOLE', 'MULLIKEN_CHARGES')
f=open( 'psi4out.xyz', 'w' )
f.write( "17  " )
f.write( str(ee) + "\n" )
f.write( MOL.save_string_xyz() )
f.close()
--------------------------------------------------------------------------

    Molecular point group: c1
  Charge       = 0
  Multiplicity = 1
  Basis Set: CC-PVTZ
  Basis Set:
  @DF-RHF Final Energy:  -345.03872584271863
    Total Energy =                       -345.0387258427188044
    Molecular point group: c1
  Basis Set: CC-PVTZ
  Basis Set:
  Basis Set: CC-PVTZ
  Basis Set:
  @DF-RHF Final Energy:  -345.03885471463479
    Total Energy =                       -345.0388547146349083
  Basis Set: CC-PVTZ
  Basis Set:
  Basis Set: CC-PVTZ
  Basis Set:
  @DF-RHF Final Energy:  -345.03843625089792
    Total Energy =                       -345.0384362508978029
  Basis Set: CC-PVTZ
  Basis Set:
  Basis Set: CC-PVTZ
  Basis Set:
  @DF-RHF Final Energy:  -345.03902632905198
    Total Energy =                       -345.0390263290519215
  Basis Set: CC-PVTZ
  Basis Set:
  Basis Set: CC-PVTZ
  Basis Set:
  @DF-RHF Final Energy:  -345.03902880260910
    Total Energy =                       -345.0390288026085841
  Basis Set: CC-PVTZ
  Basis Set:
  Charge       = 0
  Multiplicity = 1
  Basis Set: CC-PVTZ
  Basis Set:

    Orbital Energies (a.u.)
    -----------------------

    Doubly Occupied:

       1A    -20.594230     2A    -20.531611     3A    -11.362787
       4A    -11.282868     5A    -11.235174     6A    -11.222882
       7A    -11.220807     8A     -1.470394     9A     -1.363770
      10A     -1.073867    11A     -1.031244    12A     -0.907973
      13A     -0.858072    14A     -0.779654    15A     -0.695059
      16A     -0.681967    17A     -0.673970    18A     -0.622889
      19A     -0.592297    20A     -0.575130    21A     -0.553639
      22A     -0.544843    23A     -0.525942    24A     -0.510420
      25A     -0.505284    26A     -0.496940    27A     -0.455634
      28A     -0.434460

  @DF-RHF Final Energy:  -345.03902893632977

   => Energetics <=

    Nuclear Repulsion Energy =            317.6630204781828866
    One-Electron Energy =               -1099.7964863323006739
    Two-Electron Energy =                 437.0944369177877888
    DFT Exchange-Correlation Energy =       0.0000000000000000
    Empirical Dispersion Energy =           0.0000000000000000
    PCM Polarization Energy =               0.0000000000000000
    EFP Energy =                            0.0000000000000000
    Total Energy =                       -345.0390289363299416
    Molecular point group: c1
  Basis Set: CC-PVTZ
  Basis Set:

  -Total Gradient:
     Atom            X                  Y                   Z
    ------   -----------------  -----------------  -----------------
       1        0.000022461262    -0.000005579855     0.000004925538
       2       -0.000279453958    -0.000279256257     0.000173160195
       3       -0.000198612947    -0.000212528482     0.000215672911
       4        0.000218290824     0.000266119905    -0.000158793644
       5       -0.000020905448    -0.000018293036     0.000001478657
       6        0.000240882421     0.000273451197    -0.000225797345
       7       -0.000005807141    -0.000005074472     0.000000614838
       8        0.000007897653     0.000003132194    -0.000001277991
       9        0.000008516806    -0.000001621967    -0.000000248380
      10       -0.000003706324    -0.000000467870    -0.000003891845
      11        0.000001079336    -0.000019319401    -0.000003568793
      12        0.000006115437    -0.000002886028     0.000000252885
      13        0.000001008089     0.000002601886     0.000000108616
      14       -0.000000308105     0.000001740537    -0.000003633404
      15        0.000000429575     0.000000116774     0.000002818342
      16        0.000000578535    -0.000003762102    -0.000003847455
      17        0.000001533988     0.000001626982     0.000002026876

  **** Optimization is complete! (in 6 steps) ****
    Final optimized geometry and variables:
    Molecular point group: c1

    Geometry (in Angstrom), charge = 0, multiplicity = 1:

    O           -1.045793394093    -0.520005804068    -1.356070149867
    C           -0.187621247749    -0.580565550137    -0.541990322998
    C            0.924042976054    -1.599434986700    -0.547226971790
    O           -0.103617974168     0.244736413637     0.486899647335
    C            2.319172327841    -0.974954680443    -0.560213916086
    H            0.773893952879    -2.223513162740    -1.415401518792
    H            0.806597914598    -2.215848622627     0.337430471098
    H            2.454722255672    -0.343411019703    -1.430561785217
    H            3.071445470391    -1.752855732190    -0.594495601620
    H            2.489554671478    -0.375950880945     0.323424705342
    C           -1.098031279978     1.251688582485     0.611950234620
    C           -0.786589833931     2.057820438467     1.851154357377
    H           -2.069149651484     0.781801103619     0.677652962963
    H           -1.088986247751     1.868317012820    -0.275660406913
    H           -0.796384085363     1.429505502251     2.732932267340
    H           -1.529857611758     2.836243848869     1.976836813450
    H            0.187581636442     2.524191272122     1.773939155486

  Mulliken Charges: (a.u.)
   Center  Symbol    Alpha    Beta     Spin     Total
       1     O     4.19894  4.19894  0.00000 -0.39789
       2     C     2.80804  2.80804  0.00000  0.38393
       3     C     3.08456  3.08456  0.00000 -0.16912
       4     O     4.15394  4.15394  0.00000 -0.30789
       5     C     3.14934  3.14934  0.00000 -0.29868
       6     H     0.43620  0.43620  0.00000  0.12760
       7     H     0.44800  0.44800  0.00000  0.10400
       8     H     0.45050  0.45050  0.00000  0.09900
       9     H     0.44793  0.44793  0.00000  0.10415
      10     H     0.44599  0.44599  0.00000  0.10802
      11     C     2.97844  2.97844  0.00000  0.04313
      12     C     3.13380  3.13380  0.00000 -0.26760
      13     H     0.45313  0.45313  0.00000  0.09374
      14     H     0.45438  0.45438  0.00000  0.09124
      15     H     0.45148  0.45148  0.00000  0.09705
      16     H     0.45391  0.45391  0.00000  0.09219
      17     H     0.45143  0.45143  0.00000  0.09713

   Total alpha = 28.00000, Total beta = 28.00000, Total charge = -0.00000
