  ==> Input File <==

--------------------------------------------------------------------------
set {
	reference rhf
	basis cc-pvtz
}

set_num_threads( 4 )
memory 2 gb

molecule MOL {
0 1

H	 -2.071965	 1.183497	 0.348795
C	 -2.006569	 0.211706	 -0.129732
O	 -0.775228	 0.000056	 -0.739966
H	 -2.752439	 0.170807	 -0.910858
H	 -2.243794	 -0.552053	 0.603772
C	 0.406133	 -0.000384	 0.036994
C	 1.526415	 -0.003194	 -0.997339
C	 0.498772	 1.259027	 0.900673
C	 0.495883	 -1.257378	 0.904465
H	 1.452279	 0.872071	 -1.630204
H	 1.451276	 -0.881020	 -1.626529
H	 2.497919	 -0.002741	 -0.517601
H	 0.368981	 2.144239	 0.289753
H	 1.470064	 1.313479	 1.377660
H	 -0.248448	 1.271586	 1.684297
H	 0.363971	 -2.144195	 0.296316
H	 1.467114	 -1.312636	 1.381470
H	 -0.251246	 -1.265768	 1.688235

	symmetry c1
}
set optking {
	frozen_dihedral = ("
		2 3 6 7
	")
}

ee = optimize('scf')
oeprop('DIPOLE', 'QUADRUPOLE', 'MULLIKEN_CHARGES')
f=open( 'psi4out.xyz', 'w' )
f.write( "18  " )
f.write( str(ee) + "\n" )
f.write( MOL.save_string_xyz() )
f.close()
--------------------------------------------------------------------------

    Molecular point group: c1
  Charge       = 0
  Multiplicity = 1
  Basis Set: CC-PVTZ
  Basis Set:
  @DF-RHF Final Energy:  -271.27645024540323
    Total Energy =                       -271.2764502454031685
    Molecular point group: c1
  Basis Set: CC-PVTZ
  Basis Set:
  Basis Set: CC-PVTZ
  Basis Set:
  @DF-RHF Final Energy:  -271.27657394499045
    Total Energy =                       -271.2765739449903890
  Basis Set: CC-PVTZ
  Basis Set:
  Basis Set: CC-PVTZ
  Basis Set:
  @DF-RHF Final Energy:  -271.27664796150071
    Total Energy =                       -271.2766479615008279
  Basis Set: CC-PVTZ
  Basis Set:
  Basis Set: CC-PVTZ
  Basis Set:
  @DF-RHF Final Energy:  -271.27665108999400
    Total Energy =                       -271.2766510899941750
  Basis Set: CC-PVTZ
  Basis Set:
  Basis Set: CC-PVTZ
  Basis Set:
  @DF-RHF Final Energy:  -271.27665818304831
    Total Energy =                       -271.2766581830482551
  Basis Set: CC-PVTZ
  Basis Set:
  Charge       = 0
  Multiplicity = 1
  Basis Set: CC-PVTZ
  Basis Set:

    Orbital Energies (a.u.)
    -----------------------

    Doubly Occupied:

       1A    -20.540477     2A    -11.280134     3A    -11.258276
       4A    -11.208306     5A    -11.205943     6A    -11.201845
       7A     -1.373525     8A     -1.074643     9A     -0.947397
      10A     -0.940277    11A     -0.913125    12A     -0.753466
      13A     -0.656771    14A     -0.646926    15A     -0.639587
      16A     -0.592904    17A     -0.575503    18A     -0.553220
      19A     -0.534670    20A     -0.525203    21A     -0.515191
      22A     -0.489631    23A     -0.487401    24A     -0.441090
      25A     -0.406952

  @DF-RHF Final Energy:  -271.27665889793388

   => Energetics <=

    Nuclear Repulsion Energy =            272.6968004149703120
    One-Electron Energy =                -908.4219975949170021
    Two-Electron Energy =                 364.4485382820125778
    DFT Exchange-Correlation Energy =       0.0000000000000000
    Empirical Dispersion Energy =           0.0000000000000000
    PCM Polarization Energy =               0.0000000000000000
    EFP Energy =                            0.0000000000000000
    Total Energy =                       -271.2766588979341122
    Molecular point group: c1
  Basis Set: CC-PVTZ
  Basis Set:

  -Total Gradient:
     Atom            X                  Y                   Z
    ------   -----------------  -----------------  -----------------
       1        0.000001799428    -0.000000915224    -0.000003924451
       2        0.000066419656     0.000644742258    -0.000098515636
       3       -0.000083512609    -0.000841727091     0.000101852453
       4        0.000000950256     0.000000249461     0.000001557159
       5       -0.000012047289     0.000004780658    -0.000000245540
       6        0.000011236582    -0.000363716362    -0.000042357588
       7        0.000008103363     0.000547555469     0.000031784167
       8       -0.000022614506     0.000015136555     0.000015866968
       9        0.000017054980     0.000001066893     0.000000547060
      10        0.000002748535     0.000000264077     0.000006484219
      11       -0.000006054839    -0.000002422658    -0.000003857450
      12       -0.000000650351    -0.000003345028     0.000000875514
      13       -0.000007217404    -0.000000761817     0.000002117011
      14        0.000008326913     0.000008979726    -0.000005502403
      15        0.000011076056    -0.000002609727     0.000002942526
      16       -0.000032795027    -0.000007099124     0.000001434615
      17        0.000009178224    -0.000020795198    -0.000028204647
      18        0.000027998029     0.000020617131     0.000017146024

  **** Optimization is complete! (in 6 steps) ****
    Final optimized geometry and variables:
    Molecular point group: c1

    Geometry (in Angstrom), charge = 0, multiplicity = 1:

    H           -2.114406604868     1.185088385273     0.250715934897
    C           -2.007797267799     0.172287689295    -0.123673323726
    O           -0.777604500173    -0.036598680242    -0.737368694102
    H           -2.764948961153     0.009466901916    -0.877606732541
    H           -2.191211105746    -0.518935075218     0.693080548189
    C            0.405033710391    -0.034347700704     0.038444748637
    C            1.526887243833    -0.034392087388    -0.994079080496
    C            0.506157603899     1.217498768984     0.911785501465
    C            0.482010193138    -1.298804284070     0.896018963890
    H            1.472407115875     0.857145952162    -1.605897960312
    H            1.434691278977    -0.895126268449    -1.644263005277
    H            2.497357145158    -0.066492085941    -0.513182274385
    H            0.378202738020     2.110606196621     0.311728853763
    H            1.481240140491     1.261910107455     1.381500957396
    H           -0.235725836612     1.225682436433     1.700641957957
    H            0.372630378910    -2.178538366022     0.273866134230
    H            1.438378094061    -1.354369082184     1.402687666216
    H           -0.289965074849    -1.320427768617     1.655217479994

  Mulliken Charges: (a.u.)
   Center  Symbol    Alpha    Beta     Spin     Total
       1     H     0.46787  0.46787  0.00000  0.06426
       2     C     3.04445  3.04445  0.00000 -0.08891
       3     O     4.19058  4.19058  0.00000 -0.38115
       4     H     0.44103  0.44103  0.00000  0.11793
       5     H     0.47034  0.47034  0.00000  0.05932
       6     C     2.87392  2.87392  0.00000  0.25217
       7     C     3.14145  3.14145  0.00000 -0.28289
       8     C     3.16890  3.16890  0.00000 -0.33779
       9     C     3.15865  3.15865  0.00000 -0.31731
      10     H     0.44970  0.44970  0.00000  0.10059
      11     H     0.44811  0.44811  0.00000  0.10378
      12     H     0.45935  0.45935  0.00000  0.08131
      13     H     0.44481  0.44481  0.00000  0.11039
      14     H     0.44657  0.44657  0.00000  0.10685
      15     H     0.44816  0.44816  0.00000  0.10368
      16     H     0.44635  0.44635  0.00000  0.10731
      17     H     0.45024  0.45024  0.00000  0.09952
      18     H     0.44952  0.44952  0.00000  0.10096

   Total alpha = 25.00000, Total beta = 25.00000, Total charge = -0.00000
