  ==> Input File <==

--------------------------------------------------------------------------
set {
	reference rhf
	basis 6-31G*
}

set_num_threads( 1 )
memory 2 gb

molecule MOL {
0 1

H	 1.003333	 -3.086530	 -1.302671
O	 1.184988	 -2.457230	 -0.611485
C	 0.400508	 -1.396616	 -0.801495
C	 0.624473	 -0.343591	 0.253101
O	 -0.366923	 -1.332859	 -1.705928
C	 -0.265902	 0.883932	 0.072916
H	 0.471458	 -0.821183	 1.215320
H	 1.676963	 -0.073597	 0.219632
C	 -1.728698	 0.646073	 0.462102
H	 -0.209144	 1.219470	 -0.958188
H	 0.135059	 1.692851	 0.673903
C	 -2.482460	 -0.343073	 -0.431425
H	 -2.245265	 1.602650	 0.432430
H	 -1.779332	 0.308348	 1.496285
C	 -3.960546	 -0.461025	 -0.060175
H	 -2.395034	 -0.026811	 -1.468912
H	 -2.024850	 -1.327147	 -0.371646
H	 -4.472726	 -1.168004	 -0.705284
H	 -4.465146	 0.496508	 -0.151489
H	 -4.081218	 -0.800940	 0.964585

	symmetry c1
}
set optking {
	frozen_dihedral = ("
		16 12 9 6,
		12 9 6 10,
		5 3 4 7,
		1 2 3 5
	")
}

ee = energy('scf')
oeprop('DIPOLE', 'QUADRUPOLE', 'MULLIKEN_CHARGES')
f=open( 'psi4out.xyz', 'w' )
f.write( "20  " )
f.write( str(ee) + "\n" )
f.write( MOL.save_string_xyz() )
f.close()
--------------------------------------------------------------------------

    Molecular point group: c1

    Geometry (in Angstrom), charge = 0, multiplicity = 1:

       Center              X                  Y                   Z               Mass
    ------------   -----------------  -----------------  -----------------  -----------------
           H          1.816508048306    -2.442222110565    -0.931540384320     1.007825032070
           O          1.998163048306    -1.812922110565    -0.240354384320    15.994914619560
           C          1.213683048306    -0.752308110565    -0.430364384320    12.000000000000
           C          1.437648048306     0.300716889435     0.624231615680    12.000000000000
           O          0.446252048306    -0.688551110565    -1.334797384320    15.994914619560
           C          0.547273048306     1.528239889435     0.444046615680    12.000000000000
           H          1.284633048306    -0.176875110565     1.586450615680     1.007825032070
           H          2.490138048306     0.570710889435     0.590762615680     1.007825032070
           C         -0.915522951694     1.290380889435     0.833232615680    12.000000000000
           H          0.604031048306     1.863777889435    -0.587057384320     1.007825032070
           H          0.948234048306     2.337158889435     1.045033615680     1.007825032070
           C         -1.669284951694     0.301234889435    -0.060294384320    12.000000000000
           H         -1.432089951694     2.246957889435     0.803560615680     1.007825032070
           H         -0.966156951694     0.952655889435     1.867415615680     1.007825032070
           C         -3.147370951694     0.183282889435     0.310955615680    12.000000000000
           H         -1.581858951694     0.617496889435    -1.097781384320     1.007825032070
           H         -1.211674951694    -0.682839110565    -0.000515384320     1.007825032070
           H         -3.659550951694    -0.523696110565    -0.334153384320     1.007825032070
           H         -3.651970951694     1.140815889435     0.219641615680     1.007825032070
           H         -3.268042951694    -0.156632110565     1.335715615680     1.007825032070

  Charge       = 0
  Multiplicity = 1
  Basis Set: 6-31G*
  Basis Set:

    Orbital Energies (a.u.)
    -----------------------

    Doubly Occupied:

       1A    -20.614600     2A    -20.551689     3A    -11.382682
       4A    -11.241760     5A    -11.223574     6A    -11.212678
       7A    -11.198416     8A    -11.197756     9A     -1.477382
      10A     -1.369360    11A     -1.092086    12A     -1.032414
      13A     -0.954512    14A     -0.866617    15A     -0.812417
      16A     -0.768399    17A     -0.704886    18A     -0.691934
      19A     -0.667059    20A     -0.622182    21A     -0.600328
      22A     -0.587665    23A     -0.570365    24A     -0.546941
      25A     -0.540425    26A     -0.512562    27A     -0.492810
      28A     -0.485964    29A     -0.462977    30A     -0.450440
      31A     -0.443829    32A     -0.433329

  @DF-RHF Final Energy:  -383.93599995638436

   => Energetics <=

    Nuclear Repulsion Energy =            397.1026011389797645
    One-Electron Energy =               -1310.4572277636016224
    Two-Electron Energy =                 529.4186266682380619
    DFT Exchange-Correlation Energy =       0.0000000000000000
    Empirical Dispersion Energy =           0.0000000000000000
    PCM Polarization Energy =               0.0000000000000000
    EFP Energy =                            0.0000000000000000
    Total Energy =                       -383.9359999563838528

  Mulliken Charges: (a.u.)
   Center  Symbol    Alpha    Beta     Spin     Total
       1     H     0.26785  0.26785  0.00000  0.46431
       2     O     4.35077  4.35077  0.00000 -0.70153
       3     C     2.62477  2.62477  0.00000  0.75045
       4     C     3.21066  3.21066  0.00000 -0.42131
       5     O     4.27737  4.27737  0.00000 -0.55474
       6     C     3.15808  3.15808  0.00000 -0.31615
       7     H     0.39746  0.39746  0.00000  0.20509
       8     H     0.39531  0.39531  0.00000  0.20939
       9     C     3.15639  3.15639  0.00000 -0.31278
      10     H     0.40871  0.40871  0.00000  0.18258
      11     H     0.41604  0.41604  0.00000  0.16792
      12     C     3.14351  3.14351  0.00000 -0.28701
      13     H     0.42104  0.42104  0.00000  0.15792
      14     H     0.42664  0.42664  0.00000  0.14671
      15     C     3.23892  3.23892  0.00000 -0.47784
      16     H     0.41288  0.41288  0.00000  0.17424
      17     H     0.42148  0.42148  0.00000  0.15703
      18     H     0.41987  0.41987  0.00000  0.16026
      19     H     0.42549  0.42549  0.00000  0.14901
      20     H     0.42676  0.42676  0.00000  0.14647

   Total alpha = 32.00000, Total beta = 32.00000, Total charge =  0.00000
