  ==> Input File <==

--------------------------------------------------------------------------
set {
	reference rhf
	basis cc-pvtz
}

set_num_threads( 4 )
memory 2 gb

molecule MOL {
0 1

H	 -0.718397	 -0.039264	 -2.285974
C	 -0.795643	 -0.797658	 -1.510245
O	 -1.401606	 -0.295183	 -0.366624
H	 -1.405427	 -1.610004	 -1.877867
H	 0.202601	 -1.177440	 -1.300103
C	 -0.718530	 0.758693	 0.228682
C	 0.718529	 0.758687	 -0.228709
H	 -1.176498	 1.708665	 -0.046615
H	 -0.748705	 0.673525	 1.312779
O	 1.401606	 -0.295166	 0.366636
H	 0.748705	 0.673477	 -1.312803
H	 1.176496	 1.708671	 0.046552
C	 2.714315	 -0.441627	 -0.061017
H	 2.765292	 -0.641548	 -1.128869
H	 3.305661	 0.447341	 0.150952
H	 3.143725	 -1.278506	 0.470147

	symmetry c1
}
set optking {
	frozen_dihedral = ("
		2 3 6 7
	")
}

ee = optimize('scf')
oeprop('DIPOLE', 'QUADRUPOLE', 'MULLIKEN_CHARGES')
f=open( 'psi4out.xyz', 'w' )
f.write( "16  " )
f.write( str(ee) + "\n" )
f.write( MOL.save_string_xyz() )
f.close()
--------------------------------------------------------------------------

    Molecular point group: c1
  Charge       = 0
  Multiplicity = 1
  Basis Set: CC-PVTZ
  Basis Set:
  @DF-RHF Final Energy:  -307.07626642402522
    Total Energy =                       -307.0762664240248796
    Molecular point group: c1
  Basis Set: CC-PVTZ
  Basis Set:
  Basis Set: CC-PVTZ
  Basis Set:
  @DF-RHF Final Energy:  -307.08677787715135
    Total Energy =                       -307.0867778771512917
  Basis Set: CC-PVTZ
  Basis Set:
  Basis Set: CC-PVTZ
  Basis Set:
  @DF-RHF Final Energy:  -307.08985089743089
    Total Energy =                       -307.0898508974307219
  Basis Set: CC-PVTZ
  Basis Set:
  Basis Set: CC-PVTZ
  Basis Set:
  @DF-RHF Final Energy:  -307.09016786012546
    Total Energy =                       -307.0901678601258027
  Basis Set: CC-PVTZ
  Basis Set:
  Basis Set: CC-PVTZ
  Basis Set:
  @DF-RHF Final Energy:  -307.09020387886164
    Total Energy =                       -307.0902038788619848
  Basis Set: CC-PVTZ
  Basis Set:
  Basis Set: CC-PVTZ
  Basis Set:
  @DF-RHF Final Energy:  -307.09020930593533
    Total Energy =                       -307.0902093059353319
  Basis Set: CC-PVTZ
  Basis Set:
  Charge       = 0
  Multiplicity = 1
  Basis Set: CC-PVTZ
  Basis Set:

    Orbital Energies (a.u.)
    -----------------------

    Doubly Occupied:

       1A    -20.556745     2A    -20.541237     3A    -11.274583
       4A    -11.269025     5A    -11.267255     6A    -11.256512
       7A     -1.394429     8A     -1.368321     9A     -1.030854
      10A     -0.951693    11A     -0.900376    12A     -0.810647
      13A     -0.695691    14A     -0.684076    15A     -0.659487
      16A     -0.638154    17A     -0.628748    18A     -0.593641
      19A     -0.560247    20A     -0.541061    21A     -0.518615
      22A     -0.494772    23A     -0.448090    24A     -0.427578
      25A     -0.408503

  @DF-RHF Final Energy:  -307.09021002375908

   => Energetics <=

    Nuclear Repulsion Energy =            264.4453136637102375
    One-Electron Energy =                -943.2303666282101631
    Two-Electron Energy =                 371.6948429407410686
    DFT Exchange-Correlation Energy =       0.0000000000000000
    Empirical Dispersion Energy =           0.0000000000000000
    PCM Polarization Energy =               0.0000000000000000
    EFP Energy =                            0.0000000000000000
    Total Energy =                       -307.0902100237589138
    Molecular point group: c1
  Basis Set: CC-PVTZ
  Basis Set:

  -Total Gradient:
     Atom            X                  Y                   Z
    ------   -----------------  -----------------  -----------------
       1       -0.000008781448     0.000011994015     0.000013792186
       2        0.001536667790    -0.002215110980     0.001660239855
       3       -0.002586898279     0.004209110350    -0.003710579319
       4        0.000001297499     0.000000253404     0.000027868222
       5       -0.000020014887    -0.000008332016     0.000007347125
       6        0.001682774939    -0.003750093642     0.004186853227
       7       -0.000555810455     0.001694019631    -0.002210017531
       8       -0.000020900736     0.000004273455    -0.000007477812
       9       -0.000015201246     0.000011309310     0.000013471438
      10        0.000007041874     0.000051825249     0.000008908356
      11       -0.000012665456     0.000012410304     0.000007066928
      12       -0.000002806793    -0.000005168126     0.000003500532
      13        0.000014879054    -0.000014206901     0.000002635269
      14       -0.000004168316     0.000002932767    -0.000002728663
      15       -0.000020286631    -0.000000884884     0.000000196837
      16        0.000004873086    -0.000004331934    -0.000001076646

  **** Optimization is complete! (in 7 steps) ****
    Final optimized geometry and variables:
    Molecular point group: c1

    Geometry (in Angstrom), charge = 0, multiplicity = 1:

    H           -1.296797946237    -0.158610318599    -2.104480644309
    C           -1.384709913434    -0.842426147844    -1.262636495982
    O           -1.794833922105    -0.195490982121    -0.100494770273
    H           -2.151699168495    -1.565864272088    -1.498753331663
    H           -0.444665837516    -1.362760707349    -1.129762268449
    C           -0.999555474543     0.806429030840     0.463615255272
    C            0.465038613189     0.848016776632     0.082180182969
    H           -1.418478076155     1.776277677172     0.198782230084
    H           -1.073896716141     0.697300318858     1.537617852031
    O            1.131066576157    -0.268886671861     0.577717843227
    H            0.592098717430     0.920505107629    -0.995425457355
    H            0.880628716031     1.757582163365     0.514661489202
    C            2.494817075053    -0.289529964719     0.311086636707
    H            2.692391421203    -0.293043129425    -0.758793700237
    H            2.998485789596     0.568764006302     0.750398549511
    H            2.902947467337    -1.191335772894     0.743127180046

  Mulliken Charges: (a.u.)
   Center  Symbol    Alpha    Beta     Spin     Total
       1     H     0.47501  0.47501  0.00000  0.04997
       2     C     3.03677  3.03677  0.00000 -0.07354
       3     O     4.18036  4.18036  0.00000 -0.36072
       4     H     0.44270  0.44270  0.00000  0.11459
       5     H     0.46253  0.46253  0.00000  0.07493
       6     C     2.95569  2.95569  0.00000  0.08862
       7     C     3.00300  3.00300  0.00000 -0.00600
       8     H     0.47203  0.47203  0.00000  0.05593
       9     H     0.45823  0.45823  0.00000  0.08354
      10     O     4.17444  4.17444  0.00000 -0.34888
      11     H     0.46328  0.46328  0.00000  0.07344
      12     H     0.45625  0.45625  0.00000  0.08750
      13     C     3.03813  3.03813  0.00000 -0.07626
      14     H     0.47038  0.47038  0.00000  0.05924
      15     H     0.46688  0.46688  0.00000  0.06624
      16     H     0.44431  0.44431  0.00000  0.11139

   Total alpha = 25.00000, Total beta = 25.00000, Total charge =  0.00000
