                              Psi4 1.0.54 Driver

  ==> Input File <==

--------------------------------------------------------------------------
set {
	reference rhf
	basis cc-pvtz
}

set_num_threads( 4 )
memory 2 gb

molecule MOL {
0 1

H	 -3.110436	 -0.314830	 -1.565418
O	 -3.458596	 0.315260	 -0.960865
C	 -3.176635	 -0.080824	 0.355601
C	 -1.763371	 0.265266	 0.799691
H	 -3.321825	 -1.153438	 0.379502
H	 -3.895468	 0.357385	 1.043382
C	 -0.673390	 -0.426948	 -0.013392
H	 -1.631049	 1.344913	 0.747560
H	 -1.664587	 -0.001624	 1.849167
C	 0.737842	 -0.043159	 0.423759
H	 -0.806103	 -0.190518	 -1.063345
H	 -0.797221	 -1.503753	 0.074146
C	 1.824000	 -0.743224	 -0.390623
H	 0.850588	 1.033777	 0.343840
H	 0.868587	 -0.286314	 1.476203
C	 3.255957	 -0.453067	 0.062319
H	 1.718250	 -0.470599	 -1.438164
H	 1.658105	 -1.815850	 -0.339904
C	 3.707029	 0.992337	 -0.133857
H	 3.928201	 -1.104096	 -0.488158
H	 3.362667	 -0.724561	 1.109374
H	 3.605811	 1.294044	 -1.171549
H	 4.748333	 1.111029	 0.143343
H	 3.129882	 1.683078	 0.468956

	symmetry c1
}
set optking {
	frozen_dihedral = ("
		1 2 3 5
	")
}

ee,wfn = optimize('scf', return_wfn=True)
oeprop( wfn, 'DIPOLE', 'QUADRUPOLE', 'MULLIKEN_CHARGES')
f=open( 'psi4out.xyz', 'w' )
f.write( "24  " )
f.write( str(ee) + "\n" )
f.write( MOL.save_string_xyz() )
f.close()
--------------------------------------------------------------------------

    Molecular point group: c1
  Charge       = 0
  Multiplicity = 1
  Basis Set: CC-PVTZ
  Basis Set:
  @DF-RHF Final Energy:  -349.37838069241451
    Total Energy =                       -349.3783806924149076
    Molecular point group: c1
  Basis Set: CC-PVTZ
  Basis Set:
  Basis Set: CC-PVTZ
  Basis Set:
  @DF-RHF Final Energy:  -349.37927319875530
    Total Energy =                       -349.3792731987549587
  Basis Set: CC-PVTZ
  Basis Set:
  Basis Set: CC-PVTZ
  Basis Set:
  @DF-RHF Final Energy:  -349.37996771023097
    Total Energy =                       -349.3799677102310852
  Basis Set: CC-PVTZ
  Basis Set:
  Basis Set: CC-PVTZ
  Basis Set:
  @DF-RHF Final Energy:  -349.37997454859124
    Total Energy =                       -349.3799745485908943
  Basis Set: CC-PVTZ
  Basis Set:
  Basis Set: CC-PVTZ
  Basis Set:
  @DF-RHF Final Energy:  -349.37997588128582
    Total Energy =                       -349.3799758812855885
  Basis Set: CC-PVTZ
  Basis Set:
  Charge       = 0
  Multiplicity = 1
  Basis Set: CC-PVTZ
  Basis Set:

    Orbital Energies (a.u.)
    -----------------------

    Doubly Occupied:

       1A    -20.545441     2A    -11.265402     3A    -11.215240
       4A    -11.213941     5A    -11.212795     6A    -11.212143
       7A    -11.212044     8A    -11.206311     9A     -1.363161
      10A     -1.092342    11A     -1.050629    12A     -0.988230
      13A     -0.918854    14A     -0.852187    15A     -0.795740
      16A     -0.779253    17A     -0.700639    18A     -0.650341
      19A     -0.629060    20A     -0.609159    21A     -0.602952
      22A     -0.585836    23A     -0.561989    24A     -0.539330
      25A     -0.521950    26A     -0.511412    27A     -0.496053
      28A     -0.479078    29A     -0.474621    30A     -0.461058
      31A     -0.457575    32A     -0.449112    33A     -0.423032

  @DF-RHF Final Energy:  -349.37997627349876

   => Energetics <=

    Nuclear Repulsion Energy =            384.8611307561658350
    One-Electron Energy =               -1236.3283934498745111
    Two-Electron Energy =                 502.0872864202100914
    DFT Exchange-Correlation Energy =       0.0000000000000000
    Empirical Dispersion Energy =           0.0000000000000000
    PCM Polarization Energy =               0.0000000000000000
    EFP Energy =                            0.0000000000000000
    Total Energy =                       -349.3799762734985848
    Molecular point group: c1
  Basis Set: CC-PVTZ
  Basis Set:

  -Total Gradient:
     Atom            X                  Y                   Z
    ------   -----------------  -----------------  -----------------
       1       -0.000606063002    -0.000345777848     0.000087861621
       2        0.000905638383     0.000388574058    -0.000156061554
       3       -0.000849694228     0.000041086160     0.000308753072
       4       -0.000010017418     0.000006604962    -0.000004814481
       5        0.000559980556    -0.000095524957    -0.000238485560
       6        0.000004588385    -0.000000608884     0.000002831007
       7       -0.000019629644     0.000001967380    -0.000008241548
       8        0.000006035533     0.000007191518    -0.000001770160
       9        0.000003229279     0.000008028109     0.000004842598
      10       -0.000002321280     0.000005439120     0.000004156765
      11       -0.000000967315    -0.000000783574     0.000005432442
      12       -0.000001824158    -0.000017209294    -0.000011488409
      13       -0.000003614513     0.000012625320    -0.000009999172
      14        0.000000176333     0.000004047366     0.000002783594
      15        0.000001749117     0.000002827465     0.000004590234
      16       -0.000006656199    -0.000004224009     0.000020915118
      17       -0.000002479070    -0.000015557601    -0.000008566343
      18       -0.000003130414    -0.000005194796     0.000008454898
      19        0.000000979158     0.000006977870     0.000006068237
      20       -0.000003424805     0.000010956891    -0.000013162302
      21        0.000015325953    -0.000014594973     0.000004367466
      22        0.000005802899     0.000001992910    -0.000009619884
      23        0.000005450068     0.000002721653     0.000004976815
      24        0.000000866379    -0.000001564849    -0.000003824454

  **** Optimization is complete! (in 6 steps) ****
    Final optimized geometry and variables:
    Molecular point group: c1

    Geometry (in Angstrom), charge = 0, multiplicity = 1:

    H           -3.287617695919    -0.289833172918    -1.345768711266
    O           -3.554480591553     0.331100832818    -0.694535388483
    C           -3.144261417568    -0.091672980200     0.580269263340
    C           -1.705263266746     0.285395844113     0.898113592191
    H           -3.277721268799    -1.166170445960     0.684923409980
    H           -3.809701659515     0.386455762277     1.286733181753
    C           -0.670600934277    -0.402955661779     0.012208746246
    H           -1.604256950931     1.362827944389     0.809482772175
    H           -1.514441813160     0.034829440973     1.939118120982
    C            0.767457189393    -0.033854431712     0.367995774498
    H           -0.853182062475    -0.142100072902    -1.026446598618
    H           -0.792514479184    -1.481899371512     0.088052954049
    C            1.798774495863    -0.719281160068    -0.526160820682
    H            0.877743461550     1.043905703456     0.304665042994
    H            0.959709496202    -0.300781331902     1.404791322657
    C            3.256836198077    -0.444338110569    -0.153909841368
    H            1.632071496268    -0.422254796299    -1.559201545368
    H            1.631537730943    -1.792477055427    -0.489506039800
    C            3.700904730565     1.004524676982    -0.340243283346
    H            3.891565049728    -1.082757592520    -0.760791125606
    H            3.425724966862    -0.743210721875     0.877349041261
    H            3.537666598782     1.333386086107    -1.361634506847
    H            4.757695960969     1.113030536435    -0.124470242235
    H            3.164787330802     1.680948665827     0.314305419455

  Mulliken Charges: (a.u.)
   Center  Symbol    Alpha    Beta     Spin     Total
       1     H     0.39165  0.39165  0.00000  0.21670
       2     O     4.20684  4.20684  0.00000 -0.41367
       3     C     2.98342  2.98342  0.00000  0.03317
       4     C     3.08369  3.08369  0.00000 -0.16738
       5     H     0.46888  0.46888  0.00000  0.06223
       6     H     0.44857  0.44857  0.00000  0.10285
       7     C     3.10148  3.10148  0.00000 -0.20295
       8     H     0.45191  0.45191  0.00000  0.09617
       9     H     0.45621  0.45621  0.00000  0.08759
      10     C     3.09154  3.09154  0.00000 -0.18308
      11     H     0.45472  0.45472  0.00000  0.09056
      12     H     0.45515  0.45515  0.00000  0.08970
      13     C     3.09469  3.09469  0.00000 -0.18938
      14     H     0.45071  0.45071  0.00000  0.09858
      15     H     0.45485  0.45485  0.00000  0.09030
      16     C     3.09038  3.09038  0.00000 -0.18076
      17     H     0.45423  0.45423  0.00000  0.09153
      18     H     0.45044  0.45044  0.00000  0.09912
      19     C     3.15237  3.15237  0.00000 -0.30474
      20     H     0.44863  0.44863  0.00000  0.10274
      21     H     0.45487  0.45487  0.00000  0.09025
      22     H     0.45475  0.45475  0.00000  0.09050
      23     H     0.44649  0.44649  0.00000  0.10701
      24     H     0.45352  0.45352  0.00000  0.09297

   Total alpha = 33.00000, Total beta = 33.00000, Total charge = -0.00000

*** Psi4 exiting successfully. Buy a developer a beer!
