                              Psi4 1.0.54 Driver

  ==> Input File <==

--------------------------------------------------------------------------
set {
	reference rhf
	basis cc-pvtz
}

set_num_threads( 4 )
memory 2 gb

molecule MOL {
0 1

O	 -2.374409	 1.338660	 -0.336961
C	 -2.104891	 0.204655	 -0.107126
C	 -0.881910	 -0.448129	 -0.720509
C	 -2.949910	 -0.638219	 0.818225
C	 -0.263246	 0.447704	 -1.801055
H	 -1.197276	 -1.384955	 -1.162111
H	 -0.145501	 -0.663081	 0.046539
C	 0.963888	 -0.189431	 -2.449673
H	 -1.021516	 0.654673	 -2.545648
H	 0.018873	 1.403928	 -1.367070
C	 1.656974	 0.685647	 -3.495510
H	 0.676479	 -1.133650	 -2.905553
H	 1.682542	 -0.433462	 -1.672119
C	 0.830246	 0.954751	 -4.750494
H	 2.583231	 0.199968	 -3.786149
H	 1.941567	 1.630863	 -3.040639
H	 0.526822	 0.026185	 -5.223027
H	 1.405774	 1.520065	 -5.474344
H	 -0.066028	 1.522866	 -4.533199
H	 -3.440322	 -1.417144	 0.243099
H	 -3.694377	 -0.025850	 1.303346
H	 -2.331085	 -1.129829	 1.560495

	symmetry c1
}
set optking {
	frozen_dihedral = ("
		6 3 2 1
	")
}

ee,wfn = optimize('scf', return_wfn=True)
oeprop( wfn, 'DIPOLE', 'QUADRUPOLE', 'MULLIKEN_CHARGES')
f=open( 'psi4out.xyz', 'w' )
f.write( "22  " )
f.write( str(ee) + "\n" )
f.write( MOL.save_string_xyz() )
f.close()
--------------------------------------------------------------------------

    Molecular point group: c1
  Charge       = 0
  Multiplicity = 1
  Basis Set: CC-PVTZ
  Basis Set:
  @DF-RHF Final Energy:  -348.22394637139843
    Total Energy =                       -348.2239463713980285
    Molecular point group: c1
  Basis Set: CC-PVTZ
  Basis Set:
  Basis Set: CC-PVTZ
  Basis Set:
  @DF-RHF Final Energy:  -348.22447076557722
    Total Energy =                       -348.2244707655775642
  Basis Set: CC-PVTZ
  Basis Set:
  Basis Set: CC-PVTZ
  Basis Set:
  @DF-RHF Final Energy:  -348.22264735034850
    Total Energy =                       -348.2226473503485522
  Basis Set: CC-PVTZ
  Basis Set:
  Basis Set: CC-PVTZ
  Basis Set:
  @DF-RHF Final Energy:  -348.22510006811115
    Total Energy =                       -348.2251000681112600
  Basis Set: CC-PVTZ
  Basis Set:
  @DF-RHF Final Energy:  -348.22519310532635
    Total Energy =                       -348.2251931053268663
  Basis Set: CC-PVTZ
  Basis Set:
  @DF-RHF Final Energy:  -348.22521968927055
    Total Energy =                       -348.2252196892700908
  Basis Set: CC-PVTZ
  Basis Set:
  Basis Set: CC-PVTZ
  Basis Set:
  @DF-RHF Final Energy:  -348.22521739034858
    Total Energy =                       -348.2252173903484049
  Basis Set: CC-PVTZ
  Basis Set:
  Basis Set: CC-PVTZ
  Basis Set:
  @DF-RHF Final Energy:  -348.22522054000274
    Total Energy =                       -348.2252205400030789
  Basis Set: CC-PVTZ
  Basis Set:
  Charge       = 0
  Multiplicity = 1
  Basis Set: CC-PVTZ
  Basis Set:

    Orbital Energies (a.u.)
    -----------------------

    Doubly Occupied:

       1A    -20.538822     2A    -11.320628     3A    -11.230311
       4A    -11.226710     5A    -11.215698     6A    -11.214636
       7A    -11.214369     8A    -11.205954     9A     -1.398930
      10A     -1.092026    11A     -1.044114    12A     -1.001842
      13A     -0.935783    14A     -0.855082    15A     -0.781939
      16A     -0.731991    17A     -0.656848    18A     -0.652495
      19A     -0.632482    20A     -0.613675    21A     -0.603468
      22A     -0.580101    23A     -0.560279    24A     -0.548322
      25A     -0.523504    26A     -0.513342    27A     -0.499362
      28A     -0.486492    29A     -0.465233    30A     -0.463064
      31A     -0.458560    32A     -0.401832

  @DF-RHF Final Energy:  -348.22522054083879

   => Energetics <=

    Nuclear Repulsion Energy =            372.9793776622746009
    One-Electron Energy =               -1211.0734111396932349
    Two-Electron Energy =                 489.8688129365792747
    DFT Exchange-Correlation Energy =       0.0000000000000000
    Empirical Dispersion Energy =           0.0000000000000000
    PCM Polarization Energy =               0.0000000000000000
    EFP Energy =                            0.0000000000000000
    Total Energy =                       -348.2252205408393593
    Molecular point group: c1
  Basis Set: CC-PVTZ
  Basis Set:

  -Total Gradient:
     Atom            X                  Y                   Z
    ------   -----------------  -----------------  -----------------
       1        0.000112220188     0.000074448974     0.000102961733
       2       -0.000138567091    -0.000107232206    -0.000148645296
       3       -0.000005907978     0.000128508851    -0.000135111498
       4        0.000029178351    -0.000000720240     0.000023209911
       5       -0.000014616917    -0.000012405555    -0.000008345341
       6        0.000039629742    -0.000083716004     0.000144860915
       7       -0.000006760385    -0.000003515379    -0.000001522989
       8        0.000016276679     0.000010369222     0.000027014154
       9       -0.000007780796     0.000006557542    -0.000016194250
      10        0.000006192188     0.000009659638     0.000000628903
      11       -0.000003304531    -0.000009061421    -0.000003434043
      12       -0.000001649679     0.000001447791     0.000005444965
      13        0.000002341036    -0.000000461789     0.000007007543
      14       -0.000000059165     0.000003536984     0.000003379154
      15       -0.000002151216    -0.000004407651    -0.000004152015
      16        0.000005642302    -0.000000990971    -0.000000342626
      17        0.000003164090     0.000000269698     0.000000719051
      18       -0.000002220191     0.000003804469    -0.000000425143
      19       -0.000014161995    -0.000000610290     0.000009184802
      20       -0.000011657817    -0.000000608602    -0.000007748568
      21       -0.000004755893     0.000000399947    -0.000002345551
      22       -0.000001050925    -0.000015273006     0.000003856190

  **** Optimization is complete! (in 9 steps) ****
    Final optimized geometry and variables:
    Molecular point group: c1

    Geometry (in Angstrom), charge = 0, multiplicity = 1:

    O           -1.808207339474     0.972285109600     1.357580513788
    C           -1.425485073854    -0.133271337966     1.560952415893
    C           -0.217915664047    -0.715681726918     0.855215881091
    C           -2.125135185677    -1.040434098666     2.547689205692
    C            0.369833631861     0.176752782077    -0.229001319898
    H           -0.501407463250    -1.684226429271     0.450292660583
    H            0.525298836972    -0.930497598880     1.620359038488
    C            1.587845682187    -0.454392920140    -0.900676752120
    H           -0.399588084078     0.390461386159    -0.960159862042
    H            0.643898902415     1.130826437049     0.206660440594
    C            2.266370661275     0.431659492411    -1.946733740921
    H            1.299959999995    -1.395853370413    -1.364065666664
    H            2.319369487805    -0.705130242739    -0.136720760028
    C            1.419965025649     0.718230017932    -3.184593668323
    H            3.187480037599    -0.050983191265    -2.258672077691
    H            2.557931490160     1.370717353289    -1.484281865383
    H            1.106992607173    -0.203809457692    -3.664341186568
    H            1.984767347373     1.291483774458    -3.910757284634
    H            0.529246917814     1.285688249316    -2.944543185531
    H           -2.588610766935    -1.864998483597     2.016241298014
    H           -2.882991245085    -0.487450912889     3.081023011565
    H           -1.415793481162    -1.466212344437     3.248096272003

  Mulliken Charges: (a.u.)
   Center  Symbol    Alpha    Beta     Spin     Total
       1     O     4.17121  4.17121  0.00000 -0.34242
       2     C     2.86164  2.86164  0.00000  0.27671
       3     C     3.11352  3.11352  0.00000 -0.22703
       4     C     3.15139  3.15139  0.00000 -0.30278
       5     C     3.08579  3.08579  0.00000 -0.17157
       6     H     0.44575  0.44575  0.00000  0.10850
       7     H     0.44427  0.44427  0.00000  0.11146
       8     C     3.09608  3.09608  0.00000 -0.19216
       9     H     0.44582  0.44582  0.00000  0.10835
      10     H     0.44452  0.44452  0.00000  0.11096
      11     C     3.09000  3.09000  0.00000 -0.18000
      12     H     0.45534  0.45534  0.00000  0.08931
      13     H     0.45063  0.45063  0.00000  0.09874
      14     C     3.15283  3.15283  0.00000 -0.30566
      15     H     0.44866  0.44866  0.00000  0.10268
      16     H     0.45359  0.45359  0.00000  0.09282
      17     H     0.45587  0.45587  0.00000  0.08827
      18     H     0.44637  0.44637  0.00000  0.10727
      19     H     0.45094  0.45094  0.00000  0.09812
      20     H     0.44928  0.44928  0.00000  0.10144
      21     H     0.43547  0.43547  0.00000  0.12906
      22     H     0.45104  0.45104  0.00000  0.09792

   Total alpha = 32.00000, Total beta = 32.00000, Total charge =  0.00000

*** Psi4 exiting successfully. Buy a developer a beer!
