  ==> Input File <==

--------------------------------------------------------------------------
set {
	reference rhf
	basis 6-31G*
}

set_num_threads( 1 )
memory 2 gb

molecule MOL {
0 1

H	 -2.324552	 -0.811305	 0.870334
O	 -2.347518	 -0.290803	 0.079804
C	 -1.184022	 0.487508	 -0.006784
C	 0.062599	 -0.378592	 0.031606
H	 -1.176523	 1.099369	 -0.904519
H	 -1.187323	 1.153111	 0.844927
O	 1.171513	 0.459272	 -0.058250
H	 0.050699	 -1.089204	 -0.797170
H	 0.078739	 -0.954914	 0.954740
C	 2.397842	 -0.198080	 -0.002151
H	 2.508049	 -0.905315	 -0.822092
H	 3.173794	 0.550865	 -0.078850
H	 2.517602	 -0.735921	 0.936026

	symmetry c1
}
set optking {
	frozen_dihedral = ("
		8 4 3 5,
		10 7 4 8,
		4 7 10 13
	")
}

ee = energy('scf')
oeprop('DIPOLE', 'QUADRUPOLE', 'MULLIKEN_CHARGES')
f=open( 'psi4out.xyz', 'w' )
f.write( "13  " )
f.write( str(ee) + "\n" )
f.write( MOL.save_string_xyz() )
f.close()
--------------------------------------------------------------------------

    Molecular point group: c1

    Geometry (in Angstrom), charge = 0, multiplicity = 1:

       Center              X                  Y                   Z               Mass
    ------------   -----------------  -----------------  -----------------  -----------------
           H         -2.326864882650    -0.810228309014     0.848927004768     1.007825032070
           O         -2.349830882650    -0.289726309014     0.058397004768    15.994914619560
           C         -1.186334882650     0.488584690986    -0.028190995232    12.000000000000
           C          0.060286117350    -0.377515309014     0.010199004768    12.000000000000
           H         -1.178835882650     1.100445690986    -0.925925995232     1.007825032070
           H         -1.189635882650     1.154187690986     0.823520004768     1.007825032070
           O          1.169200117350     0.460348690986    -0.079656995232    15.994914619560
           H          0.048386117350    -1.088127309014    -0.818576995232     1.007825032070
           H          0.076426117350    -0.953837309014     0.933333004768     1.007825032070
           C          2.395529117350    -0.197003309014    -0.023557995232    12.000000000000
           H          2.505736117350    -0.904238309014    -0.843498995232     1.007825032070
           H          3.171481117350     0.551941690986    -0.100256995232     1.007825032070
           H          2.515289117350    -0.734844309014     0.914619004768     1.007825032070

  Charge       = 0
  Multiplicity = 1
  Basis Set: 6-31G*
  Basis Set:

    Orbital Energies (a.u.)
    -----------------------

    Doubly Occupied:

       1A    -20.564574     2A    -20.558356     3A    -11.274073
       4A    -11.271809     5A    -11.269426     6A     -1.390890
       7A     -1.364883     8A     -1.019746     9A     -0.914136
      10A     -0.845477    11A     -0.704834    12A     -0.676611
      13A     -0.665096    14A     -0.637176    15A     -0.598239
      16A     -0.574672    17A     -0.547314    18A     -0.491894
      19A     -0.477176    20A     -0.438023    21A     -0.424081

  @DF-RHF Final Energy:  -267.94832135950628

   => Energetics <=

    Nuclear Repulsion Energy =            190.3782702063480201
    One-Electron Energy =                -743.2361619823847150
    Two-Electron Energy =                 284.9095704165300162
    DFT Exchange-Correlation Energy =       0.0000000000000000
    Empirical Dispersion Energy =           0.0000000000000000
    PCM Polarization Energy =               0.0000000000000000
    EFP Energy =                            0.0000000000000000
    Total Energy =                       -267.9483213595066786

  Mulliken Charges: (a.u.)
   Center  Symbol    Alpha    Beta     Spin     Total
       1     H     0.28149  0.28149  0.00000  0.43702
       2     O     4.37207  4.37207  0.00000 -0.74413
       3     C     3.00024  3.00024  0.00000 -0.00047
       4     C     3.00042  3.00042  0.00000 -0.00085
       5     H     0.40689  0.40689  0.00000  0.18622
       6     H     0.42298  0.42298  0.00000  0.15404
       7     O     4.30673  4.30673  0.00000 -0.61346
       8     H     0.42357  0.42357  0.00000  0.15286
       9     H     0.43828  0.43828  0.00000  0.12344
      10     C     3.08050  3.08050  0.00000 -0.16100
      11     H     0.42772  0.42772  0.00000  0.14456
      12     H     0.41015  0.41015  0.00000  0.17970
      13     H     0.42897  0.42897  0.00000  0.14205

   Total alpha = 21.00000, Total beta = 21.00000, Total charge = -0.00000
