  ==> Input File <==

--------------------------------------------------------------------------
set {
	reference rhf
	basis cc-pvtz
}

set_num_threads( 4 )
memory 2 gb

molecule MOL {
0 1

H	 3.296519	 -0.413552	 0.019985
C	 2.237957	 -0.236382	 0.015243
C	 1.389023	 -1.151165	 -0.589584
C	 1.729617	 0.900348	 0.611021
H	 1.791614	 -2.032224	 -1.050506
C	 0.030426	 -0.927676	 -0.597887
H	 2.388647	 1.606076	 1.078036
C	 0.364946	 1.123418	 0.601875
H	 -0.641719	 -1.622783	 -1.060169
C	 -0.486398	 0.214248	 0.000000
H	 -0.037481	 2.006005	 1.063682
C	 -1.946525	 0.470130	 0.000000
O	 -2.779618	 -0.371226	 0.000000
H	 -2.227127	 1.528393	 0.000000

	symmetry c1
}
set optking {
	frozen_dihedral = ("
		8 10 12 14
	")
}

ee = optimize('scf')
oeprop('DIPOLE', 'QUADRUPOLE', 'MULLIKEN_CHARGES')
f=open( 'psi4out.xyz', 'w' )
f.write( "14  " )
f.write( str(ee) + "\n" )
f.write( MOL.save_string_xyz() )
f.close()
--------------------------------------------------------------------------

    Molecular point group: c1
  Charge       = 0
  Multiplicity = 1
  Basis Set: CC-PVTZ
  Basis Set:
  @DF-RHF Final Energy:  -343.54700278931278
    Total Energy =                       -343.5470027893127281
    Molecular point group: c1
  Basis Set: CC-PVTZ
  Basis Set:
  Basis Set: CC-PVTZ
  Basis Set:
  @DF-RHF Final Energy:  -343.54435517981807
    Total Energy =                       -343.5443551798180692
  Basis Set: CC-PVTZ
  Basis Set:
  Basis Set: CC-PVTZ
  Basis Set:
  @DF-RHF Final Energy:  -343.54739780335348
    Total Energy =                       -343.5473978033538742
  Basis Set: CC-PVTZ
  Basis Set:
  Basis Set: CC-PVTZ
  Basis Set:
  @DF-RHF Final Energy:  -343.54746038167087
    Total Energy =                       -343.5474603816709873
  Basis Set: CC-PVTZ
  Basis Set:
  Charge       = 0
  Multiplicity = 1
  Basis Set: CC-PVTZ
  Basis Set:

    Orbital Energies (a.u.)
    -----------------------

    Doubly Occupied:

       1A    -20.554775     2A    -11.327965     3A    -11.251630
       4A    -11.248558     5A    -11.246907     6A    -11.245545
       7A    -11.243530     8A    -11.241959     9A     -1.410345
      10A     -1.176569    11A     -1.051157    12A     -1.035587
      13A     -0.892221    14A     -0.847684    15A     -0.795217
      16A     -0.725558    17A     -0.681847    18A     -0.656838
      19A     -0.627225    20A     -0.622333    21A     -0.605969
      22A     -0.556771    23A     -0.530274    24A     -0.510529
      25A     -0.508492    26A     -0.426000    27A     -0.354882
      28A     -0.352251

  @DF-RHF Final Energy:  -343.54746095946774

   => Energetics <=

    Nuclear Repulsion Energy =            323.9540649576981082
    One-Electron Energy =               -1107.5458186454111456
    Two-Electron Energy =                 440.0442927282453525
    DFT Exchange-Correlation Energy =       0.0000000000000000
    Empirical Dispersion Energy =           0.0000000000000000
    PCM Polarization Energy =               0.0000000000000000
    EFP Energy =                            0.0000000000000000
    Total Energy =                       -343.5474609594676281
    Molecular point group: c1
  Basis Set: CC-PVTZ
  Basis Set:

  -Total Gradient:
     Atom            X                  Y                   Z
    ------   -----------------  -----------------  -----------------
       1       -0.000001826349    -0.000010712561     0.000023565224
       2        0.000012256125     0.000055750281    -0.000060588772
       3       -0.000012272651     0.000025506458    -0.000060589577
       4        0.000006245664    -0.000049071562     0.000070953301
       5        0.000000221087    -0.000001183719     0.000007612286
       6        0.000008198456    -0.000075574542     0.000127122640
       7        0.000005013081     0.000006429993    -0.000011568492
       8       -0.000243595742    -0.002219557619     0.003605708895
       9        0.000000739358     0.000033862519    -0.000037543125
      10        0.000272719027     0.003304393978    -0.006946928833
      11        0.000000777314    -0.000005046978    -0.000002485527
      12        0.000087249141    -0.001208280789     0.008486653024
      13       -0.000007384078    -0.000017135128     0.000001127766
      14       -0.000128340430     0.000160619669    -0.005203038811

  **** Optimization is complete! (in 5 steps) ****
    Final optimized geometry and variables:
    Molecular point group: c1

    Geometry (in Angstrom), charge = 0, multiplicity = 1:

    H            3.292585021617    -0.424314397019     0.034747889338
    C            2.235326547248    -0.239923190420     0.022090874193
    C            1.384477445462    -1.148854899407    -0.586981329402
    C            1.729120555672     0.899563428169     0.615183274927
    H            1.783562612534    -2.033779333003    -1.043708710083
    C            0.025661267633    -0.920997316395    -0.595931083466
    H            2.388170615168     1.597400224437     1.094109703978
    C            0.367528874811     1.138259472107     0.586424604953
    H           -0.648009899062    -1.624536702066    -1.043485587267
    C           -0.485142174527     0.235298144820    -0.023185618986
    H           -0.030759865942     2.027832181920     1.038822646599
    C           -1.951364773490     0.467019747242     0.021744870431
    O           -2.765490815907    -0.389734390181    -0.038588013992
    H           -2.254507457749     1.518478697291     0.063452610956

  Mulliken Charges: (a.u.)
   Center  Symbol    Alpha    Beta     Spin     Total
       1     H     0.41976  0.41976  0.00000  0.16047
       2     C     3.07221  3.07221  0.00000 -0.14442
       3     C     3.06991  3.06991  0.00000 -0.13982
       4     C     3.07305  3.07305  0.00000 -0.14610
       5     H     0.41987  0.41987  0.00000  0.16026
       6     C     3.08370  3.08370  0.00000 -0.16741
       7     H     0.42059  0.42059  0.00000  0.15881
       8     C     3.08911  3.08911  0.00000 -0.17822
       9     H     0.41065  0.41065  0.00000  0.17870
      10     C     2.97454  2.97454  0.00000  0.05091
      11     H     0.42321  0.42321  0.00000  0.15358
      12     C     2.91719  2.91719  0.00000  0.16562
      13     O     4.16889  4.16889  0.00000 -0.33778
      14     H     0.45731  0.45731  0.00000  0.08538

   Total alpha = 28.00000, Total beta = 28.00000, Total charge =  0.00000
