  ==> Input File <==

--------------------------------------------------------------------------
set {
	reference rhf
	basis 6-31G*
}

set_num_threads( 1 )
memory 2 gb

molecule MOL {
0 1

O	 1.975642	 2.746346	 1.831985
C	 1.475867	 2.307069	 2.821944
C	 0.193960	 1.494293	 2.789595
C	 2.094518	 2.534763	 4.185976
C	 -0.383238	 1.298894	 1.390704
H	 0.396940	 0.533097	 3.260010
H	 -0.528963	 1.986129	 3.439120
C	 -1.672681	 0.476069	 1.398173
H	 0.359459	 0.815739	 0.763733
H	 -0.567724	 2.270360	 0.943081
C	 -2.259874	 0.272531	 0.000494
H	 -1.481306	 -0.495486	 1.851499
H	 -2.412544	 0.965385	 2.030028
C	 -3.549786	 -0.549746	 -0.000374
H	 -1.521372	 -0.217185	 -0.631813
H	 -2.452396	 1.243097	 -0.453304
C	 -4.809590	 0.315458	 -0.000369
H	 -3.560515	 -1.202009	 -0.871156
H	 -3.561123	 -1.202955	 0.869711
H	 -4.844746	 0.956611	 -0.876632
H	 -5.706986	 -0.295590	 -0.001609
H	 -4.845960	 0.954827	 0.877144
H	 2.329408	 1.585626	 4.658824
H	 2.997527	 3.120407	 4.083845
H	 1.396933	 3.054664	 4.836139

	symmetry c1
}
set optking {
	frozen_dihedral = ("
		9 5 8 12,
		15 11 8 12,
		1 2 3 6,
		9 5 3 6
	")
}

ee = energy('scf')
oeprop('DIPOLE', 'QUADRUPOLE', 'MULLIKEN_CHARGES')
f=open( 'psi4out.xyz', 'w' )
f.write( "25  " )
f.write( str(ee) + "\n" )
f.write( MOL.save_string_xyz() )
f.close()
--------------------------------------------------------------------------

    Molecular point group: c1

    Geometry (in Angstrom), charge = 0, multiplicity = 1:

       Center              X                  Y                   Z               Mass
    ------------   -----------------  -----------------  -----------------  -----------------
           O          2.752419775391     1.529500557064     0.229514748214    15.994914619560
           C          2.252644775391     1.090223557064     1.219473748214    12.000000000000
           C          0.970737775391     0.277447557064     1.187124748214    12.000000000000
           C          2.871295775391     1.317917557064     2.583505748214    12.000000000000
           C          0.393539775391     0.082048557064    -0.211766251786    12.000000000000
           H          1.173717775391    -0.683748442936     1.657539748214     1.007825032070
           H          0.247814775391     0.769283557064     1.836649748214     1.007825032070
           C         -0.895903224609    -0.740776442936    -0.204297251786    12.000000000000
           H          1.136236775391    -0.401106442936    -0.838737251786     1.007825032070
           H          0.209053775391     1.053514557064    -0.659389251786     1.007825032070
           C         -1.483096224609    -0.944314442936    -1.601976251786    12.000000000000
           H         -0.704528224609    -1.712331442936     0.249028748214     1.007825032070
           H         -1.635766224609    -0.251460442936     0.427557748214     1.007825032070
           C         -2.773008224609    -1.766591442936    -1.602844251786    12.000000000000
           H         -0.744594224609    -1.434030442936    -2.234283251786     1.007825032070
           H         -1.675618224609     0.026251557064    -2.055774251786     1.007825032070
           C         -4.032812224609    -0.901387442936    -1.602839251786    12.000000000000
           H         -2.783737224609    -2.418854442936    -2.473626251786     1.007825032070
           H         -2.784345224609    -2.419800442936    -0.732759251786     1.007825032070
           H         -4.067968224609    -0.260234442936    -2.479102251786     1.007825032070
           H         -4.930208224609    -1.512435442936    -1.604079251786     1.007825032070
           H         -4.069182224609    -0.262018442936    -0.725326251786     1.007825032070
           H          3.106185775391     0.368780557064     3.056353748214     1.007825032070
           H          3.774304775391     1.903561557064     2.481374748214     1.007825032070
           H          2.173710775391     1.837818557064     3.233668748214     1.007825032070

  Charge       = 0
  Multiplicity = 1
  Basis Set: 6-31G*
  Basis Set:

    Orbital Energies (a.u.)
    -----------------------

    Doubly Occupied:

       1A    -20.550449     2A    -11.326269     3A    -11.231883
       4A    -11.228338     5A    -11.217185     6A    -11.216407
       7A    -11.214251     8A    -11.212388     9A    -11.208817
      10A     -1.395744    11A     -1.094025    12A     -1.056427
      13A     -1.013914    14A     -0.967865    15A     -0.892852
      16A     -0.818989    17A     -0.785930    18A     -0.729746
      19A     -0.657928    20A     -0.653225    21A     -0.625061
      22A     -0.619942    23A     -0.609237    24A     -0.588785
      25A     -0.568931    26A     -0.557109    27A     -0.534960
      28A     -0.525657    29A     -0.516626    30A     -0.491210
      31A     -0.486016    32A     -0.478069    33A     -0.465062
      34A     -0.453665    35A     -0.449652    36A     -0.399355

  @DF-RHF Final Energy:  -387.13239341037144

   => Energetics <=

    Nuclear Repulsion Energy =            441.3047550310873817
    One-Electron Energy =               -1399.1901067761909871
    Two-Electron Energy =                 570.7529583347306925
    DFT Exchange-Correlation Energy =       0.0000000000000000
    Empirical Dispersion Energy =           0.0000000000000000
    PCM Polarization Energy =               0.0000000000000000
    EFP Energy =                            0.0000000000000000
    Total Energy =                       -387.1323934103729698

  Mulliken Charges: (a.u.)
   Center  Symbol    Alpha    Beta     Spin     Total
       1     O     4.26114  4.26114  0.00000 -0.52228
       2     C     2.73571  2.73571  0.00000  0.52858
       3     C     3.21084  3.21084  0.00000 -0.42168
       4     C     3.28664  3.28664  0.00000 -0.57327
       5     C     3.14819  3.14819  0.00000 -0.29638
       6     H     0.41004  0.41004  0.00000  0.17992
       7     H     0.41008  0.41008  0.00000  0.17983
       8     C     3.15536  3.15536  0.00000 -0.31071
       9     H     0.41208  0.41208  0.00000  0.17584
      10     H     0.41213  0.41213  0.00000  0.17574
      11     C     3.15416  3.15416  0.00000 -0.30833
      12     H     0.42433  0.42433  0.00000  0.15133
      13     H     0.42462  0.42462  0.00000  0.15075
      14     C     3.15454  3.15454  0.00000 -0.30909
      15     H     0.42004  0.42004  0.00000  0.15992
      16     H     0.42071  0.42071  0.00000  0.15857
      17     C     3.23994  3.23994  0.00000 -0.47989
      18     H     0.42000  0.42000  0.00000  0.15999
      19     H     0.42220  0.42220  0.00000  0.15560
      20     H     0.42077  0.42077  0.00000  0.15845
      21     H     0.42001  0.42001  0.00000  0.15997
      22     H     0.42253  0.42253  0.00000  0.15495
      23     H     0.40875  0.40875  0.00000  0.18251
      24     H     0.39646  0.39646  0.00000  0.20708
      25     H     0.40870  0.40870  0.00000  0.18259

   Total alpha = 36.00000, Total beta = 36.00000, Total charge =  0.00000
