  ==> Input File <==

--------------------------------------------------------------------------
set {
	reference rhf
	basis 6-31G*
}

set_num_threads( 1 )
memory 2 gb

molecule MOL {
0 1

H	 2.513983	 -0.951439	 -0.236847
O	 1.654024	 -0.625927	 -0.460906
C	 1.135793	 0.118896	 0.612333
C	 0.031547	 1.023609	 0.088541
H	 1.915668	 0.729681	 1.063582
H	 0.754543	 -0.542641	 1.387006
C	 -1.134819	 0.293262	 -0.585751
H	 0.474374	 1.714721	 -0.623187
H	 -0.338529	 1.620940	 0.920081
C	 -1.917817	 -0.639439	 0.339494
H	 -0.758119	 -0.268455	 -1.433105
H	 -1.813832	 1.041889	 -0.986690
H	 -2.777680	 -1.057197	 -0.174994
H	 -1.310268	 -1.471279	 0.680599
H	 -2.283753	 -0.111424	 1.216626

	symmetry c1
}
set optking {
	frozen_dihedral = ("
		8 4 7 11,
		2 3 4 8
	")
}

ee = energy('scf')
oeprop('DIPOLE', 'QUADRUPOLE', 'MULLIKEN_CHARGES')
f=open( 'psi4out.xyz', 'w' )
f.write( "15  " )
f.write( str(ee) + "\n" )
f.write( MOL.save_string_xyz() )
f.close()
--------------------------------------------------------------------------

    Molecular point group: c1

    Geometry (in Angstrom), charge = 0, multiplicity = 1:

       Center              X                  Y                   Z               Mass
    ------------   -----------------  -----------------  -----------------  -----------------
           H          2.511546857695    -0.954876116916    -0.235638873157     1.007825032070
           O          1.651587857695    -0.629364116916    -0.459697873157    15.994914619560
           C          1.133356857695     0.115458883084     0.613541126843    12.000000000000
           C          0.029110857695     1.020171883084     0.089749126843    12.000000000000
           H          1.913231857695     0.726243883084     1.064790126843     1.007825032070
           H          0.752106857695    -0.546078116916     1.388214126843     1.007825032070
           C         -1.137255142305     0.289824883084    -0.584542873157    12.000000000000
           H          0.471937857695     1.711283883084    -0.621978873157     1.007825032070
           H         -0.340965142305     1.617502883084     0.921289126843     1.007825032070
           C         -1.920253142305    -0.642876116916     0.340702126843    12.000000000000
           H         -0.760555142305    -0.271892116916    -1.431896873157     1.007825032070
           H         -1.816268142305     1.038451883084    -0.985481873157     1.007825032070
           H         -2.780116142305    -1.060634116916    -0.173785873157     1.007825032070
           H         -1.312704142305    -1.474716116916     0.681807126843     1.007825032070
           H         -2.286189142305    -0.114861116916     1.217834126843     1.007825032070

  Charge       = 0
  Multiplicity = 1
  Basis Set: 6-31G*
  Basis Set:

    Orbital Energies (a.u.)
    -----------------------

    Doubly Occupied:

       1A    -20.552990     2A    -11.267409     3A    -11.211905
       4A    -11.208166     5A    -11.203545     6A     -1.359873
       7A     -1.063224     8A     -0.969281     9A     -0.868037
      10A     -0.774356    11A     -0.703428    12A     -0.647713
      13A     -0.607961    14A     -0.569825    15A     -0.564566
      16A     -0.531017    17A     -0.508952    18A     -0.475135
      19A     -0.465825    20A     -0.451487    21A     -0.429168

  @DF-RHF Final Energy:  -232.14332831114919

   => Energetics <=

    Nuclear Repulsion Energy =            191.8623617720699315
    One-Electron Energy =                -695.1437161793734276
    Two-Electron Energy =                 271.1380260961536806
    DFT Exchange-Correlation Energy =       0.0000000000000000
    Empirical Dispersion Energy =           0.0000000000000000
    PCM Polarization Energy =               0.0000000000000000
    EFP Energy =                            0.0000000000000000
    Total Energy =                       -232.1433283111498440

  Mulliken Charges: (a.u.)
   Center  Symbol    Alpha    Beta     Spin     Total
       1     H     0.28021  0.28021  0.00000  0.43957
       2     O     4.37023  4.37023  0.00000 -0.74045
       3     C     2.99973  2.99973  0.00000  0.00054
       4     C     3.15950  3.15950  0.00000 -0.31901
       5     H     0.43013  0.43013  0.00000  0.13974
       6     H     0.42884  0.42884  0.00000  0.14232
       7     C     3.15391  3.15391  0.00000 -0.30781
       8     H     0.41592  0.41592  0.00000  0.16817
       9     H     0.42541  0.42541  0.00000  0.14917
      10     C     3.24350  3.24350  0.00000 -0.48700
      11     H     0.40731  0.40731  0.00000  0.18538
      12     H     0.42297  0.42297  0.00000  0.15407
      13     H     0.41920  0.41920  0.00000  0.16160
      14     H     0.41797  0.41797  0.00000  0.16406
      15     H     0.42518  0.42518  0.00000  0.14964

   Total alpha = 21.00000, Total beta = 21.00000, Total charge =  0.00000
