  ==> Input File <==

--------------------------------------------------------------------------
set {
	reference rhf
	basis 6-31G*
}

set_num_threads( 1 )
memory 2 gb

molecule MOL {
0 1

H	 0.212838	 -1.144187	 -1.330382
C	 -0.588313	 -1.397324	 -0.638847
O	 -1.392607	 -0.295399	 -0.366433
H	 -1.214429	 -2.154360	 -1.090530
H	 -0.144726	 -1.803914	 0.269086
C	 -0.719715	 0.768384	 0.229244
C	 0.719720	 0.768376	 -0.229267
H	 -1.185038	 1.714362	 -0.050570
H	 -0.750528	 0.687237	 1.313896
O	 1.392611	 -0.295398	 0.366430
H	 0.750534	 0.687200	 -1.313918
H	 1.185043	 1.714359	 0.050526
C	 2.706965	 -0.449871	 -0.062409
H	 2.756559	 -0.644779	 -1.131878
H	 3.305899	 0.433456	 0.155466
H	 3.125548	 -1.294566	 0.467107

	symmetry c1
}
set optking {
	frozen_dihedral = ("
		3 6 7 11,
		7 10 13 14
	")
}

ee = energy('scf')
oeprop('DIPOLE', 'QUADRUPOLE', 'MULLIKEN_CHARGES')
f=open( 'psi4out.xyz', 'w' )
f.write( "16  " )
f.write( str(ee) + "\n" )
f.write( MOL.save_string_xyz() )
f.close()
--------------------------------------------------------------------------

    Molecular point group: c1

    Geometry (in Angstrom), charge = 0, multiplicity = 1:

       Center              X                  Y                   Z               Mass
    ------------   -----------------  -----------------  -----------------  -----------------
           H         -0.159420126341    -0.977709760438    -1.207170569371     1.007825032070
           C         -0.960571126341    -1.230846760438    -0.515635569371    12.000000000000
           O         -1.764865126341    -0.128921760438    -0.243221569371    15.994914619560
           H         -1.586687126341    -1.987882760438    -0.967318569371     1.007825032070
           H         -0.516984126341    -1.637436760438     0.392297430629     1.007825032070
           C         -1.091973126341     0.934861239562     0.352455430629    12.000000000000
           C          0.347461873659     0.934853239562    -0.106055569371    12.000000000000
           H         -1.557296126341     1.880839239562     0.072641430629     1.007825032070
           H         -1.122786126341     0.853714239562     1.437107430629     1.007825032070
           O          1.020352873659    -0.128920760438     0.489641430629    15.994914619560
           H          0.378275873659     0.853677239562    -1.190706569371     1.007825032070
           H          0.812784873659     1.880836239562     0.173737430629     1.007825032070
           C          2.334706873659    -0.283393760438     0.060802430629    12.000000000000
           H          2.384300873659    -0.478301760438    -1.008666569371     1.007825032070
           H          2.933640873659     0.599933239562     0.278677430629     1.007825032070
           H          2.753289873659    -1.128088760438     0.590318430629     1.007825032070

  Charge       = 0
  Multiplicity = 1
  Basis Set: 6-31G*
  Basis Set:

    Orbital Energies (a.u.)
    -----------------------

    Doubly Occupied:

       1A    -20.564440     2A    -20.546923     3A    -11.274517
       4A    -11.274424     5A    -11.268710     6A    -11.245769
       7A     -1.402181     8A     -1.369115     9A     -1.028575
      10A     -0.951823    11A     -0.893787    12A     -0.817320
      13A     -0.711215    14A     -0.687769    15A     -0.655549
      16A     -0.627654    17A     -0.619020    18A     -0.595842
      19A     -0.548733    20A     -0.545219    21A     -0.523191
      22A     -0.494748    23A     -0.451540    24A     -0.416950
      25A     -0.403551

  @DF-RHF Final Energy:  -306.95479980440138

   => Energetics <=

    Nuclear Repulsion Energy =            273.4428782962444870
    One-Electron Energy =                -960.9581639598599168
    Two-Electron Energy =                 380.5604858592143955
    DFT Exchange-Correlation Energy =       0.0000000000000000
    Empirical Dispersion Energy =           0.0000000000000000
    PCM Polarization Energy =               0.0000000000000000
    EFP Energy =                            0.0000000000000000
    Total Energy =                       -306.9547998044010910

  Mulliken Charges: (a.u.)
   Center  Symbol    Alpha    Beta     Spin     Total
       1     H     0.43397  0.43397  0.00000  0.13205
       2     C     3.07503  3.07503  0.00000 -0.15006
       3     O     4.30851  4.30851  0.00000 -0.61701
       4     H     0.41891  0.41891  0.00000  0.16218
       5     H     0.41381  0.41381  0.00000  0.17237
       6     C     2.98224  2.98224  0.00000  0.03553
       7     C     3.03747  3.03747  0.00000 -0.07493
       8     H     0.41827  0.41827  0.00000  0.16347
       9     H     0.42087  0.42087  0.00000  0.15826
      10     O     4.30185  4.30185  0.00000 -0.60370
      11     H     0.41959  0.41959  0.00000  0.16082
      12     H     0.42200  0.42200  0.00000  0.15601
      13     C     3.08141  3.08141  0.00000 -0.16283
      14     H     0.42928  0.42928  0.00000  0.14144
      15     H     0.42680  0.42680  0.00000  0.14640
      16     H     0.40999  0.40999  0.00000  0.18001

   Total alpha = 25.00000, Total beta = 25.00000, Total charge =  0.00000
