                              Psi4 1.0.54 Driver

  ==> Input File <==

--------------------------------------------------------------------------
set {
	reference rhf
	basis cc-pvtz
}

set_num_threads( 4 )
memory 2 gb

molecule MOL {
0 1

H	 2.614283	 2.028610	 0.296620
O	 3.358864	 1.662087	 -0.142800
C	 3.565468	 0.338079	 0.273842
C	 2.533667	 -0.637565	 -0.272227
H	 4.548038	 0.064914	 -0.086598
H	 3.593945	 0.282242	 1.360360
C	 1.114816	 -0.402372	 0.240993
H	 2.544552	 -0.580764	 -1.356576
H	 2.850574	 -1.642962	 -0.005497
C	 0.053398	 -1.081171	 -0.623566
H	 0.920185	 0.664169	 0.281132
H	 1.034679	 -0.773800	 1.261242
C	 -1.382136	 -0.940367	 -0.113988
H	 0.114573	 -0.690306	 -1.636340
H	 0.290452	 -2.139171	 -0.693636
C	 -1.946692	 0.478543	 -0.155369
H	 -2.020988	 -1.583767	 -0.712679
H	 -1.440367	 -1.320984	 0.903310
C	 -3.411459	 0.551198	 0.268410
H	 -1.846413	 0.874288	 -1.163734
H	 -1.363752	 1.131550	 0.487100
C	 -3.977222	 1.966990	 0.231839
H	 -4.004196	 -0.089888	 -0.378311
H	 -3.514677	 0.148355	 1.272465
H	 -3.917961	 2.386429	 -0.767059
H	 -5.017799	 1.982437	 0.535267
H	 -3.429176	 2.625245	 0.897945

	symmetry c1
}
set optking {
	frozen_dihedral = ("
		10 7 4 8
	")
}

ee,wfn = optimize('scf', return_wfn=True)
oeprop( wfn, 'DIPOLE', 'QUADRUPOLE', 'MULLIKEN_CHARGES')
f=open( 'psi4out.xyz', 'w' )
f.write( "27  " )
f.write( str(ee) + "\n" )
f.write( MOL.save_string_xyz() )
f.close()
--------------------------------------------------------------------------

    Molecular point group: c1
  Charge       = 0
  Multiplicity = 1
  Basis Set: CC-PVTZ
  Basis Set:
  @DF-RHF Final Energy:  -388.42646748885716
    Total Energy =                       -388.4264674888568152
    Molecular point group: c1
  Basis Set: CC-PVTZ
  Basis Set:
  Basis Set: CC-PVTZ
  Basis Set:
  @DF-RHF Final Energy:  -388.42616717193710
    Total Energy =                       -388.4261671719368678
  Basis Set: CC-PVTZ
  Basis Set:
  Basis Set: CC-PVTZ
  Basis Set:
  @DF-RHF Final Energy:  -388.42664117541187
    Total Energy =                       -388.4266411754115325
  Basis Set: CC-PVTZ
  Basis Set:
  Basis Set: CC-PVTZ
  Basis Set:
  @DF-RHF Final Energy:  -388.42666640655614
    Total Energy =                       -388.4266664065561372
  Basis Set: CC-PVTZ
  Basis Set:
  Basis Set: CC-PVTZ
  Basis Set:
  @DF-RHF Final Energy:  -388.42666216753878
    Total Energy =                       -388.4266621675385522
  Basis Set: CC-PVTZ
  Basis Set:
  Basis Set: CC-PVTZ
  Basis Set:
  @DF-RHF Final Energy:  -388.42667337297587
    Total Energy =                       -388.4266733729760972
  Basis Set: CC-PVTZ
  Basis Set:
  Charge       = 0
  Multiplicity = 1
  Basis Set: CC-PVTZ
  Basis Set:

    Orbital Energies (a.u.)
    -----------------------

    Doubly Occupied:

       1A    -20.545243     2A    -11.265249     3A    -11.217064
       4A    -11.214537     5A    -11.213992     6A    -11.213184
       7A    -11.213118     8A    -11.212033     9A    -11.207440
      10A     -1.363224    11A     -1.096124    12A     -1.062355
      13A     -1.012491    14A     -0.949575    15A     -0.888691
      16A     -0.820670    17A     -0.802734    18A     -0.778168
      19A     -0.695296    20A     -0.654436    21A     -0.640814
      22A     -0.614502    23A     -0.599038    24A     -0.583529
      25A     -0.581861    26A     -0.553752    27A     -0.540486
      28A     -0.535112    29A     -0.507713    30A     -0.492937
      31A     -0.485660    32A     -0.471737    33A     -0.469221
      34A     -0.461355    35A     -0.454498    36A     -0.442064
      37A     -0.426098

  @DF-RHF Final Energy:  -388.42667343789918

   => Energetics <=

    Nuclear Repulsion Energy =            460.7678012995048107
    One-Electron Energy =               -1439.8169479803129889
    Two-Electron Energy =                 590.6224732429087680
    DFT Exchange-Correlation Energy =       0.0000000000000000
    Empirical Dispersion Energy =           0.0000000000000000
    PCM Polarization Energy =               0.0000000000000000
    EFP Energy =                            0.0000000000000000
    Total Energy =                       -388.4266734378994670
    Molecular point group: c1
  Basis Set: CC-PVTZ
  Basis Set:

  -Total Gradient:
     Atom            X                  Y                   Z
    ------   -----------------  -----------------  -----------------
       1        0.000011437044    -0.000000350395    -0.000000811442
       2       -0.000038743848    -0.000001978613     0.000018100707
       3        0.000045469066    -0.000041166359    -0.000010803850
       4        0.000621279261     0.004596549268    -0.000667072388
       5       -0.000001181980    -0.000000308519     0.000013437326
       6       -0.000010071362     0.000018999527    -0.000025762277
       7        0.000061188371    -0.003224288322     0.002031956876
       8       -0.000545807494    -0.003133120780     0.000088686325
       9        0.000007707500     0.000003436191     0.000003559212
      10       -0.000143372524     0.001793815151    -0.001461848573
      11        0.000009408979    -0.000006856955    -0.000006773427
      12       -0.000008431231    -0.000004928969     0.000000954144
      13       -0.000007240554    -0.000005211123     0.000000399353
      14       -0.000000384017     0.000000989035     0.000000459487
      15        0.000007263602     0.000006075976     0.000002620412
      16        0.000006116570     0.000003968740     0.000010215571
      17       -0.000005110801     0.000000913045     0.000001290343
      18       -0.000005275521     0.000002968269    -0.000000232686
      19       -0.000001975918     0.000000039742     0.000003371365
      20        0.000002944432    -0.000004048913     0.000003960747
      21       -0.000001988511    -0.000000723127    -0.000000653323
      22        0.000000354670    -0.000004879434    -0.000005803916
      23       -0.000002938350    -0.000000749280     0.000001838799
      24       -0.000000345146     0.000002873122     0.000000149334
      25        0.000000250073     0.000001293927    -0.000000344289
      26       -0.000000688805    -0.000000438134    -0.000001097379
      27        0.000000136494    -0.000002873067     0.000000203549

  **** Optimization is complete! (in 7 steps) ****
    Final optimized geometry and variables:
    Molecular point group: c1

    Geometry (in Angstrom), charge = 0, multiplicity = 1:

    H            2.638787617442     1.868207987874     0.129547675803
    O            3.387870493680     1.442107098175    -0.242616114562
    C            3.541366985632     0.158830949165     0.303570689809
    C            2.511484195086    -0.841149334845    -0.197691635031
    H            4.531437322132    -0.167479996691     0.015342320137
    H            3.521200434380     0.203671861154     1.390784146167
    C            1.079843061627    -0.575713406539     0.271186297849
    H            2.545362219976    -0.877081836859    -1.282043043294
    H            2.814462141586    -1.829296559341     0.141543001046
    C            0.039534063123    -1.335347651070    -0.550774153834
    H            0.866720001055     0.486593985800     0.204140884372
    H            0.986937821194    -0.841020782011     1.321437016995
    C           -1.397618213796    -1.224194784370    -0.039096255583
    H            0.083623985648    -0.989354015434    -1.580147527054
    H            0.314457703593    -2.386685959499    -0.573941899885
    C           -2.003116453352     0.176432028071    -0.111812442378
    H           -2.019413530555    -1.900197338557    -0.619482256087
    H           -1.441388934799    -1.581276032385     0.987301402234
    C           -3.470507324347     0.215430156405     0.307044424001
    H           -1.911508845260     0.553922264069    -1.127989471385
    H           -1.441202899083     0.858971660552     0.518690800535
    C           -4.076597215079     1.613289536221     0.241238261737
    H           -4.042691397240    -0.455012903304    -0.328243838564
    H           -3.564936925313    -0.170355104669     1.318573823875
    H           -4.026709085259     2.014479612667    -0.765613162085
    H           -5.117976793939     1.604820054869     0.542007278751
    H           -3.549571911537     2.300011235252     0.895443589730

  Mulliken Charges: (a.u.)
   Center  Symbol    Alpha    Beta     Spin     Total
       1     H     0.39223  0.39223  0.00000  0.21554
       2     O     4.20509  4.20509  0.00000 -0.41019
       3     C     2.97974  2.97974  0.00000  0.04052
       4     C     3.09048  3.09048  0.00000 -0.18096
       5     H     0.44767  0.44767  0.00000  0.10466
       6     H     0.47039  0.47039  0.00000  0.05922
       7     C     3.09677  3.09677  0.00000 -0.19354
       8     H     0.45176  0.45176  0.00000  0.09649
       9     H     0.45457  0.45457  0.00000  0.09086
      10     C     3.09804  3.09804  0.00000 -0.19608
      11     H     0.46352  0.46352  0.00000  0.07297
      12     H     0.45255  0.45255  0.00000  0.09491
      13     C     3.09778  3.09778  0.00000 -0.19556
      14     H     0.45106  0.45106  0.00000  0.09788
      15     H     0.44787  0.44787  0.00000  0.10427
      16     C     3.08854  3.08854  0.00000 -0.17708
      17     H     0.44806  0.44806  0.00000  0.10389
      18     H     0.45358  0.45358  0.00000  0.09285
      19     C     3.08398  3.08398  0.00000 -0.16796
      20     H     0.45388  0.45388  0.00000  0.09224
      21     H     0.45554  0.45554  0.00000  0.08892
      22     C     3.14967  3.14967  0.00000 -0.29935
      23     H     0.45365  0.45365  0.00000  0.09270
      24     H     0.45463  0.45463  0.00000  0.09073
      25     H     0.45486  0.45486  0.00000  0.09029
      26     H     0.44821  0.44821  0.00000  0.10357
      27     H     0.45589  0.45589  0.00000  0.08822

   Total alpha = 37.00000, Total beta = 37.00000, Total charge = -0.00000

*** Psi4 exiting successfully. Buy a developer a beer!
