  ==> Input File <==

--------------------------------------------------------------------------
set {
	reference rhf
	basis 6-31G*
}

set_num_threads( 4 )
memory 2 gb

molecule MOL {
0 1

H	 -0.821032	 -1.655889	 0.000000
O	 -1.037828	 -0.728600	 0.000000
C	 0.100509	 -0.036935	 0.000000
C	 -0.134617	 1.426628	 -0.242074
O	 1.156393	 -0.550761	 0.174107
H	 -0.629651	 1.563272	 -1.196530
H	 0.809032	 1.950672	 -0.234641
H	 -0.787456	 1.822987	 0.526962

	symmetry c1
}
set optking {
	frozen_dihedral = ("
		4 3 2 1
	")
}

ee = optimize('scf')
oeprop('DIPOLE', 'QUADRUPOLE', 'MULLIKEN_CHARGES')
f=open( 'psi4out.xyz', 'w' )
f.write( "8  " )
f.write( str(ee) + "\n" )
f.write( MOL.save_string_xyz() )
f.close()
--------------------------------------------------------------------------

    Molecular point group: c1
  Charge       = 0
  Multiplicity = 1
  Basis Set: 6-31G*
  Basis Set:
  @DF-RHF Final Energy:  -227.80962460146173
    Total Energy =                       -227.8096246014617350
    Molecular point group: c1
  Basis Set: 6-31G*
  Basis Set:
  Basis Set: 6-31G*
  Basis Set:
  @DF-RHF Final Energy:  -227.80854323925161
    Total Energy =                       -227.8085432392517191
  Basis Set: 6-31G*
  Basis Set:
  Basis Set: 6-31G*
  Basis Set:
  @DF-RHF Final Energy:  -227.80969199017619
    Total Energy =                       -227.8096919901761339
  Basis Set: 6-31G*
  Basis Set:
  Basis Set: 6-31G*
  Basis Set:
  @DF-RHF Final Energy:  -227.80970524984059
    Total Energy =                       -227.8097052498405333
  Basis Set: 6-31G*
  Basis Set:
  Basis Set: 6-31G*
  Basis Set:
  @DF-RHF Final Energy:  -227.80972933147964
    Total Energy =                       -227.8097293314796161
  Basis Set: 6-31G*
  Basis Set:
  Basis Set: 6-31G*
  Basis Set:
  @DF-RHF Final Energy:  -227.80973049318681
    Total Energy =                       -227.8097304931868052
  Basis Set: 6-31G*
  Basis Set:
  Charge       = 0
  Multiplicity = 1
  Basis Set: 6-31G*
  Basis Set:

    Orbital Energies (a.u.)
    -----------------------

    Doubly Occupied:

       1A    -20.615004     2A    -20.553386     3A    -11.386077
       4A    -11.240551     5A     -1.476768     6A     -1.368223
       7A     -1.027109     8A     -0.831443     9A     -0.702700
      10A     -0.682918    11A     -0.653820    12A     -0.581753
      13A     -0.572958    14A     -0.560745    15A     -0.480529
      16A     -0.449135

  @DF-RHF Final Energy:  -227.80973057892049

   => Energetics <=

    Nuclear Repulsion Energy =            122.4409078972668681
    One-Electron Energy =                -554.1350358117285850
    Two-Electron Energy =                 203.8843973355411663
    DFT Exchange-Correlation Energy =       0.0000000000000000
    Empirical Dispersion Energy =           0.0000000000000000
    PCM Polarization Energy =               0.0000000000000000
    EFP Energy =                            0.0000000000000000
    Total Energy =                       -227.8097305789205507
    Molecular point group: c1
  Basis Set: 6-31G*
  Basis Set:

  -Total Gradient:
     Atom            X                  Y                   Z
    ------   -----------------  -----------------  -----------------
       1       -0.000209812678     0.000001841467    -0.003743352473
       2        0.000269227250    -0.000182166332     0.003577875859
       3       -0.000080864955     0.000536040297     0.002556322890
       4        0.000075843406    -0.000352184436    -0.002394351468
       5       -0.000051112690    -0.000004333191     0.000006222250
       6        0.000002757695    -0.000002831829    -0.000001177014
       7       -0.000003134649     0.000000666222    -0.000002072334
       8       -0.000002903381     0.000002967804     0.000000532290

  **** Optimization is complete! (in 7 steps) ****
    Final optimized geometry and variables:
    Molecular point group: c1

    Geometry (in Angstrom), charge = 0, multiplicity = 1:

    H           -0.832723999916    -1.648225150165     0.070824020336
    O           -1.041888133179    -0.719379154698     0.083834643544
    C            0.100162757363    -0.034895803328     0.021757467798
    C           -0.137650319524     1.430550628132    -0.205216380387
    O            1.161261835669    -0.560723558329     0.100343852950
    H           -0.564941684401     1.566988340348    -1.192490023024
    H            0.797356115740     1.965346262542    -0.134085930082
    H           -0.847879736867     1.814226650153     0.517119381063

  Mulliken Charges: (a.u.)
   Center  Symbol    Alpha    Beta     Spin     Total
       1     H     0.26719  0.26719  0.00000  0.46561
       2     O     4.34480  4.34480  0.00000 -0.68959
       3     C     2.63804  2.63804  0.00000  0.72392
       4     C     3.28494  3.28494  0.00000 -0.56987
       5     O     4.27483  4.27483  0.00000 -0.54966
       6     H     0.39733  0.39733  0.00000  0.20534
       7     H     0.39473  0.39473  0.00000  0.21054
       8     H     0.39814  0.39814  0.00000  0.20372

   Total alpha = 16.00000, Total beta = 16.00000, Total charge =  0.00000
