  ==> Input File <==

--------------------------------------------------------------------------
set {
	reference rhf
	basis cc-pvtz
}

set_num_threads( 4 )
memory 2 gb

molecule MOL {
0 1

H	 0.723406	 1.127779	 -1.984017
C	 0.748879	 1.574216	 -0.981171
C	 0.692262	 0.592428	 0.156232
O	 0.812467	 2.748280	 -0.858025
C	 -0.554654	 -0.292621	 0.086567
H	 0.733417	 1.142935	 1.086869
H	 1.581535	 -0.031266	 0.092379
C	 -1.846385	 0.513195	 -0.016346
H	 -0.473986	 -0.956115	 -0.769708
H	 -0.597929	 -0.929215	 0.966651
C	 -3.089953	 -0.365049	 -0.098564
H	 -1.798267	 1.154820	 -0.891143
H	 -1.925398	 1.173265	 0.842889
H	 -3.055079	 -1.012299	 -0.968245
H	 -3.988403	 0.236438	 -0.170014
H	 -3.183055	 -0.995885	 0.779079

	symmetry c1
}
set optking {
	frozen_dihedral = ("
		6 3 5 9
	")
}

ee = optimize('scf')
oeprop('DIPOLE', 'QUADRUPOLE', 'MULLIKEN_CHARGES')
f=open( 'psi4out.xyz', 'w' )
f.write( "16  " )
f.write( str(ee) + "\n" )
f.write( MOL.save_string_xyz() )
f.close()
--------------------------------------------------------------------------

    Molecular point group: c1
  Charge       = 0
  Multiplicity = 1
  Basis Set: CC-PVTZ
  Basis Set:
  @DF-RHF Final Energy:  -270.11759829494088
    Total Energy =                       -270.1175982949408763
    Molecular point group: c1
  Basis Set: CC-PVTZ
  Basis Set:
  Basis Set: CC-PVTZ
  Basis Set:
  @DF-RHF Final Energy:  -270.11777290659870
    Total Energy =                       -270.1177729065988729
  Basis Set: CC-PVTZ
  Basis Set:
  Basis Set: CC-PVTZ
  Basis Set:
  @DF-RHF Final Energy:  -270.11807541694600
    Total Energy =                       -270.1180754169461125
  Basis Set: CC-PVTZ
  Basis Set:
  Basis Set: CC-PVTZ
  Basis Set:
  @DF-RHF Final Energy:  -270.11815262519656
    Total Energy =                       -270.1181526251964442
  Basis Set: CC-PVTZ
  Basis Set:
  @DF-RHF Final Energy:  -270.11817664472005
    Total Energy =                       -270.1181766447200516
  Basis Set: CC-PVTZ
  Basis Set:
  @DF-RHF Final Energy:  -270.11819610699445
    Total Energy =                       -270.1181961069945032
  Basis Set: CC-PVTZ
  Basis Set:
  Basis Set: CC-PVTZ
  Basis Set:
  @DF-RHF Final Energy:  -270.11820187148862
    Total Energy =                       -270.1182018714886226
  Basis Set: CC-PVTZ
  Basis Set:
  Basis Set: CC-PVTZ
  Basis Set:
  @DF-RHF Final Energy:  -270.11820355272869
    Total Energy =                       -270.1182035527286871
  Basis Set: CC-PVTZ
  Basis Set:
  Charge       = 0
  Multiplicity = 1
  Basis Set: CC-PVTZ
  Basis Set:

    Orbital Energies (a.u.)
    -----------------------

    Doubly Occupied:

       1A    -20.551546     2A    -11.321483     3A    -11.234483
       4A    -11.233738     5A    -11.225641     6A    -11.215894
       7A     -1.406584     8A     -1.097342     9A     -1.018313
      10A     -0.905560    11A     -0.824452    12A     -0.786145
      13A     -0.669214    14A     -0.656475    15A     -0.621138
      16A     -0.611175    17A     -0.590284    18A     -0.549165
      19A     -0.528328    20A     -0.518808    21A     -0.490996
      22A     -0.480149    23A     -0.469744    24A     -0.412164

  @DF-RHF Final Energy:  -270.11820388628496

   => Energetics <=

    Nuclear Repulsion Energy =            233.9111721515722309
    One-Electron Energy =                -829.2211094470034141
    Two-Electron Energy =                 325.1917334091463658
    DFT Exchange-Correlation Energy =       0.0000000000000000
    Empirical Dispersion Energy =           0.0000000000000000
    PCM Polarization Energy =               0.0000000000000000
    EFP Energy =                            0.0000000000000000
    Total Energy =                       -270.1182038862847890
    Molecular point group: c1
  Basis Set: CC-PVTZ
  Basis Set:

  -Total Gradient:
     Atom            X                  Y                   Z
    ------   -----------------  -----------------  -----------------
       1        0.000000529039     0.000001653573     0.000002557286
       2        0.000000018523    -0.000002045872     0.000002453434
       3       -0.001292304195     0.001964240771    -0.000991494181
       4        0.000000838332     0.000001166984    -0.000001721120
       5       -0.001006348492     0.001577252155    -0.001460599372
       6        0.001230225613    -0.001869801917     0.001053388970
       7       -0.000006151000    -0.000001154096    -0.000001587832
       8        0.000005751225     0.000011464764    -0.000016489701
       9        0.001055573086    -0.001675007497     0.001410905468
      10        0.000007524969    -0.000001056393    -0.000000474179
      11        0.000002302412    -0.000008999167     0.000003097725
      12       -0.000004907007     0.000011185616    -0.000003561512
      13        0.000005414328    -0.000007688487    -0.000001220669
      14        0.000002011035     0.000001985620     0.000000872514
      15        0.000003527826     0.000000396933    -0.000000644416
      16       -0.000004005695    -0.000003592983     0.000004517583

  **** Optimization is complete! (in 9 steps) ****
    Final optimized geometry and variables:
    Molecular point group: c1

    Geometry (in Angstrom), charge = 0, multiplicity = 1:

    H            1.273014003193     0.330126055343    -1.688163977146
    C            1.345001019708     0.778581774714    -0.687960751288
    C            1.193619328452    -0.189219469582     0.452649158222
    O            1.542267839096     1.938376553334    -0.572439544764
    C           -0.054032982232    -1.071388470506     0.340468797452
    H            1.214962175027     0.354379532984     1.388206254571
    H            2.074872573761    -0.827528000198     0.432946951182
    C           -1.365777431510    -0.293802066529     0.268945971893
    H            0.041493365666    -1.730357058704    -0.518691337097
    H           -0.075548679685    -1.726147556328     1.205724341715
    C           -2.588402322307    -1.203574954024     0.222842471302
    H           -1.367199495886     0.351166955247    -0.605014929701
    H           -1.435185033683     0.365562687341     1.129102852582
    H           -2.560299408766    -1.854020525876    -0.644991546968
    H           -3.503440687555    -0.625607932440     0.173113726098
    H           -2.641393817260    -1.832602073182     1.105069090095

  Mulliken Charges: (a.u.)
   Center  Symbol    Alpha    Beta     Spin     Total
       1     H     0.46312  0.46312  0.00000  0.07376
       2     C     2.90429  2.90429  0.00000  0.19141
       3     C     3.09070  3.09070  0.00000 -0.18141
       4     O     4.16651  4.16651  0.00000 -0.33302
       5     C     3.11036  3.11036  0.00000 -0.22071
       6     H     0.44149  0.44149  0.00000  0.11703
       7     H     0.44227  0.44227  0.00000  0.11545
       8     C     3.08551  3.08551  0.00000 -0.17102
       9     H     0.44931  0.44931  0.00000  0.10138
      10     H     0.44444  0.44444  0.00000  0.11112
      11     C     3.14972  3.14972  0.00000 -0.29945
      12     H     0.44963  0.44963  0.00000  0.10073
      13     H     0.44828  0.44828  0.00000  0.10343
      14     H     0.45480  0.45480  0.00000  0.09040
      15     H     0.44573  0.44573  0.00000  0.10854
      16     H     0.45382  0.45382  0.00000  0.09236

   Total alpha = 24.00000, Total beta = 24.00000, Total charge = -0.00000
