                              Psi4 1.0.54 Driver

  ==> Input File <==

--------------------------------------------------------------------------
set {
	reference rhf
	basis cc-pvtz
}

set_num_threads( 4 )
memory 2 gb

molecule MOL {
0 1

H	 -3.245297	 -1.030723	 -0.285457
O	 -2.321472	 -0.864941	 -0.318626
C	 -2.021813	 0.336996	 0.342658
C	 -0.669613	 0.837286	 -0.127252
H	 -2.780861	 1.084746	 0.127159
H	 -2.006390	 0.184138	 1.420053
C	 0.490865	 -0.082543	 0.241244
H	 -0.708709	 0.967192	 -1.204587
H	 -0.507562	 1.822272	 0.303070
C	 1.839800	 0.429565	 -0.255472
H	 0.305636	 -1.070211	 -0.165276
H	 0.527397	 -0.195943	 1.322876
C	 3.001144	 -0.485193	 0.119072
H	 1.804373	 0.541073	 -1.335756
H	 2.020437	 1.423114	 0.146921
H	 2.866892	 -1.477297	 -0.298806
H	 3.943543	 -0.095749	 -0.249061
H	 3.085064	 -0.590459	 1.195790

	symmetry c1
}
set optking {
	frozen_dihedral = ("
		1 2 3 4
	")
}

ee,wfn = optimize('scf', return_wfn=True)
oeprop( wfn, 'DIPOLE', 'QUADRUPOLE', 'MULLIKEN_CHARGES')
f=open( 'psi4out.xyz', 'w' )
f.write( "18  " )
f.write( str(ee) + "\n" )
f.write( MOL.save_string_xyz() )
f.close()
--------------------------------------------------------------------------

    Molecular point group: c1
  Charge       = 0
  Multiplicity = 1
  Basis Set: CC-PVTZ
  Basis Set:
  @DF-RHF Final Energy:  -271.28643001605036
    Total Energy =                       -271.2864300160503035
    Molecular point group: c1
  Basis Set: CC-PVTZ
  Basis Set:
  Basis Set: CC-PVTZ
  Basis Set:
  @DF-RHF Final Energy:  -271.28644881875618
    Total Energy =                       -271.2864488187560710
  Basis Set: CC-PVTZ
  Basis Set:
  Basis Set: CC-PVTZ
  Basis Set:
  @DF-RHF Final Energy:  -271.28645370686962
    Total Energy =                       -271.2864537068695086
  Basis Set: CC-PVTZ
  Basis Set:
  Charge       = 0
  Multiplicity = 1
  Basis Set: CC-PVTZ
  Basis Set:

    Orbital Energies (a.u.)
    -----------------------

    Doubly Occupied:

       1A    -20.545891     2A    -11.266018     3A    -11.210298
       4A    -11.208877     5A    -11.204620     6A    -11.202448
       7A     -1.363755     8A     -1.076337     9A     -1.010059
      10A     -0.914238    11A     -0.818538    12A     -0.785154
      13A     -0.706740    14A     -0.647396    15A     -0.622633
      16A     -0.582349    17A     -0.574393    18A     -0.555528
      19A     -0.521458    20A     -0.509470    21A     -0.489425
      22A     -0.467459    23A     -0.458949    24A     -0.443884
      25A     -0.434055

  @DF-RHF Final Energy:  -271.28645395965748

   => Energetics <=

    Nuclear Repulsion Energy =            249.2862230579659979
    One-Electron Energy =                -861.9054059865563886
    Two-Electron Energy =                 341.3327289689331110
    DFT Exchange-Correlation Energy =       0.0000000000000000
    Empirical Dispersion Energy =           0.0000000000000000
    PCM Polarization Energy =               0.0000000000000000
    EFP Energy =                            0.0000000000000000
    Total Energy =                       -271.2864539596572513
    Molecular point group: c1
  Basis Set: CC-PVTZ
  Basis Set:

  -Total Gradient:
     Atom            X                  Y                   Z
    ------   -----------------  -----------------  -----------------
       1       -0.000137387631     0.000679499910    -0.001187186176
       2        0.000068065318    -0.000673840300     0.001234892011
       3        0.000448392487    -0.000399379229     0.000597963286
       4       -0.000393262968     0.000408190358    -0.000647322345
       5        0.000012515174    -0.000007432202     0.000001982184
       6        0.000004684753     0.000008090497    -0.000026420022
       7        0.000008484938     0.000005030396     0.000016975783
       8       -0.000008463124     0.000003441272     0.000001409601
       9       -0.000013820062    -0.000018010628     0.000011144205
      10        0.000008900222    -0.000003178746     0.000000097699
      11        0.000002066641    -0.000001148683     0.000010892313
      12       -0.000004179817     0.000001800357    -0.000000011207
      13       -0.000001129523    -0.000003771626    -0.000011459741
      14        0.000004121474     0.000006028903    -0.000004097656
      15       -0.000000174631    -0.000003652935     0.000004814654
      16        0.000001943539    -0.000003552386     0.000001135249
      17        0.000002235162    -0.000001587093    -0.000002860951
      18       -0.000002991955     0.000003472134    -0.000001948886

  **** Optimization is complete! (in 4 steps) ****
    Final optimized geometry and variables:
    Molecular point group: c1

    Geometry (in Angstrom), charge = 0, multiplicity = 1:

    H           -3.233827656716    -1.050977441467    -0.271341691434
    O           -2.311302214497    -0.880619006191    -0.300305658038
    C           -2.022599686226     0.337807975757     0.337228570345
    C           -0.669635937828     0.840944984293    -0.128163898991
    H           -2.781667883799     1.077685452367     0.098291230192
    H           -2.021714241087     0.205373618062     1.417177579021
    C            0.489436398844    -0.080779066518     0.240773763497
    H           -0.705578233031     0.973848740959    -1.205103127778
    H           -0.508091727754     1.823836232257     0.307473337379
    C            1.839960048710     0.431694563288    -0.251061808283
    H            0.304638675258    -1.067263512320    -0.169003002682
    H            0.522572855240    -0.197610548113     1.321997682762
    C            2.999145775682    -0.487243748441     0.119761674663
    H            1.806325264023     0.549489371875    -1.330757952139
    H            2.021681785004     1.422574342647     0.157351664185
    H            2.862984378315    -1.477081628660    -0.302774539032
    H            3.942577548184    -0.098065075814    -0.246012044648
    H            3.082091616949    -0.597719292392     1.195988601730

  Mulliken Charges: (a.u.)
   Center  Symbol    Alpha    Beta     Spin     Total
       1     H     0.39464  0.39464  0.00000  0.21072
       2     O     4.19984  4.19984  0.00000 -0.39969
       3     C     2.97303  2.97303  0.00000  0.05394
       4     C     3.08825  3.08825  0.00000 -0.17651
       5     H     0.46640  0.46640  0.00000  0.06720
       6     H     0.47347  0.47347  0.00000  0.05307
       7     C     3.08761  3.08761  0.00000 -0.17523
       8     H     0.45395  0.45395  0.00000  0.09211
       9     H     0.45540  0.45540  0.00000  0.08920
      10     C     3.08354  3.08354  0.00000 -0.16709
      11     H     0.44412  0.44412  0.00000  0.11176
      12     H     0.45889  0.45889  0.00000  0.08223
      13     C     3.14970  3.14970  0.00000 -0.29940
      14     H     0.45457  0.45457  0.00000  0.09085
      15     H     0.45679  0.45679  0.00000  0.08641
      16     H     0.45437  0.45437  0.00000  0.09125
      17     H     0.44951  0.44951  0.00000  0.10098
      18     H     0.45590  0.45590  0.00000  0.08820

   Total alpha = 25.00000, Total beta = 25.00000, Total charge = -0.00000

*** Psi4 exiting successfully. Buy a developer a beer!
