                              Psi4 1.0.54 Driver

  ==> Input File <==

--------------------------------------------------------------------------
set {
	reference rhf
	basis cc-pvtz
}

set_num_threads( 4 )
memory 2 gb

molecule MOL {
0 1

O	 3.219313	 0.959291	 -0.614106
C	 2.698710	 0.058177	 -0.050237
C	 1.246364	 -0.005813	 0.348416
O	 3.344101	 -1.038700	 0.312317
C	 0.453207	 1.232821	 -0.049003
H	 0.839270	 -0.907818	 -0.092281
H	 1.216683	 -0.160521	 1.422434
C	 -0.998367	 1.217982	 0.432195
H	 0.481498	 1.345443	 -1.127236
H	 0.951413	 2.105557	 0.354893
C	 -1.882951	 0.151251	 -0.211235
H	 -1.429490	 2.193659	 0.228843
H	 -1.019755	 1.099323	 1.513279
C	 -3.342450	 0.243269	 0.226009
H	 -1.826223	 0.246578	 -1.293162
H	 -1.508033	 -0.839650	 0.027695
C	 -4.234517	 -0.821434	 -0.405970
H	 -3.730149	 1.228245	 -0.022691
H	 -3.398860	 0.159952	 1.308941
C	 -5.077760	 -0.289547	 -1.560013
H	 -3.617102	 -1.642447	 -0.760170
H	 -4.888686	 -1.239315	 0.354487
H	 -5.698648	 -1.069632	 -1.985397
H	 -4.451190	 0.103760	 -2.353630
H	 -5.732040	 0.510723	 -1.230325
C	 4.720529	 -1.114346	 0.001449
H	 4.874321	 -1.055557	 -1.065852
H	 5.057824	 -2.067950	 0.373977
H	 5.264321	 -0.313596	 0.480350

	symmetry c1
}
set optking {
	frozen_dihedral = ("
		21 17 14 11
	")
}

ee,wfn = optimize('scf', return_wfn=True)
oeprop( wfn, 'DIPOLE', 'QUADRUPOLE', 'MULLIKEN_CHARGES')
f=open( 'psi4out.xyz', 'w' )
f.write( "29  " )
f.write( str(ee) + "\n" )
f.write( MOL.save_string_xyz() )
f.close()
--------------------------------------------------------------------------

    Molecular point group: c1
  Charge       = 0
  Multiplicity = 1
  Basis Set: CC-PVTZ
  Basis Set:
  @DF-RHF Final Energy:  -501.22004506148437
    Total Energy =                       -501.2200450614834608
    Molecular point group: c1
  Basis Set: CC-PVTZ
  Basis Set:
  Basis Set: CC-PVTZ
  Basis Set:
  @DF-RHF Final Energy:  -501.22032838661164
    Total Energy =                       -501.2203283866118682
  Basis Set: CC-PVTZ
  Basis Set:
  Basis Set: CC-PVTZ
  Basis Set:
  @DF-RHF Final Energy:  -501.22038860940449
    Total Energy =                       -501.2203886094041536
  Basis Set: CC-PVTZ
  Basis Set:
  Basis Set: CC-PVTZ
  Basis Set:
  @DF-RHF Final Energy:  -501.22014239238320
    Total Energy =                       -501.2201423923834227
  Basis Set: CC-PVTZ
  Basis Set:
  Basis Set: CC-PVTZ
  Basis Set:
  @DF-RHF Final Energy:  -501.22039991053100
    Total Energy =                       -501.2203999105308867
  Basis Set: CC-PVTZ
  Basis Set:
  Charge       = 0
  Multiplicity = 1
  Basis Set: CC-PVTZ
  Basis Set:

    Orbital Energies (a.u.)
    -----------------------

    Doubly Occupied:

       1A    -20.596062     2A    -20.533910     3A    -11.364321
       4A    -11.278300     5A    -11.233021     6A    -11.217152
       7A    -11.215466     8A    -11.214181     9A    -11.213793
      10A    -11.212167    11A    -11.207139    12A     -1.471938
      13A     -1.365547    14A     -1.098998    15A     -1.066724
      16A     -1.019668    17A     -0.977503    18A     -0.928737
      19A     -0.864767    20A     -0.801587    21A     -0.788095
      22A     -0.765940    23A     -0.702890    24A     -0.685554
      25A     -0.676088    26A     -0.642725    27A     -0.631556
      28A     -0.606727    29A     -0.602648    30A     -0.582733
      31A     -0.564214    32A     -0.555158    33A     -0.534091
      34A     -0.524640    35A     -0.516388    36A     -0.514953
      37A     -0.499552    38A     -0.476001    39A     -0.474583
      40A     -0.461227    41A     -0.458964    42A     -0.454248
      43A     -0.443493    44A     -0.437126

  @DF-RHF Final Energy:  -501.22040032324037

   => Energetics <=

    Nuclear Repulsion Energy =            613.8798568681423831
    One-Electron Energy =               -1899.2393703872166952
    Two-Electron Energy =                 784.1391131958338292
    DFT Exchange-Correlation Energy =       0.0000000000000000
    Empirical Dispersion Energy =           0.0000000000000000
    PCM Polarization Energy =               0.0000000000000000
    EFP Energy =                            0.0000000000000000
    Total Energy =                       -501.2204003232405967
    Molecular point group: c1
  Basis Set: CC-PVTZ
  Basis Set:

  -Total Gradient:
     Atom            X                  Y                   Z
    ------   -----------------  -----------------  -----------------
       1       -0.000027918955     0.000050567856    -0.000034797594
       2        0.000033800930     0.000004141671     0.000027596518
       3        0.000004335538    -0.000020090455    -0.000020289983
       4       -0.000019790063    -0.000056248237     0.000019146142
       5        0.000021157152     0.000035576866     0.000013293574
       6       -0.000010794718    -0.000023421056     0.000002145670
       7        0.000008882025     0.000007998192    -0.000001006717
       8       -0.000031289855     0.000017154688    -0.000030901672
       9        0.000008199096     0.000012088449    -0.000014261971
      10        0.000013772385    -0.000009154993     0.000003487377
      11        0.000481788265    -0.001462285454     0.001734342530
      12       -0.000015494257    -0.000001119641     0.000002757898
      13       -0.000002130039    -0.000000198958    -0.000003198137
      14       -0.000604373065     0.002345905845    -0.002984527087
      15        0.000020214888     0.000004862143    -0.000003930576
      16        0.000020417689    -0.000039382324    -0.000002625511
      17       -0.000096503770    -0.002377576985     0.004009425148
      18       -0.000023956597     0.000028951073    -0.000009059153
      19        0.000004058693    -0.000005674731     0.000025565741
      20       -0.000003728823    -0.000024577712     0.000009639426
      21        0.000256252873     0.001456188043    -0.002730108642
      22       -0.000002282433     0.000008023484     0.000016319348
      23       -0.000006807498    -0.000004459373    -0.000006324197
      24        0.000009946265     0.000008937056    -0.000022563966
      25       -0.000019292342     0.000031295506     0.000002364867
      26       -0.000006926213     0.000020745064    -0.000009610924
      27        0.000000265274    -0.000002342726    -0.000002268994
      28       -0.000011485643    -0.000006632143     0.000006111257
      29       -0.000000316803     0.000000728853     0.000003279623

  **** Optimization is complete! (in 6 steps) ****
    Final optimized geometry and variables:
    Molecular point group: c1

    Geometry (in Angstrom), charge = 0, multiplicity = 1:

    O            3.145236080059     0.931106444022    -0.521278742223
    C            2.642281506936     0.039232988777     0.072538787809
    C            1.196262103879    -0.029953520930     0.492762094398
    O            3.304315492589    -1.041436453904     0.453342187127
    C            0.384654157261     1.190381174860     0.076299796994
    H            0.792958198605    -0.946737898444     0.079870138751
    H            1.182771120417    -0.158601713233     1.570526875290
    C           -1.060981789031     1.171003809478     0.575268335771
    H            0.398987723272     1.278187712396    -1.004529185949
    H            0.877934674352     2.077625627611     0.453790210953
    C           -1.941151209356     0.080497321377    -0.032322816341
    H           -1.505369985792     2.137007778450     0.355141206956
    H           -1.068335401765     1.076904297689     1.659070467468
    C           -3.393939200433     0.155296224014     0.435260053791
    H           -1.903496577216     0.156609699365    -1.117098571211
    H           -1.550218326002    -0.900925340369     0.217876646161
    C           -4.305145840857    -0.902171263406    -0.213445047675
    H           -3.788912999950     1.147739525942     0.238653229487
    H           -3.408730248225     0.036759651833     1.514716763538
    C           -5.145374900563    -0.347866842197    -1.362753541945
    H           -3.695593235151    -1.711892507855    -0.602792053762
    H           -4.964973410503    -1.334807632747     0.529829809025
    H           -5.738990108370    -1.126868088703    -1.827898328543
    H           -4.517577920557     0.091292527460    -2.131400783934
    H           -5.824389983432     0.422646379864    -1.013415260176
    C            4.677045088283    -1.110618731051     0.125085560470
    H            4.815425086177    -1.077120203753    -0.945419152057
    H            5.029637454821    -2.051022296122     0.516562872918
    H            5.218810582879    -0.292492511392     0.576116235209

  Mulliken Charges: (a.u.)
   Center  Symbol    Alpha    Beta     Spin     Total
       1     O     4.19697  4.19697  0.00000 -0.39394
       2     C     2.80483  2.80483  0.00000  0.39035
       3     C     3.10175  3.10175  0.00000 -0.20351
       4     O     4.14720  4.14720  0.00000 -0.29440
       5     C     3.09241  3.09241  0.00000 -0.18482
       6     H     0.43920  0.43920  0.00000  0.12159
       7     H     0.43986  0.43986  0.00000  0.12028
       8     C     3.10475  3.10475  0.00000 -0.20950
       9     H     0.44622  0.44622  0.00000  0.10755
      10     H     0.43962  0.43962  0.00000  0.12077
      11     C     3.09293  3.09293  0.00000 -0.18586
      12     H     0.44466  0.44466  0.00000  0.11067
      13     H     0.45361  0.45361  0.00000  0.09277
      14     C     3.09589  3.09589  0.00000 -0.19179
      15     H     0.45260  0.45260  0.00000  0.09480
      16     H     0.45282  0.45282  0.00000  0.09436
      17     C     3.09026  3.09026  0.00000 -0.18053
      18     H     0.45348  0.45348  0.00000  0.09304
      19     H     0.44864  0.44864  0.00000  0.10271
      20     C     3.14736  3.14736  0.00000 -0.29472
      21     H     0.45600  0.45600  0.00000  0.08800
      22     H     0.44769  0.44769  0.00000  0.10462
      23     H     0.44921  0.44921  0.00000  0.10157
      24     H     0.45511  0.45511  0.00000  0.08978
      25     H     0.45494  0.45494  0.00000  0.09011
      26     C     3.03812  3.03812  0.00000 -0.07624
      27     H     0.45435  0.45435  0.00000  0.09130
      28     H     0.44527  0.44527  0.00000  0.10946
      29     H     0.45423  0.45423  0.00000  0.09155

   Total alpha = 44.00000, Total beta = 44.00000, Total charge = -0.00000

*** Psi4 exiting successfully. Buy a developer a beer!
