  ==> Input File <==

--------------------------------------------------------------------------
set {
	reference rhf
	basis 6-31G*
}

set_num_threads( 1 )
memory 2 gb

molecule MOL {
0 1

O	 0.653587	 -0.125839	 0.500792
C	 1.705091	 0.115954	 0.001797
C	 2.070425	 1.402617	 -0.697415
O	 2.721346	 -0.737485	 -0.000216
C	 0.935964	 2.422437	 -0.722127
H	 2.949701	 1.803705	 -0.200710
H	 2.390958	 1.145746	 -1.703395
C	 1.333540	 3.715720	 -1.435159
H	 0.629851	 2.641505	 0.295955
H	 0.070935	 1.983377	 -1.209221
C	 0.207425	 4.750425	 -1.468454
H	 2.203632	 4.149217	 -0.944225
H	 1.641728	 3.489096	 -2.454739
C	 0.604867	 6.041945	 -2.182084
H	 -0.099845	 4.979819	 -0.450562
H	 -0.662161	 4.319172	 -1.959349
H	 1.451467	 6.515796	 -1.693262
H	 -0.213810	 6.754802	 -2.189362
H	 0.885144	 5.849801	 -3.213994
C	 4.024888	 -0.184556	 -0.001949
H	 4.179030	 0.422472	 -0.882452
H	 4.701782	 -1.024608	 -0.003642
H	 4.181981	 0.421185	 0.878906

	symmetry c1
}
set optking {
	frozen_dihedral = ("
		15 11 8 12,
		9 5 8 12,
		1 2 3 6,
		9 5 3 6
	")
}

ee = energy('scf')
oeprop('DIPOLE', 'QUADRUPOLE', 'MULLIKEN_CHARGES')
f=open( 'psi4out.xyz', 'w' )
f.write( "23  " )
f.write( str(ee) + "\n" )
f.write( MOL.save_string_xyz() )
f.close()
--------------------------------------------------------------------------

    Molecular point group: c1

    Geometry (in Angstrom), charge = 0, multiplicity = 1:

       Center              X                  Y                   Z               Mass
    ------------   -----------------  -----------------  -----------------  -----------------
           O         -0.953405964054    -2.040965744354     1.161142279815    15.994914619560
           C          0.098098035946    -1.799172744354     0.662147279815    12.000000000000
           C          0.463432035946    -0.512509744354    -0.037064720185    12.000000000000
           O          1.114353035946    -2.652611744354     0.660134279815    15.994914619560
           C         -0.671028964054     0.507310255646    -0.061776720185    12.000000000000
           H          1.342708035946    -0.111421744354     0.459640279815     1.007825032070
           H          0.783965035946    -0.769380744354    -1.043044720185     1.007825032070
           C         -0.273452964054     1.800593255646    -0.774808720185    12.000000000000
           H         -0.977141964054     0.726378255646     0.956305279815     1.007825032070
           H         -1.536057964054     0.068250255646    -0.548870720185     1.007825032070
           C         -1.399567964054     2.835298255646    -0.808103720185    12.000000000000
           H          0.596639035946     2.234090255646    -0.283874720185     1.007825032070
           H          0.034735035946     1.573969255646    -1.794388720185     1.007825032070
           C         -1.002125964054     4.126818255646    -1.521733720185    12.000000000000
           H         -1.706837964054     3.064692255646     0.209788279815     1.007825032070
           H         -2.269153964054     2.404045255646    -1.298998720185     1.007825032070
           H         -0.155525964054     4.600669255646    -1.032911720185     1.007825032070
           H         -1.820802964054     4.839675255646    -1.529011720185     1.007825032070
           H         -0.721848964054     3.934674255646    -2.553643720185     1.007825032070
           C          2.417895035946    -2.099682744354     0.658401279815    12.000000000000
           H          2.572037035946    -1.492654744354    -0.222101720185     1.007825032070
           H          3.094789035946    -2.939734744354     0.656708279815     1.007825032070
           H          2.574988035946    -1.493941744354     1.539256279815     1.007825032070

  Charge       = 0
  Multiplicity = 1
  Basis Set: 6-31G*
  Basis Set:

    Orbital Energies (a.u.)
    -----------------------

    Doubly Occupied:

       1A    -20.602852     2A    -20.546845     3A    -11.374613
       4A    -11.297303     5A    -11.241434     6A    -11.222944
       7A    -11.221809     8A    -11.219414     9A    -11.212340
      10A     -1.467140    11A     -1.369361    12A     -1.096813
      13A     -1.043065    14A     -0.988170    15A     -0.956744
      16A     -0.857948    17A     -0.799950    18A     -0.764541
      19A     -0.702249    20A     -0.692693    21A     -0.677753
      22A     -0.654791    23A     -0.616570    24A     -0.604419
      25A     -0.582724    26A     -0.564938    27A     -0.561594
      28A     -0.544893    29A     -0.520343    30A     -0.508299
      31A     -0.489399    32A     -0.473156    33A     -0.469405
      34A     -0.466148    35A     -0.452480    36A     -0.428376

  @DF-RHF Final Energy:  -422.95045944059001

   => Energetics <=

    Nuclear Repulsion Energy =            458.2316108237619687
    One-Electron Energy =               -1483.7770434688709429
    Two-Electron Energy =                 602.5949732045211249
    DFT Exchange-Correlation Energy =       0.0000000000000000
    Empirical Dispersion Energy =           0.0000000000000000
    PCM Polarization Energy =               0.0000000000000000
    EFP Energy =                            0.0000000000000000
    Total Energy =                       -422.9504594405879061

  Mulliken Charges: (a.u.)
   Center  Symbol    Alpha    Beta     Spin     Total
       1     O     4.26923  4.26923  0.00000 -0.53846
       2     C     2.59223  2.59223  0.00000  0.81553
       3     C     3.24464  3.24464  0.00000 -0.48929
       4     O     4.30122  4.30122  0.00000 -0.60244
       5     C     3.14828  3.14828  0.00000 -0.29655
       6     H     0.40256  0.40256  0.00000  0.19487
       7     H     0.39881  0.39881  0.00000  0.20238
       8     C     3.15323  3.15323  0.00000 -0.30647
       9     H     0.41078  0.41078  0.00000  0.17843
      10     H     0.40953  0.40953  0.00000  0.18094
      11     C     3.15185  3.15185  0.00000 -0.30370
      12     H     0.42567  0.42567  0.00000  0.14867
      13     H     0.42466  0.42466  0.00000  0.15068
      14     C     3.23967  3.23967  0.00000 -0.47934
      15     H     0.42087  0.42087  0.00000  0.15826
      16     H     0.42042  0.42042  0.00000  0.15917
      17     H     0.42214  0.42214  0.00000  0.15571
      18     H     0.41778  0.41778  0.00000  0.16444
      19     H     0.42182  0.42182  0.00000  0.15637
      20     C     3.10468  3.10468  0.00000 -0.20936
      21     H     0.41194  0.41194  0.00000  0.17612
      22     H     0.39687  0.39687  0.00000  0.20625
      23     H     0.41111  0.41111  0.00000  0.17777

   Total alpha = 36.00000, Total beta = 36.00000, Total charge = -0.00000
