                              Psi4 1.0.54 Driver

  ==> Input File <==

--------------------------------------------------------------------------
set {
	reference rhf
	basis cc-pvtz
}

set_num_threads( 4 )
memory 2 gb

molecule MOL {
0 1

O	 1.847685	 1.294399	 -0.000190
C	 1.704209	 0.119472	 -0.000093
C	 0.380337	 -0.600947	 -0.000234
O	 2.715427	 -0.733672	 0.000025
C	 -0.824290	 0.329213	 -0.000115
H	 0.371455	 -1.255476	 -0.865660
H	 0.371410	 -1.255787	 0.864952
C	 -0.691664	 1.450714	 1.025879
H	 -1.720776	 -0.247206	 0.198198
H	 -0.950940	 0.749911	 -0.991207
C	 -1.890558	 2.394594	 1.040473
H	 -0.562446	 1.022061	 2.017247
H	 0.210985	 2.022911	 0.823262
C	 -1.758284	 3.515205	 2.066215
H	 -2.792560	 1.824293	 1.243710
H	 -2.019579	 2.824565	 0.051212
H	 -1.662139	 3.117210	 3.070999
H	 -2.624984	 4.165833	 2.050461
H	 -0.883268	 4.125637	 1.868846
C	 4.020999	 -0.192556	 0.000019
H	 4.182809	 0.412891	 -0.879449
H	 4.692590	 -1.035653	 0.000152
H	 4.182726	 0.413087	 0.879368

	symmetry c1
}
set optking {
	frozen_dihedral = ("
		9 5 3 6
	")
}

ee,wfn = optimize('scf', return_wfn=True)
oeprop( wfn, 'DIPOLE', 'QUADRUPOLE', 'MULLIKEN_CHARGES')
f=open( 'psi4out.xyz', 'w' )
f.write( "23  " )
f.write( str(ee) + "\n" )
f.write( MOL.save_string_xyz() )
f.close()
--------------------------------------------------------------------------

    Molecular point group: c1
  Charge       = 0
  Multiplicity = 1
  Basis Set: CC-PVTZ
  Basis Set:
  @DF-RHF Final Energy:  -423.12008767914324
    Total Energy =                       -423.1200876791434666
    Molecular point group: c1
  Basis Set: CC-PVTZ
  Basis Set:
  Basis Set: CC-PVTZ
  Basis Set:
  @DF-RHF Final Energy:  -423.12631223219779
    Total Energy =                       -423.1263122321970513
  Basis Set: CC-PVTZ
  Basis Set:
  Basis Set: CC-PVTZ
  Basis Set:
  @DF-RHF Final Energy:  -423.12732526868643
    Total Energy =                       -423.1273252686862634
  Basis Set: CC-PVTZ
  Basis Set:
  Basis Set: CC-PVTZ
  Basis Set:
  @DF-RHF Final Energy:  -423.12657575508820
    Total Energy =                       -423.1265757550878561
  Basis Set: CC-PVTZ
  Basis Set:
  @DF-RHF Final Energy:  -423.12805257212403
    Total Energy =                       -423.1280525721236927
  @DF-RHF Final Energy:  -423.12833738553695
    Total Energy =                       -423.1283373855371792
  @DF-RHF Final Energy:  -423.12859615569994
    Total Energy =                       -423.1285961556994835
  Basis Set: CC-PVTZ
  Basis Set:
  @DF-RHF Final Energy:  -423.12864233353264
    Total Energy =                       -423.1286423335324116
  Basis Set: CC-PVTZ
  Basis Set:
  Basis Set: CC-PVTZ
  Basis Set:
  @DF-RHF Final Energy:  -423.12864917098307
    Total Energy =                       -423.1286491709827260
  Basis Set: CC-PVTZ
  Basis Set:
  Basis Set: CC-PVTZ
  Basis Set:
  @DF-RHF Final Energy:  -423.12865069328097
    Total Energy =                       -423.1286506932805196
  Basis Set: CC-PVTZ
  Basis Set:
  Charge       = 0
  Multiplicity = 1
  Basis Set: CC-PVTZ
  Basis Set:

    Orbital Energies (a.u.)
    -----------------------

    Doubly Occupied:

       1A    -20.598161     2A    -20.532169     3A    -11.364767
       4A    -11.278846     5A    -11.234125     6A    -11.220719
       7A    -11.212219     8A    -11.210101     9A    -11.205012
      10A     -1.472881    11A     -1.365314    12A     -1.092525
      13A     -1.042525    14A     -0.986689    15A     -0.932404
      16A     -0.844777    17A     -0.795819    18A     -0.768317
      19A     -0.699811    20A     -0.683695    21A     -0.674512
      22A     -0.645590    23A     -0.612563    24A     -0.600943
      25A     -0.570403    26A     -0.563372    27A     -0.552770
      28A     -0.527949    29A     -0.525147    30A     -0.503366
      31A     -0.492865    32A     -0.470072    33A     -0.464951
      34A     -0.457531    35A     -0.453586    36A     -0.435406

  @DF-RHF Final Energy:  -423.12865087484801

   => Energetics <=

    Nuclear Repulsion Energy =            465.7686415505289119
    One-Electron Energy =               -1499.6107815496552575
    Two-Electron Energy =                 610.7134891242782260
    DFT Exchange-Correlation Energy =       0.0000000000000000
    Empirical Dispersion Energy =           0.0000000000000000
    PCM Polarization Energy =               0.0000000000000000
    EFP Energy =                            0.0000000000000000
    Total Energy =                       -423.1286508748481765
    Molecular point group: c1
  Basis Set: CC-PVTZ
  Basis Set:

  -Total Gradient:
     Atom            X                  Y                   Z
    ------   -----------------  -----------------  -----------------
       1        0.000019170719     0.000025394538     0.000003122738
       2       -0.000002655331    -0.000023960872    -0.000010645314
       3       -0.003083821710    -0.003877208861     0.004022005590
       4        0.000022289077     0.000025550887     0.000000309393
       5       -0.000241292080     0.000096464340    -0.006185848402
       6        0.002603015840     0.003214514812    -0.002446548130
       7       -0.000010077843     0.000014850727    -0.000012186144
       8       -0.000015066378    -0.000026243615    -0.000024797826
       9        0.000666466584     0.000557459189     0.004652669818
      10        0.000014834711    -0.000009043374     0.000013803108
      11       -0.000010439777     0.000013776042    -0.000007882937
      12        0.000008561326     0.000001629038     0.000002979865
      13        0.000023487755     0.000014804336    -0.000008676589
      14        0.000002712147    -0.000007291283     0.000001561245
      15        0.000010907547    -0.000001756141    -0.000004376794
      16        0.000002627508     0.000004501119    -0.000007549065
      17        0.000002347151    -0.000001440916     0.000011951012
      18       -0.000001037926    -0.000006042436     0.000000735082
      19       -0.000004486626    -0.000003623400    -0.000003837043
      20        0.000038917852    -0.000005778311    -0.000000103514
      21       -0.000018617283    -0.000003476588     0.000018392145
      22       -0.000010314353     0.000015756254    -0.000009541369
      23       -0.000017528910    -0.000018835486    -0.000005536868

  **** Optimization is complete! (in 11 steps) ****
    Final optimized geometry and variables:
    Molecular point group: c1

    Geometry (in Angstrom), charge = 0, multiplicity = 1:

    O            1.276862245659     0.238269842182    -1.265662214957
    C            1.064423888977    -0.759417602287    -0.663180416323
    C           -0.292394989749    -1.406011764474    -0.516781153387
    O            2.016112702459    -1.468196925035    -0.081273562174
    C           -1.455668701948    -0.415545871841    -0.462753418598
    H           -0.378498670403    -2.019174642215    -1.409992494448
    H           -0.282703827751    -2.064606705782     0.339753147372
    C           -1.329649400711     0.641524159925     0.635016788276
    H           -2.355611464487    -0.987923968918    -0.259270444607
    H           -1.574128943737     0.065595434881    -1.425172860223
    C           -2.559204633825     1.540739497762     0.730316235402
    H           -1.175585102994     0.146584932431     1.592275596257
    H           -0.454746252436     1.254917144642     0.455430340294
    C           -2.441571210422     2.599139576427     1.821843651939
    H           -3.440215554315     0.931294150670     0.913447891075
    H           -2.719138553991     2.028201524073    -0.227338230747
    H           -2.312186033233     2.142618473413     2.797713580513
    H           -3.328613343956     3.220792199081     1.863197286830
    H           -1.590370552166     3.248155772819     1.646212424960
    C            3.344574532746    -1.003776687349    -0.216021580054
    H            3.631663480705    -0.967429049383    -1.256385440879
    H            3.961576860370    -1.709103325398     0.316486982931
    H            3.448650796471    -0.018408719764     0.212981677331

  Mulliken Charges: (a.u.)
   Center  Symbol    Alpha    Beta     Spin     Total
       1     O     4.20484  4.20484  0.00000 -0.40967
       2     C     2.79960  2.79960  0.00000  0.40081
       3     C     3.10840  3.10840  0.00000 -0.21679
       4     O     4.14637  4.14637  0.00000 -0.29275
       5     C     3.08757  3.08757  0.00000 -0.17514
       6     H     0.43751  0.43751  0.00000  0.12497
       7     H     0.43552  0.43552  0.00000  0.12896
       8     C     3.09567  3.09567  0.00000 -0.19133
       9     H     0.44857  0.44857  0.00000  0.10287
      10     H     0.44545  0.44545  0.00000  0.10910
      11     C     3.08596  3.08596  0.00000 -0.17192
      12     H     0.45650  0.45650  0.00000  0.08700
      13     H     0.44193  0.44193  0.00000  0.11615
      14     C     3.14991  3.14991  0.00000 -0.29981
      15     H     0.45555  0.45555  0.00000  0.08890
      16     H     0.45289  0.45289  0.00000  0.09423
      17     H     0.45616  0.45616  0.00000  0.08768
      18     H     0.44875  0.44875  0.00000  0.10251
      19     H     0.45358  0.45358  0.00000  0.09285
      20     C     3.03574  3.03574  0.00000 -0.07147
      21     H     0.45436  0.45436  0.00000  0.09127
      22     H     0.44521  0.44521  0.00000  0.10958
      23     H     0.45399  0.45399  0.00000  0.09203

   Total alpha = 36.00000, Total beta = 36.00000, Total charge =  0.00000

*** Psi4 exiting successfully. Buy a developer a beer!
