                              Psi4 1.0.54 Driver

  ==> Input File <==

--------------------------------------------------------------------------
set {
	reference rhf
	basis cc-pvtz
}

set_num_threads( 4 )
memory 2 gb

molecule MOL {
0 1

O	 -0.694481	 1.313155	 -0.204815
C	 -0.862519	 0.151932	 -0.046791
C	 -2.171428	 -0.477048	 0.339095
O	 0.085519	 -0.757083	 -0.192238
H	 -2.467997	 -1.191667	 -0.417688
H	 -2.923379	 0.287970	 0.444097
H	 -2.053854	 -1.015120	 1.270901
C	 1.392036	 -0.330828	 -0.560749
C	 2.392726	 -0.567551	 0.551223
H	 1.360471	 0.710653	 -0.840277
H	 1.637164	 -0.921233	 -1.430855
H	 3.385099	 -0.293772	 0.211087
H	 2.154188	 0.030899	 1.419751
H	 2.407015	 -1.612377	 0.837103

	symmetry c1
}
set optking {
	frozen_dihedral = ("
		10 8 4 2
	")
}

ee,wfn = optimize('scf', return_wfn=True)
oeprop( wfn, 'DIPOLE', 'QUADRUPOLE', 'MULLIKEN_CHARGES')
f=open( 'psi4out.xyz', 'w' )
f.write( "14  " )
f.write( str(ee) + "\n" )
f.write( MOL.save_string_xyz() )
f.close()
--------------------------------------------------------------------------

    Molecular point group: c1
  Charge       = 0
  Multiplicity = 1
  Basis Set: CC-PVTZ
  Basis Set:
  @DF-RHF Final Energy:  -305.98989611003634
    Total Energy =                       -305.9898961100365113
    Molecular point group: c1
  Basis Set: CC-PVTZ
  Basis Set:
  Basis Set: CC-PVTZ
  Basis Set:
  @DF-RHF Final Energy:  -305.98992960770948
    Total Energy =                       -305.9899296077098256
  Basis Set: CC-PVTZ
  Basis Set:
  Basis Set: CC-PVTZ
  Basis Set:
  @DF-RHF Final Energy:  -305.99002238817246
    Total Energy =                       -305.9900223881726902
  Basis Set: CC-PVTZ
  Basis Set:
  Basis Set: CC-PVTZ
  Basis Set:
  @DF-RHF Final Energy:  -305.99017358256117
    Total Energy =                       -305.9901735825609990
  Basis Set: CC-PVTZ
  Basis Set:
  Basis Set: CC-PVTZ
  Basis Set:
  @DF-RHF Final Energy:  -305.99026539367810
    Total Energy =                       -305.9902653936781007
  Basis Set: CC-PVTZ
  Basis Set:
  Basis Set: CC-PVTZ
  Basis Set:
  @DF-RHF Final Energy:  -305.99026557080447
    Total Energy =                       -305.9902655708042971
  Basis Set: CC-PVTZ
  Basis Set:
  Charge       = 0
  Multiplicity = 1
  Basis Set: CC-PVTZ
  Basis Set:

    Orbital Energies (a.u.)
    -----------------------

    Doubly Occupied:

       1A    -20.593772     2A    -20.532621     3A    -11.368549
       4A    -11.281876     5A    -11.231298     6A    -11.219851
       7A     -1.469160     8A     -1.366150     9A     -1.057535
      10A     -1.000058    11A     -0.879690    12A     -0.773788
      13A     -0.700344    14A     -0.685820    15A     -0.660927
      16A     -0.613649    17A     -0.583745    18A     -0.568707
      19A     -0.562496    20A     -0.530584    21A     -0.520386
      22A     -0.496278    23A     -0.451897    24A     -0.443309

  @DF-RHF Final Energy:  -305.99026631550635

   => Energetics <=

    Nuclear Repulsion Energy =            247.1710779375813445
    One-Electron Energy =                -907.1377052070940863
    Two-Electron Energy =                 353.9763609540065090
    DFT Exchange-Correlation Energy =       0.0000000000000000
    Empirical Dispersion Energy =           0.0000000000000000
    PCM Polarization Energy =               0.0000000000000000
    EFP Energy =                            0.0000000000000000
    Total Energy =                       -305.9902663155062328
    Molecular point group: c1
  Basis Set: CC-PVTZ
  Basis Set:

  -Total Gradient:
     Atom            X                  Y                   Z
    ------   -----------------  -----------------  -----------------
       1        0.000027096052    -0.000010046308     0.000008543110
       2       -0.000140925104    -0.000103298100    -0.000714741402
       3       -0.000012615225    -0.000010902270    -0.000025666453
       4        0.000229939110     0.000247759337     0.001237387982
       5        0.000001106758    -0.000003032821     0.000010533274
       6       -0.000001139104     0.000002505185     0.000002418999
       7       -0.000000368669     0.000001409282     0.000015153869
       8       -0.000202937969    -0.000390050051    -0.001318902215
       9       -0.000006726384     0.000003922881     0.000006662227
      10        0.000093806894     0.000253389362     0.000783288625
      11        0.000013957179     0.000004892988    -0.000009402458
      12       -0.000001608886     0.000001435210    -0.000003705360
      13        0.000000386799     0.000002632139     0.000008697045
      14        0.000000028547    -0.000000616831    -0.000000267245

  **** Optimization is complete! (in 7 steps) ****
    Final optimized geometry and variables:
    Molecular point group: c1

    Geometry (in Angstrom), charge = 0, multiplicity = 1:

    O           -0.745288065386     1.414589440890    -0.268553397678
    C           -0.890920494894     0.252942092886    -0.095933439888
    C           -2.205407770966    -0.402037791065     0.222572553745
    O            0.083861923174    -0.638749511567    -0.155437328316
    H           -2.438428252590    -1.135916011290    -0.538021506010
    H           -2.980397041976     0.345571309748     0.268459247764
    H           -2.131331967552    -0.922040931774     1.168912913928
    C            1.408827387850    -0.223387823955    -0.466880812763
    C            2.302735234941    -0.402050945168     0.741758393230
    H            1.395138105374     0.803236290207    -0.790955110728
    H            1.733926729936    -0.850473888158    -1.284932202619
    H            3.323136429076    -0.140569239219     0.485595291509
    H            1.981723024614     0.238255705674     1.554174498459
    H            2.288055746852    -1.428956714924     1.085016878752

  Mulliken Charges: (a.u.)
   Center  Symbol    Alpha    Beta     Spin     Total
       1     O     4.19852  4.19852  0.00000 -0.39705
       2     C     2.80012  2.80012  0.00000  0.39975
       3     C     3.14011  3.14011  0.00000 -0.28021
       4     O     4.15835  4.15835  0.00000 -0.31670
       5     H     0.44585  0.44585  0.00000  0.10830
       6     H     0.43830  0.43830  0.00000  0.12340
       7     H     0.44608  0.44608  0.00000  0.10784
       8     C     2.98727  2.98727  0.00000  0.02545
       9     C     3.13874  3.13874  0.00000 -0.27747
      10     H     0.44263  0.44263  0.00000  0.11473
      11     H     0.44942  0.44942  0.00000  0.10115
      12     H     0.45324  0.45324  0.00000  0.09351
      13     H     0.44961  0.44961  0.00000  0.10079
      14     H     0.45176  0.45176  0.00000  0.09649

   Total alpha = 24.00000, Total beta = 24.00000, Total charge = -0.00000

*** Psi4 exiting successfully. Buy a developer a beer!
