                              Psi4 1.0.54 Driver

  ==> Input File <==

--------------------------------------------------------------------------
set {
	reference rhf
	basis cc-pvtz
}

set_num_threads( 4 )
memory 2 gb

molecule MOL {
0 1

H	 2.604402	 -0.489839	 0.547058
O	 2.063695	 -0.083403	 -0.105237
C	 0.742924	 0.005675	 0.350750
H	 0.731380	 0.039219	 1.440080
C	 -0.064076	 -1.193495	 -0.124425
C	 -0.047832	 1.190568	 -0.194462
H	 0.194729	 -1.376165	 -1.161308
H	 0.163013	 -2.094508	 0.429933
C	 -1.533112	 -0.752002	 0.006102
H	 0.148003	 1.266545	 -1.259275
H	 0.226235	 2.136493	 0.259722
C	 -1.506634	 0.799189	 0.067162
H	 -2.124360	 -1.110499	 -0.826089
H	 -1.983103	 -1.158030	 0.903403
H	 -2.183808	 1.252169	 -0.644677
H	 -1.813926	 1.138698	 1.049457

	symmetry c1
}
set optking {
	frozen_dihedral = ("
		1 2 3 6
	")
}

ee,wfn = optimize('scf', return_wfn=True)
oeprop( wfn, 'DIPOLE', 'QUADRUPOLE', 'MULLIKEN_CHARGES')
f=open( 'psi4out.xyz', 'w' )
f.write( "16  " )
f.write( str(ee) + "\n" )
f.write( MOL.save_string_xyz() )
f.close()
--------------------------------------------------------------------------

    Molecular point group: c1
  Charge       = 0
  Multiplicity = 1
  Basis Set: CC-PVTZ
  Basis Set:
  @DF-RHF Final Energy:  -270.11491417741189
    Total Energy =                       -270.1149141774118903
    Molecular point group: c1
  Basis Set: CC-PVTZ
  Basis Set:
  Basis Set: CC-PVTZ
  Basis Set:
  @DF-RHF Final Energy:  -270.11592646540146
    Total Energy =                       -270.1159264654015715
  Basis Set: CC-PVTZ
  Basis Set:
  Basis Set: CC-PVTZ
  Basis Set:
  @DF-RHF Final Energy:  -270.11615824711140
    Total Energy =                       -270.1161582471112865
  Basis Set: CC-PVTZ
  Basis Set:
  Basis Set: CC-PVTZ
  Basis Set:
  @DF-RHF Final Energy:  -270.11616470905108
    Total Energy =                       -270.1161647090509632
  Basis Set: CC-PVTZ
  Basis Set:
  @DF-RHF Final Energy:  -270.11616632746166
    Total Energy =                       -270.1161663274614284
  Basis Set: CC-PVTZ
  Basis Set:
  @DF-RHF Final Energy:  -270.11617078691768
    Total Energy =                       -270.1161707869176212
  Basis Set: CC-PVTZ
  Basis Set:
  Basis Set: CC-PVTZ
  Basis Set:
  @DF-RHF Final Energy:  -270.11617631562717
    Total Energy =                       -270.1161763156270581
  Basis Set: CC-PVTZ
  Basis Set:
  Basis Set: CC-PVTZ
  Basis Set:
  @DF-RHF Final Energy:  -270.11617999114031
    Total Energy =                       -270.1161799911402568
  Basis Set: CC-PVTZ
  Basis Set:
  Charge       = 0
  Multiplicity = 1
  Basis Set: CC-PVTZ
  Basis Set:

    Orbital Energies (a.u.)
    -----------------------

    Doubly Occupied:

       1A    -20.545517     2A    -11.267843     3A    -11.213296
       4A    -11.212486     5A    -11.207118     6A    -11.206355
       7A     -1.365237     8A     -1.113793     9A     -0.965077
      10A     -0.949151    11A     -0.783183    12A     -0.779031
      13A     -0.714385    14A     -0.654812    15A     -0.621912
      16A     -0.582069    17A     -0.557865    18A     -0.526558
      19A     -0.518837    20A     -0.479942    21A     -0.469736
      22A     -0.454722    23A     -0.453454    24A     -0.415862

  @DF-RHF Final Energy:  -270.11618047325453

   => Energetics <=

    Nuclear Repulsion Energy =            255.3778002308544899
    One-Electron Energy =                -872.8714819834084437
    Two-Electron Energy =                 347.3775012792995085
    DFT Exchange-Correlation Energy =       0.0000000000000000
    Empirical Dispersion Energy =           0.0000000000000000
    PCM Polarization Energy =               0.0000000000000000
    EFP Energy =                            0.0000000000000000
    Total Energy =                       -270.1161804732544169
    Molecular point group: c1
  Basis Set: CC-PVTZ
  Basis Set:

  -Total Gradient:
     Atom            X                  Y                   Z
    ------   -----------------  -----------------  -----------------
       1        0.000284971900     0.001280628645     0.000507209397
       2       -0.000251601890    -0.001372984441    -0.000371501156
       3       -0.000325285132    -0.000407536297    -0.000779763750
       4        0.000002905965    -0.000000658264     0.000006103653
       5       -0.000002518498     0.000004163170    -0.000010410575
       6        0.000284412834     0.000505186879     0.000645456280
       7        0.000003956564    -0.000021081855    -0.000001019472
       8       -0.000000324257     0.000012736012     0.000014248539
       9        0.000003725830    -0.000000177148     0.000012861446
      10       -0.000002782603    -0.000007420876    -0.000004484495
      11       -0.000000838677     0.000003385775    -0.000012550330
      12        0.000007051729    -0.000002269903    -0.000009615152
      13        0.000020065579     0.000008289715    -0.000017474485
      14       -0.000026785663    -0.000012566128    -0.000008227669
      15       -0.000014646798     0.000017524411     0.000018503483
      16        0.000017693123    -0.000007219694     0.000010664286

  **** Optimization is complete! (in 9 steps) ****
    Final optimized geometry and variables:
    Molecular point group: c1

    Geometry (in Angstrom), charge = 0, multiplicity = 1:

    H            2.636019114423    -0.480835392801     0.438033261007
    O            2.057074031259    -0.101536465048    -0.195609815876
    C            0.755324573437    -0.014643243033     0.318093170754
    H            0.794211796837     0.101999226278     1.400171065011
    C           -0.134950099542    -1.203336623493    -0.032847515262
    C            0.006559578966     1.166773361421    -0.279285528566
    H            0.052609765695    -1.461643286843    -1.069265214768
    H            0.074251699071    -2.082900251876     0.564647279405
    C           -1.567335084734    -0.676109318130     0.151054550939
    H            0.185550172406     1.168782562582    -1.349459687349
    H            0.345516131657     2.118119973581     0.109805523055
    C           -1.466203039344     0.869800855354     0.030845032714
    H           -2.240728151798    -1.096321257241    -0.584161438251
    H           -1.958083022852    -0.952824791664     1.122674732597
    H           -2.126052470132     1.264673767984    -0.730117835845
    H           -1.755530307762     1.335861966074     0.965328653191

  Mulliken Charges: (a.u.)
   Center  Symbol    Alpha    Beta     Spin     Total
       1     H     0.39387  0.39387  0.00000  0.21226
       2     O     4.20182  4.20182  0.00000 -0.40364
       3     C     2.92173  2.92173  0.00000  0.15654
       4     H     0.46913  0.46913  0.00000  0.06173
       5     C     3.10040  3.10040  0.00000 -0.20081
       6     C     3.09719  3.09719  0.00000 -0.19438
       7     H     0.45305  0.45305  0.00000  0.09389
       8     H     0.44988  0.44988  0.00000  0.10024
       9     C     3.11375  3.11375  0.00000 -0.22749
      10     H     0.45249  0.45249  0.00000  0.09502
      11     H     0.44607  0.44607  0.00000  0.10786
      12     C     3.11170  3.11170  0.00000 -0.22341
      13     H     0.44471  0.44471  0.00000  0.11058
      14     H     0.44945  0.44945  0.00000  0.10111
      15     H     0.44423  0.44423  0.00000  0.11153
      16     H     0.45052  0.45052  0.00000  0.09897

   Total alpha = 24.00000, Total beta = 24.00000, Total charge = -0.00000

*** Psi4 exiting successfully. Buy a developer a beer!
