                              Psi4 1.0.54 Driver

  ==> Input File <==

--------------------------------------------------------------------------
set {
	reference rhf
	basis cc-pvtz
}

set_num_threads( 4 )
memory 2 gb

molecule MOL {
0 1

O	 2.498113	 1.926240	 -0.422175
C	 1.703554	 1.926139	 -1.304664
C	 0.443713	 1.085480	 -1.260787
C	 1.899590	 2.773482	 -2.541516
C	 0.288398	 0.247429	 0.000314
H	 -0.402667	 1.757499	 -1.383669
H	 0.440669	 0.453752	 -2.146178
C	 -0.993089	 -0.581367	 -0.000217
H	 0.304451	 0.900538	 0.865360
H	 1.148647	 -0.404278	 0.102216
C	 -2.258482	 0.271340	 0.000669
H	 -1.002280	 -1.233920	 -0.870484
H	 -1.002061	 -1.235367	 0.868958
C	 -3.544441	 -0.550271	 -0.000253
H	 -2.250545	 0.925250	 -0.867923
H	 -2.250598	 0.923423	 0.870642
C	 -4.804551	 0.308747	 0.000556
H	 -3.553737	 -1.201524	 -0.870151
H	 -3.553831	 -1.203282	 0.868313
H	 -4.842050	 0.949078	 -0.874436
H	 -5.698404	 -0.304480	 -0.000254
H	 -4.842277	 0.947103	 0.876982
H	 1.069854	 3.461843	 -2.658758
H	 2.822665	 3.326896	 -2.463687
H	 1.924051	 2.145158	 -3.425061

	symmetry c1
}
set optking {
	frozen_dihedral = ("
		9 5 8 12
	")
}

ee,wfn = optimize('scf', return_wfn=True)
oeprop( wfn, 'DIPOLE', 'QUADRUPOLE', 'MULLIKEN_CHARGES')
f=open( 'psi4out.xyz', 'w' )
f.write( "25  " )
f.write( str(ee) + "\n" )
f.write( MOL.save_string_xyz() )
f.close()
--------------------------------------------------------------------------

    Molecular point group: c1
  Charge       = 0
  Multiplicity = 1
  Basis Set: CC-PVTZ
  Basis Set:
  @DF-RHF Final Energy:  -387.27203336742576
    Total Energy =                       -387.2720333674258200
    Molecular point group: c1
  Basis Set: CC-PVTZ
  Basis Set:
  Basis Set: CC-PVTZ
  Basis Set:
  @DF-RHF Final Energy:  -387.27215444001644
    Total Energy =                       -387.2721544400160383
  Basis Set: CC-PVTZ
  Basis Set:
  Basis Set: CC-PVTZ
  Basis Set:
  @DF-RHF Final Energy:  -387.27286200370480
    Total Energy =                       -387.2728620037049723
  Basis Set: CC-PVTZ
  Basis Set:
  Basis Set: CC-PVTZ
  Basis Set:
  @DF-RHF Final Energy:  -387.27255742652858
    Total Energy =                       -387.2725574265290334
  Basis Set: CC-PVTZ
  Basis Set:
  Basis Set: CC-PVTZ
  Basis Set:
  @DF-RHF Final Energy:  -387.27289714875650
    Total Energy =                       -387.2728971487570107
  Basis Set: CC-PVTZ
  Basis Set:
  Basis Set: CC-PVTZ
  Basis Set:
  @DF-RHF Final Energy:  -387.27290838597077
    Total Energy =                       -387.2729083859710499
  Basis Set: CC-PVTZ
  Basis Set:
  Charge       = 0
  Multiplicity = 1
  Basis Set: CC-PVTZ
  Basis Set:

    Orbital Energies (a.u.)
    -----------------------

    Doubly Occupied:

       1A    -20.538762     2A    -11.320428     3A    -11.229634
       4A    -11.226509     5A    -11.215506     6A    -11.215366
       7A    -11.214883     8A    -11.214036     9A    -11.208609
      10A     -1.398861    11A     -1.096039    12A     -1.057202
      13A     -1.015639    14A     -0.969109    15A     -0.898481
      16A     -0.816552    17A     -0.788406    18A     -0.732159
      19A     -0.660635    20A     -0.651129    21A     -0.639496
      22A     -0.623474    23A     -0.598650    24A     -0.580274
      25A     -0.568561    26A     -0.567753    27A     -0.543760
      28A     -0.529055    29A     -0.517212    30A     -0.495599
      31A     -0.489572    32A     -0.477803    33A     -0.463802
      34A     -0.459766    35A     -0.448159    36A     -0.402713

  @DF-RHF Final Energy:  -387.27290874431037

   => Energetics <=

    Nuclear Repulsion Energy =            445.1412022820062475
    One-Electron Energy =               -1407.0810400222112548
    Two-Electron Energy =                 574.6669289958945228
    DFT Exchange-Correlation Energy =       0.0000000000000000
    Empirical Dispersion Energy =           0.0000000000000000
    PCM Polarization Energy =               0.0000000000000000
    EFP Energy =                            0.0000000000000000
    Total Energy =                       -387.2729087443104845
    Molecular point group: c1
  Basis Set: CC-PVTZ
  Basis Set:

  -Total Gradient:
     Atom            X                  Y                   Z
    ------   -----------------  -----------------  -----------------
       1       -0.000006608025    -0.000029259153     0.000015485273
       2       -0.000007517679     0.000031463681     0.000004789853
       3        0.000028731700     0.000012405948    -0.000018699808
       4       -0.000030903695    -0.000021840863    -0.000011325972
       5       -0.000041529510     0.000099629174    -0.000004271232
       6        0.000015017624    -0.000003927350     0.000000877385
       7        0.000007775007     0.000000823044    -0.000005318448
       8       -0.000027801515     0.000006245647    -0.000123783148
       9        0.000040636932    -0.000039717317     0.000029636648
      10       -0.000008723522    -0.000003223461     0.000002879665
      11       -0.000035183897     0.000022644859     0.000057870070
      12        0.000030240508    -0.000068141936     0.000032934340
      13       -0.000003963860     0.000017474258    -0.000010676509
      14        0.000011584491    -0.000012554264    -0.000006771342
      15       -0.000012277973    -0.000019732786     0.000018074274
      16       -0.000009043764     0.000006223948     0.000011281205
      17        0.000030966734     0.000022922716    -0.000011418319
      18        0.000007222169    -0.000016652063    -0.000003033779
      19        0.000001634431     0.000019216222     0.000011708976
      20        0.000002457476     0.000003851192    -0.000000375983
      21        0.000021147586    -0.000009026204    -0.000012616224
      22       -0.000005828592    -0.000000373656     0.000010530603
      23        0.000000831409    -0.000004775780     0.000000213265
      24       -0.000005559657    -0.000015606171     0.000021040567
      25       -0.000003304387     0.000001930316    -0.000009031362

  **** Optimization is complete! (in 7 steps) ****
    Final optimized geometry and variables:
    Molecular point group: c1

    Geometry (in Angstrom), charge = 0, multiplicity = 1:

    O            3.096572678464     1.012732915583     0.217364499319
    C            2.318502234193     1.078784777282    -0.677126643372
    C            0.999930455311     0.331534589145    -0.664013777125
    C            2.594872568244     1.923287799387    -1.900700889205
    C            0.777166785009    -0.516993489069     0.581737158684
    H            0.213235663019     1.069435896934    -0.789748647897
    H            0.964875438569    -0.285362599188    -1.559532752431
    C           -0.506791424355    -1.347669355378     0.551364717374
    H            0.778761998460     0.124922203879     1.455718342475
    H            1.624835642047    -1.180563088813     0.700629844345
    C           -1.802959183839    -0.539694973352     0.581260244328
    H           -0.502657002501    -1.989342721451    -0.327188948002
    H           -0.495906901366    -2.014165425191     1.408770259336
    C           -3.051222624235    -1.414869513399     0.657940570556
    H           -1.872698132822     0.090137868581    -0.301086977348
    H           -1.785073129728     0.133071477120     1.435814728059
    C           -4.347082673012    -0.611252833652     0.678930462652
    H           -3.063951745884    -2.096332849378    -0.188467291662
    H           -2.998687821645    -2.036332096915     1.547474840139
    H           -4.446955781336    -0.005163947646    -0.215535605819
    H           -5.212024202680    -1.262146756536     0.734542928928
    H           -4.380063658268     0.055921866680     1.533881195257
    H            1.818920824175     2.671045513193    -2.022163886602
    H            3.554005262946     2.407831577195    -1.802028618882
    H            2.588382104026     1.304515676346    -2.791273091119

  Mulliken Charges: (a.u.)
   Center  Symbol    Alpha    Beta     Spin     Total
       1     O     4.17066  4.17066  0.00000 -0.34132
       2     C     2.86077  2.86077  0.00000  0.27846
       3     C     3.11346  3.11346  0.00000 -0.22692
       4     C     3.15073  3.15073  0.00000 -0.30145
       5     C     3.09301  3.09301  0.00000 -0.18603
       6     H     0.44439  0.44439  0.00000  0.11123
       7     H     0.44551  0.44551  0.00000  0.10898
       8     C     3.10109  3.10109  0.00000 -0.20218
       9     H     0.44576  0.44576  0.00000  0.10849
      10     H     0.43989  0.43989  0.00000  0.12023
      11     C     3.08916  3.08916  0.00000 -0.17832
      12     H     0.45430  0.45430  0.00000  0.09141
      13     H     0.44586  0.44586  0.00000  0.10827
      14     C     3.08404  3.08404  0.00000 -0.16809
      15     H     0.45588  0.45588  0.00000  0.08823
      16     H     0.45320  0.45320  0.00000  0.09360
      17     C     3.14969  3.14969  0.00000 -0.29939
      18     H     0.45468  0.45468  0.00000  0.09064
      19     H     0.45294  0.45294  0.00000  0.09412
      20     H     0.45608  0.45608  0.00000  0.08784
      21     H     0.44796  0.44796  0.00000  0.10408
      22     H     0.45464  0.45464  0.00000  0.09071
      23     H     0.45059  0.45059  0.00000  0.09882
      24     H     0.43526  0.43526  0.00000  0.12948
      25     H     0.45044  0.45044  0.00000  0.09911

   Total alpha = 36.00000, Total beta = 36.00000, Total charge = -0.00000

*** Psi4 exiting successfully. Buy a developer a beer!
