                              Psi4 1.0.54 Driver

  ==> Input File <==

--------------------------------------------------------------------------
set {
	reference rhf
	basis cc-pvtz
}

set_num_threads( 4 )
memory 2 gb

molecule MOL {
0 1

H	 -2.430191	 2.238007	 1.143024
O	 -1.749330	 1.647162	 0.879347
C	 -2.302264	 0.528872	 0.237390
C	 -1.175688	 -0.398187	 -0.171891
H	 -2.987478	 0.008010	 0.902941
H	 -2.867606	 0.834748	 -0.640481
C	 0.196029	 0.106276	 0.266738
H	 -1.201873	 -0.515469	 -1.250677
H	 -1.365975	 -1.378728	 0.252664
C	 1.330220	 -0.826136	 -0.155230
H	 0.359542	 1.097229	 -0.145561
H	 0.212134	 0.218135	 1.348778
C	 2.719700	 -0.407669	 0.328325
H	 1.339388	 -0.911200	 -1.239363
H	 1.119001	 -1.821953	 0.224128
C	 3.241564	 0.893452	 -0.276737
H	 3.418299	 -1.204729	 0.093035
H	 2.711776	 -0.323368	 1.411960
H	 3.254204	 0.841071	 -1.360784
H	 2.634460	 1.745075	 0.005842
H	 4.254264	 1.092401	 0.054971

	symmetry c1
}
set optking {
	frozen_dihedral = ("
		2 3 4 8
	")
}

ee,wfn = optimize('scf', return_wfn=True)
oeprop( wfn, 'DIPOLE', 'QUADRUPOLE', 'MULLIKEN_CHARGES')
f=open( 'psi4out.xyz', 'w' )
f.write( "21  " )
f.write( str(ee) + "\n" )
f.write( MOL.save_string_xyz() )
f.close()
--------------------------------------------------------------------------

    Molecular point group: c1
  Charge       = 0
  Multiplicity = 1
  Basis Set: CC-PVTZ
  Basis Set:
  @DF-RHF Final Energy:  -310.32219816165326
    Total Energy =                       -310.3221981616529774
    Molecular point group: c1
  Basis Set: CC-PVTZ
  Basis Set:
  Basis Set: CC-PVTZ
  Basis Set:
  @DF-RHF Final Energy:  -310.32248802493200
    Total Energy =                       -310.3224880249323405
  Basis Set: CC-PVTZ
  Basis Set:
  Basis Set: CC-PVTZ
  Basis Set:
  @DF-RHF Final Energy:  -310.32421875390264
    Total Energy =                       -310.3242187539026418
  Basis Set: CC-PVTZ
  Basis Set:
  Basis Set: CC-PVTZ
  Basis Set:
  @DF-RHF Final Energy:  -310.32430513435332
    Total Energy =                       -310.3243051343532670
  Basis Set: CC-PVTZ
  Basis Set:
  Basis Set: CC-PVTZ
  Basis Set:
  @DF-RHF Final Energy:  -310.32430911664920
    Total Energy =                       -310.3243091166492604
  Basis Set: CC-PVTZ
  Basis Set:
  Charge       = 0
  Multiplicity = 1
  Basis Set: CC-PVTZ
  Basis Set:

    Orbital Energies (a.u.)
    -----------------------

    Doubly Occupied:

       1A    -20.545827     2A    -11.266746     3A    -11.211017
       4A    -11.207392     5A    -11.204924     6A    -11.201392
       7A    -11.200171     8A     -1.363733     9A     -1.079165
      10A     -1.026422    11A     -0.951861    12A     -0.876367
      13A     -0.800394    14A     -0.772402    15A     -0.697673
      16A     -0.657246    17A     -0.617693    18A     -0.603789
      19A     -0.585799    20A     -0.563633    21A     -0.533591
      22A     -0.521712    23A     -0.494845    24A     -0.494533
      25A     -0.483378    26A     -0.457413    27A     -0.448891
      28A     -0.436675    29A     -0.424461

  @DF-RHF Final Energy:  -310.32430925045429

   => Energetics <=

    Nuclear Repulsion Energy =            318.4683792658163952
    One-Electron Energy =               -1052.1270967625662252
    Two-Electron Energy =                 423.3344082462959364
    DFT Exchange-Correlation Energy =       0.0000000000000000
    Empirical Dispersion Energy =           0.0000000000000000
    PCM Polarization Energy =               0.0000000000000000
    EFP Energy =                            0.0000000000000000
    Total Energy =                       -310.3243092504539504
    Molecular point group: c1
  Basis Set: CC-PVTZ
  Basis Set:

  -Total Gradient:
     Atom            X                  Y                   Z
    ------   -----------------  -----------------  -----------------
       1        0.000002652725    -0.000022173298    -0.000011503619
       2       -0.000022894451    -0.000340846173     0.000643578318
       3       -0.000086320339     0.000328288762    -0.000844081568
       4        0.000669747837     0.000837464612     0.000100326886
       5        0.000006241807    -0.000013000474    -0.000008052914
       6       -0.000003957744    -0.000012404894    -0.000005533213
       7       -0.000016978316    -0.000050278878     0.000090484507
       8       -0.000562257119    -0.000760309523     0.000087517040
       9       -0.000002869961     0.000009429557     0.000008042261
      10        0.000020055359     0.000011753389    -0.000034741064
      11       -0.000002371971     0.000010830325    -0.000000792994
      12       -0.000000909602    -0.000001579771    -0.000010060872
      13       -0.000005401284     0.000007466167    -0.000009909863
      14        0.000003976853    -0.000013281504    -0.000009788650
      15        0.000003982997     0.000012124439     0.000006087686
      16        0.000004613390    -0.000002901626    -0.000000946347
      17        0.000000442688    -0.000000675545     0.000000060931
      18       -0.000006552756     0.000000942559    -0.000001254253
      19       -0.000002575076     0.000001075463    -0.000000630955
      20       -0.000000645916    -0.000001369015     0.000003254785
      21        0.000002020878    -0.000000554570    -0.000002056101

  **** Optimization is complete! (in 6 steps) ****
    Final optimized geometry and variables:
    Molecular point group: c1

    Geometry (in Angstrom), charge = 0, multiplicity = 1:

    H           -2.874947326746     1.979312165610     0.983094326317
    O           -2.143491191498     1.440796110593     0.744564921885
    C           -2.603647564219     0.283801037437     0.093245346637
    C           -1.426663264248    -0.622353000819    -0.320270172250
    H           -3.270029390669    -0.264030587918     0.753057658857
    H           -3.178461937639     0.560353915057    -0.785557870164
    C           -0.040241186527    -0.142197078564     0.107163638250
    H           -1.438983250103    -0.745753824316    -1.398290127259
    H           -1.592482221405    -1.613028761280     0.090385934805
    C            1.056312923345    -1.105085388442    -0.344638622048
    H            0.136434943933     0.845544608394    -0.296948326549
    H           -0.007592507560    -0.037470122337     1.186144973989
    C            2.465660712220    -0.726118267928     0.114136220846
    H            1.044848232447    -1.184352474412    -1.429819259376
    H            0.828945728265    -2.098837674709     0.032617418158
    C            3.008698871143     0.564676564681    -0.494185529112
    H            3.139526790887    -1.539506735332    -0.138016817759
    H            2.479557432381    -0.646623781606     1.197928525725
    H            2.999540465466     0.517603523140    -1.578643365438
    H            2.427751503516     1.428652104485    -0.195857855012
    H            4.032419003445     0.736175396452    -0.180979184912

  Mulliken Charges: (a.u.)
   Center  Symbol    Alpha    Beta     Spin     Total
       1     H     0.40085  0.40085  0.00000  0.19829
       2     O     4.18781  4.18781  0.00000 -0.37561
       3     C     2.96559  2.96559  0.00000  0.06882
       4     C     3.10926  3.10926  0.00000 -0.21852
       5     H     0.47194  0.47194  0.00000  0.05611
       6     H     0.47143  0.47143  0.00000  0.05714
       7     C     3.08435  3.08435  0.00000 -0.16870
       8     H     0.45337  0.45337  0.00000  0.09327
       9     H     0.45335  0.45335  0.00000  0.09329
      10     C     3.09593  3.09593  0.00000 -0.19186
      11     H     0.44578  0.44578  0.00000  0.10843
      12     H     0.44927  0.44927  0.00000  0.10147
      13     C     3.08940  3.08940  0.00000 -0.17881
      14     H     0.45639  0.45639  0.00000  0.08723
      15     H     0.45195  0.45195  0.00000  0.09611
      16     C     3.15265  3.15265  0.00000 -0.30530
      17     H     0.45005  0.45005  0.00000  0.09990
      18     H     0.45511  0.45511  0.00000  0.08979
      19     H     0.45615  0.45615  0.00000  0.08770
      20     H     0.45165  0.45165  0.00000  0.09671
      21     H     0.44773  0.44773  0.00000  0.10454

   Total alpha = 29.00000, Total beta = 29.00000, Total charge = -0.00000

*** Psi4 exiting successfully. Buy a developer a beer!
