                              Psi4 1.0.54 Driver

  ==> Input File <==

--------------------------------------------------------------------------
set {
	reference rhf
	basis cc-pvtz
}

set_num_threads( 4 )
memory 2 gb

molecule MOL {
0 1

H	 -3.275614	 0.123037	 0.360947
C	 -2.753210	 -0.056632	 -0.575908
O	 -1.401606	 -0.295183	 -0.366624
H	 -3.174697	 -0.932936	 -1.046364
H	 -2.911906	 0.800461	 -1.227900
C	 -0.718530	 0.758693	 0.228682
C	 0.718529	 0.758687	 -0.228709
H	 -1.176498	 1.708665	 -0.046615
H	 -0.748705	 0.673525	 1.312779
O	 1.401606	 -0.295166	 0.366636
H	 0.748705	 0.673477	 -1.312803
H	 1.176496	 1.708671	 0.046552
C	 2.714315	 -0.441627	 -0.061017
H	 2.765292	 -0.641548	 -1.128869
H	 3.305661	 0.447341	 0.150952
H	 3.143725	 -1.278506	 0.470147

	symmetry c1
}
set optking {
	frozen_dihedral = ("
		2 3 6 7
	")
}

ee,wfn = optimize('scf', return_wfn=True)
oeprop( wfn, 'DIPOLE', 'QUADRUPOLE', 'MULLIKEN_CHARGES')
f=open( 'psi4out.xyz', 'w' )
f.write( "16  " )
f.write( str(ee) + "\n" )
f.write( MOL.save_string_xyz() )
f.close()
--------------------------------------------------------------------------

    Molecular point group: c1
  Charge       = 0
  Multiplicity = 1
  Basis Set: CC-PVTZ
  Basis Set:
  @DF-RHF Final Energy:  -307.09558959799830
    Total Energy =                       -307.0955895979981278
    Molecular point group: c1
  Basis Set: CC-PVTZ
  Basis Set:
  Basis Set: CC-PVTZ
  Basis Set:
  @DF-RHF Final Energy:  -307.09570811772073
    Total Energy =                       -307.0957081177206192
  Basis Set: CC-PVTZ
  Basis Set:
  Basis Set: CC-PVTZ
  Basis Set:
  @DF-RHF Final Energy:  -307.09573307068609
    Total Energy =                       -307.0957330706857533
  Basis Set: CC-PVTZ
  Basis Set:
  Charge       = 0
  Multiplicity = 1
  Basis Set: CC-PVTZ
  Basis Set:

    Orbital Energies (a.u.)
    -----------------------

    Doubly Occupied:

       1A    -20.547461     2A    -20.546634     3A    -11.267718
       4A    -11.267027     5A    -11.262963     6A    -11.261337
       7A     -1.390604     8A     -1.373603     9A     -1.031830
      10A     -0.937531    11A     -0.894382    12A     -0.822964
      13A     -0.687998    14A     -0.679803    15A     -0.659379
      16A     -0.640371    17A     -0.628540    18A     -0.600180
      19A     -0.557145    20A     -0.531298    21A     -0.508928
      22A     -0.477135    23A     -0.470623    24A     -0.421196
      25A     -0.411958

  @DF-RHF Final Energy:  -307.09573373503576

   => Energetics <=

    Nuclear Repulsion Energy =            258.4569534424076664
    One-Electron Energy =                -931.3481574757231556
    Two-Electron Energy =                 365.7954702982797244
    DFT Exchange-Correlation Energy =       0.0000000000000000
    Empirical Dispersion Energy =           0.0000000000000000
    PCM Polarization Energy =               0.0000000000000000
    EFP Energy =                            0.0000000000000000
    Total Energy =                       -307.0957337350357648
    Molecular point group: c1
  Basis Set: CC-PVTZ
  Basis Set:

  -Total Gradient:
     Atom            X                  Y                   Z
    ------   -----------------  -----------------  -----------------
       1        0.000028212392     0.000002574401    -0.000001672986
       2        0.000489150377     0.000851853415    -0.002316538487
       3       -0.000966282500    -0.000778114780     0.002597051586
       4       -0.000029802667    -0.000007271899    -0.000001835482
       5        0.000023230964     0.000002933979     0.000022127526
       6        0.000975604462    -0.001360874558     0.001443189873
       7       -0.000551550793     0.001399540807    -0.001749201502
       8        0.000001392064    -0.000012173791    -0.000012075118
       9        0.000016676495    -0.000007810022    -0.000027398311
      10        0.000024972194    -0.000076594871     0.000030471307
      11       -0.000005454808    -0.000025232641     0.000030604132
      12        0.000010912872    -0.000011471775     0.000002327465
      13       -0.000015080041     0.000024160520    -0.000025290207
      14        0.000004547374    -0.000003638237    -0.000001452268
      15        0.000007040393     0.000001091550     0.000002508615
      16       -0.000013568777     0.000001027900     0.000007183857

  **** Optimization is complete! (in 4 steps) ****
    Final optimized geometry and variables:
    Molecular point group: c1

    Geometry (in Angstrom), charge = 0, multiplicity = 1:

    H           -3.282239225971     0.076074772818     0.480098508953
    C           -2.753910547316    -0.128918651111    -0.448828999292
    O           -1.400944836576    -0.356907951351    -0.233771723817
    H           -3.171581475070    -1.021245353384    -0.892051998498
    H           -2.913987210554     0.706802332892    -1.126559334778
    C           -0.705041468188     0.704435077643     0.340144230218
    C            0.733568881757     0.696708381381    -0.115508370137
    H           -1.144481863243     1.653021453821     0.036430071352
    H           -0.749547154493     0.646671299776     1.424493509816
    O            1.408070220186    -0.373207272813     0.459933016842
    H            0.762763196975     0.630258541578    -1.201015967311
    H            1.200325880600     1.637641317428     0.177490904270
    C            2.721200255785    -0.519359248766     0.033900689935
    H            2.774855867971    -0.696789908121    -1.037868934960
    H            3.317588998188     0.361020847662     0.266866377495
    H            3.143022788244    -1.370238100054     0.548552615481

  Mulliken Charges: (a.u.)
   Center  Symbol    Alpha    Beta     Spin     Total
       1     H     0.47111  0.47111  0.00000  0.05777
       2     C     3.03096  3.03096  0.00000 -0.06192
       3     O     4.17178  4.17178  0.00000 -0.34356
       4     H     0.44759  0.44759  0.00000  0.10483
       5     H     0.47284  0.47284  0.00000  0.05433
       6     C     2.96174  2.96174  0.00000  0.07652
       7     C     2.95957  2.95957  0.00000  0.08087
       8     H     0.47849  0.47849  0.00000  0.04301
       9     H     0.46374  0.46374  0.00000  0.07251
      10     O     4.16932  4.16932  0.00000 -0.33864
      11     H     0.47274  0.47274  0.00000  0.05452
      12     H     0.47756  0.47756  0.00000  0.04489
      13     C     3.03194  3.03194  0.00000 -0.06388
      14     H     0.47066  0.47066  0.00000  0.05868
      15     H     0.47383  0.47383  0.00000  0.05234
      16     H     0.44613  0.44613  0.00000  0.10773

   Total alpha = 25.00000, Total beta = 25.00000, Total charge = -0.00000

*** Psi4 exiting successfully. Buy a developer a beer!
