  ==> Input File <==

--------------------------------------------------------------------------
set {
	reference rhf
	basis 6-31G*
}

set_num_threads( 4 )
memory 2 gb

molecule MOL {
0 1

H	 -0.821032	 -1.655889	 0.000000
O	 -1.037828	 -0.728600	 0.000000
C	 0.100509	 -0.036935	 0.000000
C	 1.258505	 -0.866162	 -0.476793
O	 0.154418	 1.098283	 0.342924
H	 1.373515	 -1.733523	 0.162873
H	 2.159377	 -0.271715	 -0.462153
H	 1.062699	 -1.221985	 -1.481664

	symmetry c1
}
set optking {
	frozen_dihedral = ("
		4 3 2 1
	")
}

ee = optimize('scf')
oeprop('DIPOLE', 'QUADRUPOLE', 'MULLIKEN_CHARGES')
f=open( 'psi4out.xyz', 'w' )
f.write( "8  " )
f.write( str(ee) + "\n" )
f.write( MOL.save_string_xyz() )
f.close()
--------------------------------------------------------------------------

    Molecular point group: c1
  Charge       = 0
  Multiplicity = 1
  Basis Set: 6-31G*
  Basis Set:
  @DF-RHF Final Energy:  -227.79581614648478
    Total Energy =                       -227.7958161464848388
    Molecular point group: c1
  Basis Set: 6-31G*
  Basis Set:
  Basis Set: 6-31G*
  Basis Set:
  @DF-RHF Final Energy:  -227.79605306429556
    Total Energy =                       -227.7960530642956769
  Basis Set: 6-31G*
  Basis Set:
  Basis Set: 6-31G*
  Basis Set:
  @DF-RHF Final Energy:  -227.79588467723548
    Total Energy =                       -227.7958846772353922
  Basis Set: 6-31G*
  Basis Set:
  Basis Set: 6-31G*
  Basis Set:
  @DF-RHF Final Energy:  -227.79765622730883
    Total Energy =                       -227.7976562273088916
  Basis Set: 6-31G*
  Basis Set:
  Basis Set: 6-31G*
  Basis Set:
  @DF-RHF Final Energy:  -227.79767300708946
    Total Energy =                       -227.7976730070894291
  Basis Set: 6-31G*
  Basis Set:
  Basis Set: 6-31G*
  Basis Set:
  @DF-RHF Final Energy:  -227.79767709235435
    Total Energy =                       -227.7976770923544336
  Basis Set: 6-31G*
  Basis Set:
  Basis Set: 6-31G*
  Basis Set:
  @DF-RHF Final Energy:  -227.79768061421322
    Total Energy =                       -227.7976806142131920
  Basis Set: 6-31G*
  Basis Set:
  Charge       = 0
  Multiplicity = 1
  Basis Set: 6-31G*
  Basis Set:

    Orbital Energies (a.u.)
    -----------------------

    Doubly Occupied:

       1A    -20.614305     2A    -20.550303     3A    -11.385622
       4A    -11.252087     5A     -1.470239     6A     -1.372635
       7A     -1.027314     8A     -0.839775     9A     -0.720576
      10A     -0.667936    11A     -0.656233    12A     -0.602137
      13A     -0.573752    14A     -0.550517    15A     -0.478082
      16A     -0.446149

  @DF-RHF Final Energy:  -227.79768125113935

   => Energetics <=

    Nuclear Repulsion Energy =            122.1857467010592018
    One-Electron Energy =                -553.5515331223045905
    Two-Electron Energy =                 203.5681051701060937
    DFT Exchange-Correlation Energy =       0.0000000000000000
    Empirical Dispersion Energy =           0.0000000000000000
    PCM Polarization Energy =               0.0000000000000000
    EFP Energy =                            0.0000000000000000
    Total Energy =                       -227.7976812511392950
    Molecular point group: c1
  Basis Set: 6-31G*
  Basis Set:

  -Total Gradient:
     Atom            X                  Y                   Z
    ------   -----------------  -----------------  -----------------
       1        0.000079457647     0.000024436423     0.003870146985
       2       -0.000267564875     0.000303283885    -0.005943556671
       3        0.000643649393    -0.000962537634     0.004193843005
       4       -0.000465737978     0.000692732145    -0.002248604346
       5        0.000023588433    -0.000065820765     0.000117285328
       6        0.000004582526     0.000003083187     0.000008601608
       7       -0.000008107176     0.000009592060     0.000001362324
       8       -0.000009867970    -0.000004769301     0.000000921765

  **** Optimization is complete! (in 8 steps) ****
    Final optimized geometry and variables:
    Molecular point group: c1

    Geometry (in Angstrom), charge = 0, multiplicity = 1:

    H           -1.040204695814    -1.489762116001     0.072833817213
    O           -1.161111929576    -0.549750408114     0.068868706317
    C            0.005299775626     0.109005158480     0.045019314810
    C            1.188638431070    -0.696877956233    -0.437507602197
    O            0.052032790125     1.254128019393     0.327135705426
    H            1.332449565793    -1.585373900378     0.170606688348
    H            2.078565730521    -0.088095840408    -0.394902509210
    H            1.015062495443    -1.016051297798    -1.460124585753

  Mulliken Charges: (a.u.)
   Center  Symbol    Alpha    Beta     Spin     Total
       1     H     0.26927  0.26927  0.00000  0.46145
       2     O     4.34600  4.34600  0.00000 -0.69200
       3     C     2.62556  2.62556  0.00000  0.74888
       4     C     3.30848  3.30848  0.00000 -0.61695
       5     O     4.25760  4.25760  0.00000 -0.51521
       6     H     0.40816  0.40816  0.00000  0.18368
       7     H     0.38713  0.38713  0.00000  0.22573
       8     H     0.39779  0.39779  0.00000  0.20441

   Total alpha = 16.00000, Total beta = 16.00000, Total charge =  0.00000
