                              Psi4 1.0.54 Driver

  ==> Input File <==

--------------------------------------------------------------------------
set {
	reference rhf
	basis cc-pvtz
}

set_num_threads( 4 )
memory 2 gb

molecule MOL {
0 1

H	 3.060305	 -0.033366	 -0.783663
N	 2.433987	 -0.362316	 -0.080024
C	 1.263552	 0.494993	 0.021953
H	 2.940113	 -0.378285	 0.780742
C	 -0.016533	 -0.325589	 -0.026925
H	 1.280915	 1.180773	 -0.818522
H	 1.263064	 1.106893	 0.925038
C	 -1.280353	 0.525521	 0.047747
H	 -0.016686	 -0.912532	 -0.939714
H	 -0.014099	 -1.037598	 0.796369
C	 -2.560681	 -0.301323	 -0.007747
H	 -1.279957	 1.241025	 -0.770189
H	 -1.270445	 1.110526	 0.963468
H	 -2.617064	 -0.872870	 -0.928010
H	 -3.439525	 0.331102	 0.043462
H	 -2.609427	 -1.002736	 0.818585

	symmetry c1
}
set optking {
	frozen_dihedral = ("
		1 2 3 6
	")
}

ee,wfn = optimize('scf', return_wfn=True)
oeprop( wfn, 'DIPOLE', 'QUADRUPOLE', 'MULLIKEN_CHARGES')
f=open( 'psi4out.xyz', 'w' )
f.write( "16  " )
f.write( str(ee) + "\n" )
f.write( MOL.save_string_xyz() )
f.close()
--------------------------------------------------------------------------

    Molecular point group: c1
  Charge       = 0
  Multiplicity = 1
  Basis Set: CC-PVTZ
  Basis Set:
  @DF-RHF Final Energy:  -212.39717888160067
    Total Energy =                       -212.3971788816006097
    Molecular point group: c1
  Basis Set: CC-PVTZ
  Basis Set:
  Basis Set: CC-PVTZ
  Basis Set:
  @DF-RHF Final Energy:  -212.39758291686459
    Total Energy =                       -212.3975829168646783
  Basis Set: CC-PVTZ
  Basis Set:
  Basis Set: CC-PVTZ
  Basis Set:
  @DF-RHF Final Energy:  -212.39770168337159
    Total Energy =                       -212.3977016833714515
  Basis Set: CC-PVTZ
  Basis Set:
  Basis Set: CC-PVTZ
  Basis Set:
  @DF-RHF Final Energy:  -212.39770616862120
    Total Energy =                       -212.3977061686211982
  Basis Set: CC-PVTZ
  Basis Set:
  Charge       = 0
  Multiplicity = 1
  Basis Set: CC-PVTZ
  Basis Set:

    Orbital Energies (a.u.)
    -----------------------

    Doubly Occupied:

       1A    -15.524573     2A    -11.238815     3A    -11.210270
       4A    -11.203892     5A    -11.202046     6A     -1.174771
       7A     -1.058437     8A     -0.958791     9A     -0.843071
      10A     -0.787721    11A     -0.677236    12A     -0.624415
      13A     -0.611165    14A     -0.578389    15A     -0.552486
      16A     -0.532995    17A     -0.488434    18A     -0.476073
      19A     -0.465968    20A     -0.458905    21A     -0.378587

  @DF-RHF Final Energy:  -212.39770691099991

   => Energetics <=

    Nuclear Repulsion Energy =            186.1241562607253570
    One-Electron Energy =                -654.9496443452640051
    Two-Electron Energy =                 256.4277811735387331
    DFT Exchange-Correlation Energy =       0.0000000000000000
    Empirical Dispersion Energy =           0.0000000000000000
    PCM Polarization Energy =               0.0000000000000000
    EFP Energy =                            0.0000000000000000
    Total Energy =                       -212.3977069109998865
    Molecular point group: c1
  Basis Set: CC-PVTZ
  Basis Set:

  -Total Gradient:
     Atom            X                  Y                   Z
    ------   -----------------  -----------------  -----------------
       1       -0.000795324680    -0.000916266162    -0.001111229675
       2        0.001224754127     0.001345704580     0.001568383132
       3       -0.001203027570    -0.001418480605    -0.001290895157
       4       -0.000006802126    -0.000006802004     0.000015099951
       5        0.000057773170     0.000045055288     0.000039242416
       6        0.000759494881     0.000963285694     0.000794226159
       7       -0.000016887500    -0.000006157414     0.000005240292
       8       -0.000000618291    -0.000021324496    -0.000023296242
       9        0.000001973016     0.000008801185     0.000007724213
      10        0.000010272455     0.000004131200    -0.000003524371
      11       -0.000033130138     0.000019360649     0.000003637290
      12        0.000003135931     0.000000366342     0.000006078145
      13        0.000001084607    -0.000014494148    -0.000006063972
      14        0.000002468223     0.000002069690    -0.000000825555
      15       -0.000009171545    -0.000009501201    -0.000001816882
      16        0.000004005439     0.000004251400    -0.000001979744

  **** Optimization is complete! (in 5 steps) ****
    Final optimized geometry and variables:
    Molecular point group: c1

    Geometry (in Angstrom), charge = 0, multiplicity = 1:

    H            3.076124395333    -0.033345777123    -0.824768097504
    N            2.443112724010    -0.358863313964    -0.129769016066
    C            1.258179443705     0.485444241706    -0.021949893392
    H            2.935941746039    -0.434709523909     0.731589696203
    C           -0.025585706751    -0.333501637518    -0.025538994574
    H            1.243228578446     1.188495247535    -0.848595135561
    H            1.291213160682     1.092990424418     0.879900087636
    C           -1.284986673119     0.519214424360     0.090025849255
    H           -0.057456129598    -0.922493514707    -0.937039997777
    H            0.012588906958    -1.045469229885     0.794749145636
    C           -2.568077273014    -0.305320575051     0.082661480661
    H           -1.313845691294     1.233700401204    -0.728890450165
    H           -1.242329462310     1.107078332939     1.003440592925
    H           -2.658709490408    -0.878051485008    -0.834181127094
    H           -3.444097627664     0.327926273064     0.165333004538
    H           -2.586632467182    -1.005900543890     0.910802044593

  Mulliken Charges: (a.u.)
   Center  Symbol    Alpha    Beta     Spin     Total
       1     H     0.42457  0.42457  0.00000  0.15086
       2     N     3.69865  3.69865  0.00000 -0.39730
       3     C     3.04411  3.04411  0.00000 -0.08821
       4     H     0.42670  0.42670  0.00000  0.14660
       5     C     3.06209  3.06209  0.00000 -0.12418
       6     H     0.45679  0.45679  0.00000  0.08643
       7     H     0.46034  0.46034  0.00000  0.07931
       8     C     3.09146  3.09146  0.00000 -0.18293
       9     H     0.45533  0.45533  0.00000  0.08934
      10     H     0.45858  0.45858  0.00000  0.08283
      11     C     3.14898  3.14898  0.00000 -0.29795
      12     H     0.45666  0.45666  0.00000  0.08668
      13     H     0.45686  0.45686  0.00000  0.08628
      14     H     0.45458  0.45458  0.00000  0.09084
      15     H     0.44934  0.44934  0.00000  0.10131
      16     H     0.45496  0.45496  0.00000  0.09008

   Total alpha = 21.00000, Total beta = 21.00000, Total charge =  0.00000

*** Psi4 exiting successfully. Buy a developer a beer!
