                              Psi4 1.0.54 Driver

  ==> Input File <==

--------------------------------------------------------------------------
set {
	reference rhf
	basis cc-pvtz
}

set_num_threads( 4 )
memory 2 gb

molecule MOL {
0 1

H	 -3.034039	 -0.667848	 0.004703
O	 -2.240597	 -1.171748	 0.000934
C	 -1.159675	 -0.364500	 0.000370
C	 0.038251	 -0.731121	 0.579142
C	 -1.291513	 0.872426	 -0.611747
H	 0.142058	 -1.688699	 1.055929
C	 1.101966	 0.153861	 0.539821
H	 -2.236815	 1.127593	 -1.050188
C	 -0.229050	 1.752723	 -0.652115
H	 2.034675	 -0.126599	 0.991669
C	 0.977702	 1.383623	 -0.066025
C	 -0.365194	 3.088328	 -1.338603
H	 1.811786	 2.059192	 -0.085355
H	 0.090321	 3.875691	 -0.750906
H	 -1.403476	 3.344363	 -1.500352
H	 0.128469	 3.073476	 -2.304378

	symmetry c1
}
set optking {
	frozen_dihedral = ("
		5 3 2 1
	")
}

ee,wfn = optimize('scf', return_wfn=True)
oeprop( wfn, 'DIPOLE', 'QUADRUPOLE', 'MULLIKEN_CHARGES')
f=open( 'psi4out.xyz', 'w' )
f.write( "16  " )
f.write( str(ee) + "\n" )
f.write( MOL.save_string_xyz() )
f.close()
--------------------------------------------------------------------------

    Molecular point group: c1
  Charge       = 0
  Multiplicity = 1
  Basis Set: CC-PVTZ
  Basis Set:
  @DF-RHF Final Energy:  -344.71772725117694
    Total Energy =                       -344.7177272511770525
    Molecular point group: c1
  Basis Set: CC-PVTZ
  Basis Set:
  Basis Set: CC-PVTZ
  Basis Set:
  @DF-RHF Final Energy:  -344.71934683330790
    Total Energy =                       -344.7193468333078386
  Basis Set: CC-PVTZ
  Basis Set:
  Basis Set: CC-PVTZ
  Basis Set:
  @DF-RHF Final Energy:  -344.71947792794032
    Total Energy =                       -344.7194779279406589
  Basis Set: CC-PVTZ
  Basis Set:
  Basis Set: CC-PVTZ
  Basis Set:
  @DF-RHF Final Energy:  -344.71949259693724
    Total Energy =                       -344.7194925969371866
  Basis Set: CC-PVTZ
  Basis Set:
  @DF-RHF Final Energy:  -344.71949730870352
    Total Energy =                       -344.7194973087035237
  @DF-RHF Final Energy:  -344.71949872874046
    Total Energy =                       -344.7194987287404047
  @DF-RHF Final Energy:  -344.71895173876510
    Total Energy =                       -344.7189517387649857
  @DF-RHF Final Energy:  -344.71949857741600
    Total Energy =                       -344.7194985774159477
  @DF-RHF Final Energy:  -344.71950124564898
    Total Energy =                       -344.7195012456494396
  @DF-RHF Final Energy:  -344.71950557192196
    Total Energy =                       -344.7195055719220136
  @DF-RHF Final Energy:  -344.71950974194635
    Total Energy =                       -344.7195097419463536
  @DF-RHF Final Energy:  -344.71952527948042
    Total Energy =                       -344.7195252794804787
  @DF-RHF Final Energy:  -344.71952813437201
    Total Energy =                       -344.7195281343720126
  @DF-RHF Final Energy:  -344.71953037337983
    Total Energy =                       -344.7195303733794844
  @DF-RHF Final Energy:  -344.71953224467575
    Total Energy =                       -344.7195322446754062
  Basis Set: CC-PVTZ
  Basis Set:
  @DF-RHF Final Energy:  -344.71953499680649
    Total Energy =                       -344.7195349968064306
  Basis Set: CC-PVTZ
  Basis Set:
  Basis Set: CC-PVTZ
  Basis Set:
  @DF-RHF Final Energy:  -344.71953713596741
    Total Energy =                       -344.7195371359674141
  Basis Set: CC-PVTZ
  Basis Set:
  Basis Set: CC-PVTZ
  Basis Set:
  @DF-RHF Final Energy:  -344.71953973649767
    Total Energy =                       -344.7195397364984046
  Basis Set: CC-PVTZ
  Basis Set:
  Charge       = 0
  Multiplicity = 1
  Basis Set: CC-PVTZ
  Basis Set:

    Orbital Energies (a.u.)
    -----------------------

    Doubly Occupied:

       1A    -20.579820     2A    -11.293341     3A    -11.242086
       4A    -11.230924     5A    -11.221732     6A    -11.219542
       7A    -11.215251     8A    -11.214236     9A     -1.409547
      10A     -1.154642    11A     -1.047590    12A     -1.006843
      13A     -0.940749    14A     -0.842853    15A     -0.803224
      16A     -0.731432    17A     -0.682903    18A     -0.652707
      19A     -0.609734    20A     -0.596844    21A     -0.579972
      22A     -0.570060    23A     -0.564392    24A     -0.534321
      25A     -0.506200    26A     -0.484963    27A     -0.471900
      28A     -0.334054    29A     -0.312658

  @DF-RHF Final Energy:  -344.71954044292346

   => Energetics <=

    Nuclear Repulsion Energy =            346.2992741391159939
    One-Electron Energy =               -1153.9285910213525312
    Two-Electron Energy =                 462.9097764393130774
    DFT Exchange-Correlation Energy =       0.0000000000000000
    Empirical Dispersion Energy =           0.0000000000000000
    PCM Polarization Energy =               0.0000000000000000
    EFP Energy =                            0.0000000000000000
    Total Energy =                       -344.7195404429234031
    Molecular point group: c1
  Basis Set: CC-PVTZ
  Basis Set:

  -Total Gradient:
     Atom            X                  Y                   Z
    ------   -----------------  -----------------  -----------------
       1       -0.000085660408     0.000094346394     0.002378669874
       2        0.000507198779    -0.000584526202    -0.003981198328
       3       -0.001234313576     0.001419584921     0.003530670488
       4        0.000106761124    -0.000067517012    -0.000229255287
       5        0.000691215609    -0.000812590892    -0.001685259650
       6        0.000024572953     0.000006105157    -0.000006940776
       7       -0.000035273290    -0.000048361459     0.000038409263
       8       -0.000010050005    -0.000006786902    -0.000007402331
       9        0.000057650467     0.000017722519     0.000014621224
      10        0.000002233743     0.000005268964    -0.000000413249
      11       -0.000014574014     0.000021109542    -0.000072411556
      12       -0.000016800577    -0.000047404513     0.000012869992
      13        0.000010639146    -0.000018164102     0.000014802825
      14        0.000017080539     0.000034574321     0.000053207294
      15       -0.000067053730    -0.000003413305    -0.000017379645
      16        0.000046373242    -0.000009947437    -0.000042990136

  **** Optimization is complete! (in 19 steps) ****
    Final optimized geometry and variables:
    Molecular point group: c1

    Geometry (in Angstrom), charge = 0, multiplicity = 1:

    H           -2.563454940399    -1.418599882889     0.167497251777
    O           -1.731487276132    -1.855562417045     0.195312370583
    C           -0.716627933021    -0.959725908509     0.194785074874
    C            0.474200948232    -1.331267792994     0.790834884424
    C           -0.832830780738     0.270250384388    -0.425461465239
    H            0.550251755509    -2.291173006704     1.261717493411
    C            1.534492722283    -0.450474654604     0.768519456366
    H           -1.760057771328     0.534568704129    -0.902200674902
    C            0.231138416585     1.159419700947    -0.440725168085
    H            2.460567307811    -0.730054593851     1.234335699907
    C            1.419859778157     0.788515566708     0.164786408132
    C            0.100987395451     2.488808756375    -1.140758360278
    H            2.254900902772     1.462967990335     0.164951022237
    H            0.756088101031     3.228139276411    -0.698961047325
    H           -0.913540730787     2.863142547758    -1.090317004272
    H            0.366580722575     2.396949093585    -2.188742620925

  Mulliken Charges: (a.u.)
   Center  Symbol    Alpha    Beta     Spin     Total
       1     H     0.38621  0.38621  0.00000  0.22759
       2     O     4.17939  4.17939  0.00000 -0.35877
       3     C     2.84696  2.84696  0.00000  0.30608
       4     C     3.12422  3.12422  0.00000 -0.24843
       5     C     3.15351  3.15351  0.00000 -0.30701
       6     H     0.41869  0.41869  0.00000  0.16262
       7     C     3.05029  3.05029  0.00000 -0.10058
       8     H     0.43336  0.43336  0.00000  0.13327
       9     C     2.94316  2.94316  0.00000  0.11367
      10     H     0.42295  0.42295  0.00000  0.15411
      11     C     3.12050  3.12050  0.00000 -0.24099
      12     C     3.14686  3.14686  0.00000 -0.29372
      13     H     0.42744  0.42744  0.00000  0.14512
      14     H     0.44883  0.44883  0.00000  0.10234
      15     H     0.45109  0.45109  0.00000  0.09781
      16     H     0.44655  0.44655  0.00000  0.10691

   Total alpha = 29.00000, Total beta = 29.00000, Total charge = -0.00000

*** Psi4 exiting successfully. Buy a developer a beer!
