                              Psi4 1.0.54 Driver

  ==> Input File <==

--------------------------------------------------------------------------
set {
	reference rhf
	basis cc-pvtz
}

set_num_threads( 4 )
memory 2 gb

molecule MOL {
0 1

H	 -2.392422	 -0.219675	 3.165702
C	 -2.801699	 -0.584622	 2.213761
C	 -2.655495	 0.364802	 1.055698
O	 -3.317637	 -1.646815	 2.160270
C	 -1.217929	 0.860690	 0.873565
H	 -3.026027	 -0.121560	 0.162674
H	 -3.302191	 1.213618	 1.266885
C	 -0.244068	 -0.230945	 0.435258
H	 -1.220795	 1.657670	 0.137933
H	 -0.871343	 1.308280	 1.801862
C	 1.181757	 0.280428	 0.247371
H	 -0.596905	 -0.668451	 -0.494904
H	 -0.242426	 -1.037142	 1.164279
C	 2.151032	 -0.811012	 -0.202643
H	 1.172392	 1.090577	 -0.475065
H	 1.535381	 0.708758	 1.182669
C	 3.580021	 -0.656538	 0.320835
H	 2.170545	 -0.847575	 -1.289412
H	 1.766632	 -1.772905	 0.124928
C	 4.327657	 0.562694	 -0.213579
H	 4.138806	 -1.549270	 0.057813
H	 3.561991	 -0.620783	 1.406976
H	 4.355973	 0.557257	 -1.298551
H	 3.867136	 1.491650	 0.100501
H	 5.351524	 0.571613	 0.142204

	symmetry c1
}
set optking {
	frozen_dihedral = ("
		8 11 14 18
	")
}

ee,wfn = optimize('scf', return_wfn=True)
oeprop( wfn, 'DIPOLE', 'QUADRUPOLE', 'MULLIKEN_CHARGES')
f=open( 'psi4out.xyz', 'w' )
f.write( "25  " )
f.write( str(ee) + "\n" )
f.write( MOL.save_string_xyz() )
f.close()
--------------------------------------------------------------------------

    Molecular point group: c1
  Charge       = 0
  Multiplicity = 1
  Basis Set: CC-PVTZ
  Basis Set:
  @DF-RHF Final Energy:  -387.25778601088916
    Total Energy =                       -387.2577860108889354
    Molecular point group: c1
  Basis Set: CC-PVTZ
  Basis Set:
  Basis Set: CC-PVTZ
  Basis Set:
  @DF-RHF Final Energy:  -387.25799211099246
    Total Energy =                       -387.2579921109924044
  Basis Set: CC-PVTZ
  Basis Set:
  Basis Set: CC-PVTZ
  Basis Set:
  @DF-RHF Final Energy:  -387.25811097885702
    Total Energy =                       -387.2581109788567346
  Basis Set: CC-PVTZ
  Basis Set:
  Basis Set: CC-PVTZ
  Basis Set:
  @DF-RHF Final Energy:  -387.25785516528822
    Total Energy =                       -387.2578551652884471
  Basis Set: CC-PVTZ
  Basis Set:
  Basis Set: CC-PVTZ
  Basis Set:
  @DF-RHF Final Energy:  -387.25807603492922
    Total Energy =                       -387.2580760349289903
  Basis Set: CC-PVTZ
  Basis Set:
  Basis Set: CC-PVTZ
  Basis Set:
  @DF-RHF Final Energy:  -387.25812019311917
    Total Energy =                       -387.2581201931195665
  Basis Set: CC-PVTZ
  Basis Set:
  Basis Set: CC-PVTZ
  Basis Set:
  @DF-RHF Final Energy:  -387.25812155422278
    Total Energy =                       -387.2581215542231803
  Basis Set: CC-PVTZ
  Basis Set:
  Charge       = 0
  Multiplicity = 1
  Basis Set: CC-PVTZ
  Basis Set:

    Orbital Energies (a.u.)
    -----------------------

    Doubly Occupied:

       1A    -20.551499     2A    -11.321087     3A    -11.233877
       4A    -11.232825     5A    -11.222035     6A    -11.218008
       7A    -11.215949     8A    -11.214855     9A    -11.208741
      10A     -1.406510    11A     -1.105041    12A     -1.070938
      13A     -1.014138    14A     -0.942585    15A     -0.876159
      16A     -0.822079    17A     -0.788840    18A     -0.781107
      19A     -0.668775    20A     -0.661795    21A     -0.636983
      22A     -0.626181    23A     -0.603946    24A     -0.594849
      25A     -0.576013    26A     -0.553070    27A     -0.534261
      28A     -0.527655    29A     -0.511990    30A     -0.495936
      31A     -0.491733    32A     -0.481396    33A     -0.462136
      34A     -0.459453    35A     -0.442391    36A     -0.412007

  @DF-RHF Final Energy:  -387.25812191367726

   => Energetics <=

    Nuclear Repulsion Energy =            440.2545156594563309
    One-Electron Energy =               -1397.0915801154676501
    Two-Electron Energy =                 569.5789425423336070
    DFT Exchange-Correlation Energy =       0.0000000000000000
    Empirical Dispersion Energy =           0.0000000000000000
    PCM Polarization Energy =               0.0000000000000000
    EFP Energy =                            0.0000000000000000
    Total Energy =                       -387.2581219136777690
    Molecular point group: c1
  Basis Set: CC-PVTZ
  Basis Set:

  -Total Gradient:
     Atom            X                  Y                   Z
    ------   -----------------  -----------------  -----------------
       1       -0.000013345428    -0.000004861845     0.000013157168
       2        0.000020122837    -0.000013517576    -0.000016682299
       3       -0.000007559533     0.000014281138    -0.000003954013
       4       -0.000007542215     0.000007225670     0.000021624384
       5       -0.000003080507    -0.000007576423     0.000047967859
       6        0.000007711247    -0.000006157683     0.000002147624
       7       -0.000001717874     0.000012449408    -0.000016346210
       8        0.000550481835    -0.000606766213     0.002669137974
       9       -0.000009065312    -0.000004435845     0.000000601035
      10       -0.000000064638     0.000000260688     0.000004776441
      11       -0.000071545907     0.001502906812    -0.003791670709
      12        0.000009285495    -0.000004454392    -0.000009634565
      13        0.000007733569    -0.000004853055    -0.000003443215
      14       -0.003422185110    -0.003370181633     0.001104141910
      15       -0.000012388581     0.000009141297     0.000003937665
      16       -0.000014438498     0.000000794976    -0.000005663480
      17       -0.000010576378    -0.000014212754    -0.000004771222
      18        0.002975704338     0.002506465638    -0.000000028757
      19        0.000010469259    -0.000013195501     0.000006660663
      20       -0.000003177572     0.000008610016    -0.000012068089
      21        0.000004745638    -0.000003739443    -0.000013943932
      22       -0.000012444303    -0.000018767544     0.000007577933
      23        0.000007555877     0.000003636447    -0.000004836484
      24       -0.000002482740     0.000004260703     0.000000045704
      25       -0.000002195498     0.000002687112     0.000001266616

  **** Optimization is complete! (in 8 steps) ****
    Final optimized geometry and variables:
    Molecular point group: c1

    Geometry (in Angstrom), charge = 0, multiplicity = 1:

    H           -2.516309800769     0.111752365556     2.395908690125
    C           -2.928990140405    -0.275402917261     1.454238208755
    C           -2.758184869772     0.632695758623     0.266718173413
    O           -3.466706006452    -1.327877626432     1.432717012493
    C           -1.309681742797     1.091824945598     0.075224393222
    H           -3.135494246095     0.125660568302    -0.611855807920
    H           -3.387542465772     1.501340198160     0.447452900333
    C           -0.358738648673    -0.032763668294    -0.327768159402
    H           -1.292935176610     1.866959404672    -0.683149934148
    H           -0.955908947248     1.558636831856     0.991407813057
    C            1.082417794112     0.437463620772    -0.508834772251
    H           -0.715004836521    -0.485239033665    -1.250017453510
    H           -0.379990001733    -0.820777503409     0.420130410306
    C            2.030394753606    -0.682141557645    -0.962345861180
    H            1.111825778279     1.262365209570    -1.213351577953
    H            1.429794106744     0.839156563819     0.440212101195
    C            3.469407305198    -0.524003381805    -0.466404580543
    H            2.055059432121    -0.715720349572    -2.048283902670
    H            1.650011603585    -1.639613390382    -0.622442082499
    C            4.179155210645     0.718749305213    -0.997263804417
    H            4.035868903791    -1.403110544599    -0.758070884835
    H            3.473831345393    -0.506155419649     0.620310796608
    H            4.205133314079     0.717680830093    -2.082356197732
    H            3.686026751060     1.630464292022    -0.680310126452
    H            5.202739319844     0.761227609520    -0.643236410346

  Mulliken Charges: (a.u.)
   Center  Symbol    Alpha    Beta     Spin     Total
       1     H     0.46425  0.46425  0.00000  0.07149
       2     C     2.90489  2.90489  0.00000  0.19021
       3     C     3.08914  3.08914  0.00000 -0.17829
       4     O     4.16620  4.16620  0.00000 -0.33241
       5     C     3.11672  3.11672  0.00000 -0.23344
       6     H     0.44291  0.44291  0.00000  0.11418
       7     H     0.44048  0.44048  0.00000  0.11904
       8     C     3.09042  3.09042  0.00000 -0.18084
       9     H     0.44295  0.44295  0.00000  0.11410
      10     H     0.44972  0.44972  0.00000  0.10056
      11     C     3.09673  3.09673  0.00000 -0.19347
      12     H     0.44915  0.44915  0.00000  0.10170
      13     H     0.44824  0.44824  0.00000  0.10352
      14     C     3.09625  3.09625  0.00000 -0.19251
      15     H     0.44884  0.44884  0.00000  0.10232
      16     H     0.45387  0.45387  0.00000  0.09227
      17     C     3.09003  3.09003  0.00000 -0.18006
      18     H     0.45218  0.45218  0.00000  0.09564
      19     H     0.44691  0.44691  0.00000  0.10618
      20     C     3.15139  3.15139  0.00000 -0.30278
      21     H     0.44840  0.44840  0.00000  0.10320
      22     H     0.45534  0.45534  0.00000  0.08933
      23     H     0.45477  0.45477  0.00000  0.09046
      24     H     0.45393  0.45393  0.00000  0.09214
      25     H     0.44627  0.44627  0.00000  0.10746

   Total alpha = 36.00000, Total beta = 36.00000, Total charge =  0.00000

*** Psi4 exiting successfully. Buy a developer a beer!
