  ==> Input File <==

--------------------------------------------------------------------------
set {
	reference rhf
	basis 6-31G*
}

set_num_threads( 4 )
memory 2 gb

molecule MOL {
0 1

O	 -3.690216	 -0.454528	 0.171304
C	 -2.668563	 0.129746	 -0.000350
C	 -2.580875	 1.614667	 -0.242398
O	 -1.481751	 -0.454642	 0.000584
H	 -3.029472	 2.131213	 0.597723
H	 -1.559943	 1.942182	 -0.372286
H	 -3.160937	 1.858228	 -1.124489
C	 -0.334255	 0.388708	 0.000906
C	 0.891947	 -0.504646	 0.000751
H	 -0.365390	 1.025305	 -0.873475
H	 -0.365484	 1.024911	 0.875569
C	 2.191998	 0.301789	 0.000897
H	 0.855148	 -1.151283	 -0.871571
H	 0.855132	 -1.151660	 0.872805
C	 3.441114	 -0.581407	 0.000108
H	 2.215074	 0.954890	 -0.869742
H	 2.215465	 0.953923	 0.872248
C	 4.739576	 0.224112	 -0.001102
H	 3.419457	 -1.233487	 -0.870178
H	 3.420834	 -1.233096	 0.870717
H	 4.804918	 0.861552	 -0.878265
H	 5.606527	 -0.429058	 -0.001824
H	 4.806469	 0.861674	 0.875853

	symmetry c1
}
set optking {
	frozen_dihedral = ("
		1 2 4 8
	")
}

ee = optimize('scf')
oeprop('DIPOLE', 'QUADRUPOLE', 'MULLIKEN_CHARGES')
f=open( 'psi4out.xyz', 'w' )
f.write( "23  " )
f.write( str(ee) + "\n" )
f.write( MOL.save_string_xyz() )
f.close()
--------------------------------------------------------------------------

    Molecular point group: c1
  Charge       = 0
  Multiplicity = 1
  Basis Set: 6-31G*
  Basis Set:
  @DF-RHF Final Energy:  -422.94542980038193
    Total Energy =                       -422.9454298003821577
    Molecular point group: c1
  Basis Set: 6-31G*
  Basis Set:
  Basis Set: 6-31G*
  Basis Set:
  @DF-RHF Final Energy:  -422.94935109800321
    Total Energy =                       -422.9493510980030351
  Basis Set: 6-31G*
  Basis Set:
  Basis Set: 6-31G*
  Basis Set:
  @DF-RHF Final Energy:  -422.95796078634669
    Total Energy =                       -422.9579607863465753
  Basis Set: 6-31G*
  Basis Set:
  Basis Set: 6-31G*
  Basis Set:
  @DF-RHF Final Energy:  -422.96200274763567
    Total Energy =                       -422.9620027476355517
  Basis Set: 6-31G*
  Basis Set:
  @DF-RHF Final Energy:  -422.96267684287238
    Total Energy =                       -422.9626768428720425
  @DF-RHF Final Energy:  -422.96327783832498
    Total Energy =                       -422.9632778383246432
  @DF-RHF Final Energy:  -422.96294820440363
    Total Energy =                       -422.9629482044034603
  @DF-RHF Final Energy:  -422.96350824070169
    Total Energy =                       -422.9635082407029358
  @DF-RHF Final Energy:  -422.96362859305293
    Total Energy =                       -422.9636285930529311
  @DF-RHF Final Energy:  -422.96384396145328
    Total Energy =                       -422.9638439614532217
  @DF-RHF Final Energy:  -422.95913764039847
    Total Energy =                       -422.9591376403988079
  @DF-RHF Final Energy:  -422.96444122544153
    Total Energy =                       -422.9644412254422150
  @DF-RHF Final Energy:  -422.96492510978374
    Total Energy =                       -422.9649251097835077
  @DF-RHF Final Energy:  -422.96199624930205
    Total Energy =                       -422.9619962493017056
  @DF-RHF Final Energy:  -422.96550107865869
    Total Energy =                       -422.9655010786584626
  @DF-RHF Final Energy:  -422.96543590334613
    Total Energy =                       -422.9654359033468154
  @DF-RHF Final Energy:  -422.96576475308751
    Total Energy =                       -422.9657647530875693
  Basis Set: 6-31G*
  Basis Set:
  @DF-RHF Final Energy:  -422.96580622122184
    Total Energy =                       -422.9658062212215555
  Basis Set: 6-31G*
  Basis Set:
  Basis Set: 6-31G*
  Basis Set:
  @DF-RHF Final Energy:  -422.96581160510163
    Total Energy =                       -422.9658116051018624
  Basis Set: 6-31G*
  Basis Set:
  Basis Set: 6-31G*
  Basis Set:
  @DF-RHF Final Energy:  -422.96582221067837
    Total Energy =                       -422.9658222106783114
  Basis Set: 6-31G*
  Basis Set:
  Charge       = 0
  Multiplicity = 1
  Basis Set: 6-31G*
  Basis Set:

    Orbital Energies (a.u.)
    -----------------------

    Doubly Occupied:

       1A    -20.599239     2A    -20.537296     3A    -11.375053
       4A    -11.297204     5A    -11.241876     6A    -11.230169
       7A    -11.229499     8A    -11.225558     9A    -11.216548
      10A     -1.461481    11A     -1.363368    12A     -1.098367
      13A     -1.037014    14A     -1.015700    15A     -0.944145
      16A     -0.848851    17A     -0.808176    18A     -0.779376
      19A     -0.699872    20A     -0.696187    21A     -0.658964
      22A     -0.650552    23A     -0.610073    24A     -0.596016
      25A     -0.581423    26A     -0.573668    27A     -0.569767
      28A     -0.540472    29A     -0.532391    30A     -0.505929
      31A     -0.500275    32A     -0.482633    33A     -0.476135
      34A     -0.474006    35A     -0.442429    36A     -0.429346

  @DF-RHF Final Energy:  -422.96582232236062

   => Energetics <=

    Nuclear Repulsion Energy =            449.4706009561408564
    One-Electron Energy =               -1466.2147350300024300
    Two-Electron Energy =                 593.7783117515008371
    DFT Exchange-Correlation Energy =       0.0000000000000000
    Empirical Dispersion Energy =           0.0000000000000000
    PCM Polarization Energy =               0.0000000000000000
    EFP Energy =                            0.0000000000000000
    Total Energy =                       -422.9658223223607365
    Molecular point group: c1
  Basis Set: 6-31G*
  Basis Set:

  -Total Gradient:
     Atom            X                  Y                   Z
    ------   -----------------  -----------------  -----------------
       1        0.000074371641     0.000119357719     0.000982269182
       2       -0.000152207288    -0.000175139492    -0.000902650800
       3        0.000021751991    -0.000013794959    -0.000005271442
       4        0.000083118384     0.000127068445    -0.000932085587
       5        0.000001768806    -0.000001884869     0.000004688081
       6       -0.000000975514     0.000005312346    -0.000003455906
       7       -0.000006794902    -0.000001975049    -0.000000434871
       8       -0.000049162506    -0.000079265462     0.000849236884
       9        0.000008616149     0.000010637853    -0.000005984661
      10        0.000005028114     0.000001114060     0.000005178528
      11        0.000009544331     0.000004922162    -0.000001135447
      12       -0.000002587804    -0.000006043145     0.000006436027
      13       -0.000014434701     0.000008087929    -0.000002901847
      14        0.000004434701    -0.000004481958    -0.000004190073
      15        0.000001011496     0.000007231260     0.000020840612
      16        0.000011670724     0.000001098810    -0.000000947390
      17       -0.000005089054    -0.000000661991    -0.000004332191
      18        0.000007587274    -0.000003830766    -0.000011593001
      19       -0.000003568611     0.000000179761     0.000005439984
      20        0.000002206521     0.000001243735     0.000004603862
      21       -0.000000208652     0.000004484647     0.000001746423
      22        0.000004830662     0.000002066441    -0.000005263954
      23       -0.000000911754    -0.000005727475    -0.000000192414

  **** Optimization is complete! (in 21 steps) ****
    Final optimized geometry and variables:
    Molecular point group: c1

    Geometry (in Angstrom), charge = 0, multiplicity = 1:

    O           -3.646335081576    -0.665860670609     0.057239935883
    C           -2.725925021990     0.069418926720    -0.060972238605
    C           -2.893931351891     1.562082913521    -0.233532873033
    O           -1.487892305405    -0.426745420436    -0.059679061727
    H           -2.406524493356     2.110997572059     0.564127218278
    H           -2.466484918667     1.892074343198    -1.173956743418
    H           -3.950291135827     1.782291257142    -0.223965507716
    C           -0.328161571214     0.381513891934     0.011062030207
    C            0.873207819111    -0.546568625832    -0.001343138191
    H           -0.290786308500     1.061522460855    -0.832661066393
    H           -0.343601439678     0.970329908036     0.921937557632
    C            2.197393208579     0.215033902707     0.077440493120
    H            0.836618970086    -1.144553228070    -0.906929374207
    H            0.784799243170    -1.235189676543     0.833248435922
    C            3.416034527065    -0.709889429575     0.068393037249
    H            2.270248517029     0.909284758882    -0.758325994106
    H            2.216729842452     0.821726792496     0.981462205547
    C            4.739767180235     0.049451959344     0.144815110563
    H            3.398715133395    -1.317142647666    -0.833598759071
    H            3.347068951603    -1.402158469758     0.904209621785
    H            4.853040876484     0.726822912509    -0.696890671803
    H            5.583811870372    -0.632765433538     0.135647582938
    H            4.801745919934     0.639820504669     1.054603345590

  Mulliken Charges: (a.u.)
   Center  Symbol    Alpha    Beta     Spin     Total
       1     O     4.26662  4.26662  0.00000 -0.53324
       2     C     2.61347  2.61347  0.00000  0.77307
       3     C     3.30933  3.30933  0.00000 -0.61866
       4     O     4.30595  4.30595  0.00000 -0.61190
       5     H     0.40381  0.40381  0.00000  0.19238
       6     H     0.40227  0.40227  0.00000  0.19545
       7     H     0.38760  0.38760  0.00000  0.22480
       8     C     2.99471  2.99471  0.00000  0.01058
       9     C     3.16185  3.16185  0.00000 -0.32371
      10     H     0.42032  0.42032  0.00000  0.15936
      11     H     0.41936  0.41936  0.00000  0.16128
      12     C     3.16109  3.16109  0.00000 -0.32218
      13     H     0.40979  0.40979  0.00000  0.18041
      14     H     0.40862  0.40862  0.00000  0.18277
      15     C     3.15184  3.15184  0.00000 -0.30368
      16     H     0.42241  0.42241  0.00000  0.15519
      17     H     0.42208  0.42208  0.00000  0.15583
      18     C     3.24009  3.24009  0.00000 -0.48018
      19     H     0.41998  0.41998  0.00000  0.16003
      20     H     0.41971  0.41971  0.00000  0.16057
      21     H     0.42121  0.42121  0.00000  0.15757
      22     H     0.41680  0.41680  0.00000  0.16640
      23     H     0.42107  0.42107  0.00000  0.15785

   Total alpha = 36.00000, Total beta = 36.00000, Total charge = -0.00000
