  ==> Input File <==

--------------------------------------------------------------------------
set {
	reference rhf
	basis 6-31G*
}

set_num_threads( 4 )
memory 2 gb

molecule MOL {
0 1

H	 -1.836216	 1.387520	 -0.000064
C	 -1.301823	 0.443321	 -0.000031
O	 -0.003969	 0.658512	 0.000451
O	 -1.829879	 -0.616434	 -0.000857
C	 0.776213	 -0.038651	 0.971258
C	 2.219741	 0.369786	 0.771937
H	 0.636624	 -1.101918	 0.832352
H	 0.417843	 0.219975	 1.958162
H	 2.559053	 0.110317	 -0.224344
H	 2.849524	 -0.140470	 1.493217
H	 2.339381	 1.438600	 0.906881

	symmetry c1
}
set optking {
	frozen_dihedral = ("
		5 3 2 4
	")
}

ee = optimize('scf')
oeprop('DIPOLE', 'QUADRUPOLE', 'MULLIKEN_CHARGES')
f=open( 'psi4out.xyz', 'w' )
f.write( "11  " )
f.write( str(ee) + "\n" )
f.write( MOL.save_string_xyz() )
f.close()
--------------------------------------------------------------------------

    Molecular point group: c1
  Charge       = 0
  Multiplicity = 1
  Basis Set: 6-31G*
  Basis Set:
  @DF-RHF Final Energy:  -266.81658217468487
    Total Energy =                       -266.8165821746845836
    Molecular point group: c1
  Basis Set: 6-31G*
  Basis Set:
  Basis Set: 6-31G*
  Basis Set:
  @DF-RHF Final Energy:  -266.80907495389113
    Total Energy =                       -266.8090749538910131
  Basis Set: 6-31G*
  Basis Set:
  Basis Set: 6-31G*
  Basis Set:
  @DF-RHF Final Energy:  -266.81719056893257
    Total Energy =                       -266.8171905689324603
  Basis Set: 6-31G*
  Basis Set:
  Basis Set: 6-31G*
  Basis Set:
  @DF-RHF Final Energy:  -266.81748837068960
    Total Energy =                       -266.8174883706897162
  Basis Set: 6-31G*
  Basis Set:
  Basis Set: 6-31G*
  Basis Set:
  @DF-RHF Final Energy:  -266.81749321232496
    Total Energy =                       -266.8174932123249050
  Basis Set: 6-31G*
  Basis Set:
  Charge       = 0
  Multiplicity = 1
  Basis Set: 6-31G*
  Basis Set:

    Orbital Energies (a.u.)
    -----------------------

    Doubly Occupied:

       1A    -20.600673     2A    -20.564057     3A    -11.379847
       4A    -11.296310     5A    -11.227444     6A     -1.468866
       7A     -1.375622     8A     -1.050928     9A     -0.896593
      10A     -0.813017    11A     -0.739295    12A     -0.686294
      13A     -0.665344    14A     -0.617337    15A     -0.563590
      16A     -0.548746    17A     -0.528345    18A     -0.508981
      19A     -0.462944    20A     -0.449375

  @DF-RHF Final Energy:  -266.81749379682981

   => Energetics <=

    Nuclear Repulsion Energy =            178.0410827420585917
    One-Electron Energy =                -716.8299411907785270
    Two-Electron Energy =                 271.9713646518902124
    DFT Exchange-Correlation Energy =       0.0000000000000000
    Empirical Dispersion Energy =           0.0000000000000000
    PCM Polarization Energy =               0.0000000000000000
    EFP Energy =                            0.0000000000000000
    Total Energy =                       -266.8174937968296945
    Molecular point group: c1
  Basis Set: 6-31G*
  Basis Set:

  -Total Gradient:
     Atom            X                  Y                   Z
    ------   -----------------  -----------------  -----------------
       1       -0.000004743685    -0.000009259185     0.000005934946
       2       -0.000715784172     0.002060109440     0.018144698914
       3        0.001703665092    -0.008119932006    -0.013292647876
       4        0.000125798251     0.000512374834    -0.010214007492
       5       -0.001115451243     0.005560397368     0.005340004826
       6       -0.000004544279    -0.000006845356     0.000017099000
       7        0.000008326040     0.000009768234     0.000004641004
       8        0.000005817813     0.000000371605    -0.000003638017
       9       -0.000006297907    -0.000003590677    -0.000000866598
      10        0.000008948082     0.000001643857    -0.000002477224
      11       -0.000005733986    -0.000005038113     0.000001258518

  **** Optimization is complete! (in 6 steps) ****
    Final optimized geometry and variables:
    Molecular point group: c1

    Geometry (in Angstrom), charge = 0, multiplicity = 1:

    H           -1.859059419291     1.205356353649    -0.400564967391
    C           -1.291911743985     0.281196225244    -0.338959449584
    O            0.014565553330     0.524105673799    -0.307416582335
    O           -1.789979381893    -0.787598612127    -0.402248736804
    C            0.808179781410    -0.199734663721     0.633241563097
    C            2.252331787999     0.195766295833     0.415836910264
    H            0.659671216354    -1.260122274756     0.485900470475
    H            0.477200327874     0.059805380331     1.632294950060
    H            2.569367649443    -0.062101442472    -0.587815274280
    H            2.888972264885    -0.324756861734     1.123802375930
    H            2.382538674761     1.262738384490     0.554020490224

  Mulliken Charges: (a.u.)
   Center  Symbol    Alpha    Beta     Spin     Total
       1     H     0.41704  0.41704  0.00000  0.16591
       2     C     2.72704  2.72704  0.00000  0.54592
       3     O     4.30028  4.30028  0.00000 -0.60056
       4     O     4.24626  4.24626  0.00000 -0.49253
       5     C     3.00609  3.00609  0.00000 -0.01218
       6     C     3.24863  3.24863  0.00000 -0.49725
       7     H     0.40346  0.40346  0.00000  0.19309
       8     H     0.41726  0.41726  0.00000  0.16548
       9     H     0.40788  0.40788  0.00000  0.18423
      10     H     0.41565  0.41565  0.00000  0.16871
      11     H     0.41041  0.41041  0.00000  0.17918

   Total alpha = 20.00000, Total beta = 20.00000, Total charge = -0.00000
