                              Psi4 1.0.54 Driver

  ==> Input File <==

--------------------------------------------------------------------------
set {
	reference rhf
	basis cc-pvtz
}

set_num_threads( 4 )
memory 2 gb

molecule MOL {
0 1

H	 -1.835082	 1.385983	 0.000069
C	 -1.300516	 0.441153	 -0.000028
O	 -0.006604	 0.654344	 -0.000106
O	 -1.828920	 -0.612308	 0.000113
C	 0.852093	 -0.482521	 -0.000161
C	 0.761733	 -1.128548	 -1.362213
H	 0.538052	 -1.157425	 0.783318
H	 1.859140	 -0.159585	 0.222399
H	 -0.252395	 -1.443251	 -1.573106
H	 1.405349	 -1.999462	 -1.395690
H	 1.075310	 -0.440383	 -2.136854

	symmetry c1
}
set optking {
	frozen_dihedral = ("
		7 5 3 2
	")
}

ee,wfn = optimize('scf', return_wfn=True)
oeprop( wfn, 'DIPOLE', 'QUADRUPOLE', 'MULLIKEN_CHARGES')
f=open( 'psi4out.xyz', 'w' )
f.write( "11  " )
f.write( str(ee) + "\n" )
f.write( MOL.save_string_xyz() )
f.close()
--------------------------------------------------------------------------

    Molecular point group: c1
  Charge       = 0
  Multiplicity = 1
  Basis Set: CC-PVTZ
  Basis Set:
  @DF-RHF Final Energy:  -266.92753497256501
    Total Energy =                       -266.9275349725651267
    Molecular point group: c1
  Basis Set: CC-PVTZ
  Basis Set:
  Basis Set: CC-PVTZ
  Basis Set:
  @DF-RHF Final Energy:  -266.93005912226135
    Total Energy =                       -266.9300591222613548
  Basis Set: CC-PVTZ
  Basis Set:
  Basis Set: CC-PVTZ
  Basis Set:
  @DF-RHF Final Energy:  -266.92876000947132
    Total Energy =                       -266.9287600094714321
  Basis Set: CC-PVTZ
  Basis Set:
  Basis Set: CC-PVTZ
  Basis Set:
  @DF-RHF Final Energy:  -266.93034654305620
    Total Energy =                       -266.9303465430562028
  Basis Set: CC-PVTZ
  Basis Set:
  Basis Set: CC-PVTZ
  Basis Set:
  @DF-RHF Final Energy:  -266.93048083864920
    Total Energy =                       -266.9304808386492596
  Basis Set: CC-PVTZ
  Basis Set:
  Basis Set: CC-PVTZ
  Basis Set:
  @DF-RHF Final Energy:  -266.93048290705258
    Total Energy =                       -266.9304829070525784
  Basis Set: CC-PVTZ
  Basis Set:
  Charge       = 0
  Multiplicity = 1
  Basis Set: CC-PVTZ
  Basis Set:

    Orbital Energies (a.u.)
    -----------------------

    Doubly Occupied:

       1A    -20.605174     2A    -20.545514     3A    -11.370796
       4A    -11.290702     5A    -11.220799     6A     -1.478488
       7A     -1.377370     8A     -1.049169     9A     -0.914295
      10A     -0.796431    11A     -0.745932    12A     -0.687766
      13A     -0.657666    14A     -0.625895    15A     -0.577596
      16A     -0.543259    17A     -0.536881    18A     -0.501965
      19A     -0.462877    20A     -0.455779

  @DF-RHF Final Energy:  -266.93048324620224

   => Energetics <=

    Nuclear Repulsion Energy =            182.8237496898798895
    One-Electron Energy =                -726.6197539160436918
    Two-Electron Energy =                 276.8655209799616728
    DFT Exchange-Correlation Energy =       0.0000000000000000
    Empirical Dispersion Energy =           0.0000000000000000
    PCM Polarization Energy =               0.0000000000000000
    EFP Energy =                            0.0000000000000000
    Total Energy =                       -266.9304832462021864
    Molecular point group: c1
  Basis Set: CC-PVTZ
  Basis Set:

  -Total Gradient:
     Atom            X                  Y                   Z
    ------   -----------------  -----------------  -----------------
       1       -0.000025129167     0.000004277271     0.000011048720
       2       -0.000091315165    -0.000059687450    -0.001863659289
       3        0.000536983421     0.000377926722     0.002951323317
       4       -0.000005217419    -0.000004449540     0.000003358833
       5       -0.001794609997    -0.001321175619    -0.002266434891
       6       -0.000000988970    -0.000007553709     0.000008293100
       7        0.001397555193     0.001001587599     0.001152396309
       8       -0.000020858567     0.000008446628    -0.000001231455
       9        0.000007974302     0.000005273528     0.000007046082
      10       -0.000002656073    -0.000004560565    -0.000010175172
      11       -0.000001737559    -0.000000084864     0.000008034444

  **** Optimization is complete! (in 7 steps) ****
    Final optimized geometry and variables:
    Molecular point group: c1

    Geometry (in Angstrom), charge = 0, multiplicity = 1:

    H           -1.489021676951     1.677340498939     0.320935579270
    C           -0.983908261584     0.716485672503     0.338306908337
    O            0.308723121084     0.887543171722     0.200133611482
    O           -1.541579036848    -0.313290897349     0.474003214214
    C            1.154276515006    -0.260839624322     0.160234168514
    C            1.072625241659    -0.999014729078    -1.159447958189
    H            0.916931857809    -0.901149813135     0.997034308091
    H            2.145157656722     0.139753842658     0.310327084432
    H            0.092532095520    -1.426120519115    -1.312548907274
    H            1.800560515384    -1.802249426740    -1.163556837586
    H            1.300046995324    -0.331577105984    -1.981926847817

  Mulliken Charges: (a.u.)
   Center  Symbol    Alpha    Beta     Spin     Total
       1     H     0.44577  0.44577  0.00000  0.10846
       2     C     2.84236  2.84236  0.00000  0.31529
       3     O     4.14868  4.14868  0.00000 -0.29737
       4     O     4.19746  4.19746  0.00000 -0.39493
       5     C     2.98082  2.98082  0.00000  0.03836
       6     C     3.14906  3.14906  0.00000 -0.29811
       7     H     0.45043  0.45043  0.00000  0.09914
       8     H     0.44389  0.44389  0.00000  0.11222
       9     H     0.43915  0.43915  0.00000  0.12171
      10     H     0.45066  0.45066  0.00000  0.09867
      11     H     0.45172  0.45172  0.00000  0.09656

   Total alpha = 20.00000, Total beta = 20.00000, Total charge = -0.00000

*** Psi4 exiting successfully. Buy a developer a beer!
