                              Psi4 1.0.54 Driver

  ==> Input File <==

--------------------------------------------------------------------------
set {
	reference rhf
	basis cc-pvtz
}

set_num_threads( 4 )
memory 2 gb

molecule MOL {
0 1

O	 -2.081319	 -0.951530	 -0.502732
N	 -1.613558	 0.006676	 0.014756
C	 -0.329345	 -0.171618	 0.743966
O	 -2.068523	 1.100482	 -0.024385
C	 0.835904	 0.041968	 -0.213982
H	 -0.346048	 -1.174374	 1.137184
H	 -0.333613	 0.555559	 1.538590
C	 0.683527	 -0.807302	 -1.473224
H	 0.886012	 1.091728	 -0.478655
H	 1.759577	 -0.210538	 0.293763
C	 1.841504	 -0.617586	 -2.446659
H	 -0.249731	 -0.555026	 -1.968021
H	 0.612589	 -1.854847	 -1.195692
H	 1.916512	 0.415236	 -2.768140
H	 2.785503	 -0.892111	 -1.989255
H	 1.709618	 -1.231185	 -3.329419

	symmetry c1
}
set optking {
	frozen_dihedral = ("
		9 5 3 2
	")
}

ee,wfn = optimize('scf', return_wfn=True)
oeprop( wfn, 'DIPOLE', 'QUADRUPOLE', 'MULLIKEN_CHARGES')
f=open( 'psi4out.xyz', 'w' )
f.write( "16  " )
f.write( str(ee) + "\n" )
f.write( MOL.save_string_xyz() )
f.close()
--------------------------------------------------------------------------

    Molecular point group: c1
  Charge       = 0
  Multiplicity = 1
  Basis Set: CC-PVTZ
  Basis Set:
  @DF-RHF Final Energy:  -360.90515373652374
    Total Energy =                       -360.9051537365236868
    Molecular point group: c1
  Basis Set: CC-PVTZ
  Basis Set:
  Basis Set: CC-PVTZ
  Basis Set:
  @DF-RHF Final Energy:  -360.90670154252518
    Total Energy =                       -360.9067015425251839
  Basis Set: CC-PVTZ
  Basis Set:
  Basis Set: CC-PVTZ
  Basis Set:
  @DF-RHF Final Energy:  -360.90773738324691
    Total Energy =                       -360.9077373832467970
  Basis Set: CC-PVTZ
  Basis Set:
  Basis Set: CC-PVTZ
  Basis Set:
  @DF-RHF Final Energy:  -360.90826816462209
    Total Energy =                       -360.9082681646217452
  Basis Set: CC-PVTZ
  Basis Set:
  @DF-RHF Final Energy:  -360.90852379005213
    Total Energy =                       -360.9085237900520724
  @DF-RHF Final Energy:  -360.90873067632708
    Total Energy =                       -360.9087306763266838
  @DF-RHF Final Energy:  -360.90879847594408
    Total Energy =                       -360.9087984759439109
  @DF-RHF Final Energy:  -360.90881153284414
    Total Energy =                       -360.9088115328441404
  @DF-RHF Final Energy:  -360.90882254153144
    Total Energy =                       -360.9088225415316060
  Basis Set: CC-PVTZ
  Basis Set:
  @DF-RHF Final Energy:  -360.90885105776380
    Total Energy =                       -360.9088510577640818
  Basis Set: CC-PVTZ
  Basis Set:
  Basis Set: CC-PVTZ
  Basis Set:
  @DF-RHF Final Energy:  -360.90890026445982
    Total Energy =                       -360.9089002644598168
  Basis Set: CC-PVTZ
  Basis Set:
  Basis Set: CC-PVTZ
  Basis Set:
  @DF-RHF Final Energy:  -360.90890722632952
    Total Energy =                       -360.9089072263300295
  Basis Set: CC-PVTZ
  Basis Set:
  Charge       = 0
  Multiplicity = 1
  Basis Set: CC-PVTZ
  Basis Set:

    Orbital Energies (a.u.)
    -----------------------

    Doubly Occupied:

       1A    -20.592596     2A    -20.588225     3A    -15.836355
       4A    -11.296862     5A    -11.249130     6A    -11.234071
       7A    -11.221425     8A     -1.635906     9A     -1.420107
      10A     -1.134734    11A     -1.054515    12A     -0.947921
      13A     -0.855382    14A     -0.815082    15A     -0.757161
      16A     -0.740003    17A     -0.729634    18A     -0.662435
      19A     -0.621010    20A     -0.602304    21A     -0.573994
      22A     -0.544691    23A     -0.507927    24A     -0.493897
      25A     -0.490953    26A     -0.485909    27A     -0.472927
      28A     -0.453860

  @DF-RHF Final Energy:  -360.90890746332758

   => Energetics <=

    Nuclear Repulsion Energy =            320.9866737054572354
    One-Electron Energy =               -1127.7531317529128501
    Two-Electron Energy =                 445.8575505841283757
    DFT Exchange-Correlation Energy =       0.0000000000000000
    Empirical Dispersion Energy =           0.0000000000000000
    PCM Polarization Energy =               0.0000000000000000
    EFP Energy =                            0.0000000000000000
    Total Energy =                       -360.9089074633272958
    Molecular point group: c1
  Basis Set: CC-PVTZ
  Basis Set:

  -Total Gradient:
     Atom            X                  Y                   Z
    ------   -----------------  -----------------  -----------------
       1        0.000047943266     0.000067708435     0.000003817516
       2       -0.000219812777    -0.001761900775    -0.000553646367
       3        0.000671446443     0.002229888857     0.001147183081
       4       -0.000013066866     0.000072070230    -0.000009637247
       5       -0.002157526942    -0.000681320378    -0.002178804171
       6        0.000000467225    -0.000002416152     0.000002209993
       7       -0.000011787311    -0.000001261973     0.000003727067
       8        0.000001733949    -0.000014351949    -0.000007985408
       9        0.001699083922     0.000096637755     0.001606225389
      10       -0.000018809611    -0.000004292761     0.000011268828
      11       -0.000004160409     0.000000270153    -0.000014399601
      12       -0.000005044247    -0.000002150034    -0.000005318315
      13        0.000008310534     0.000001304140     0.000000445121
      14       -0.000000071327     0.000000637133     0.000001990597
      15       -0.000002818761    -0.000003395688     0.000001029018
      16        0.000004112907     0.000002573002    -0.000008105501

  **** Optimization is complete! (in 13 steps) ****
    Final optimized geometry and variables:
    Molecular point group: c1

    Geometry (in Angstrom), charge = 0, multiplicity = 1:

    O           -1.913645040670    -0.677012852847     0.722876089116
    N           -1.127756408587     0.207183370108     0.772159637214
    C            0.252299825992    -0.116299633584     1.233586340692
    O           -1.345221858573     1.336236297403     0.480309754749
    C            1.276924117264     0.139832948793     0.136275415987
    H            0.221342121674    -1.149844224290     1.532544569851
    H            0.425777858608     0.518240246001     2.088700252209
    C            0.998098404612    -0.587129161318    -1.176342991444
    H            1.368789680040     1.206386120965    -0.024110563153
    H            2.229626108516    -0.191516671563     0.538482236725
    C            2.097320426539    -0.354589286997    -2.207056585917
    H            0.050094513582    -0.255078558171    -1.585039530026
    H            0.896306135307    -1.651177675490    -0.985231133740
    H            2.199248081010     0.700085215184    -2.437715298359
    H            3.056584472515    -0.709975871098    -1.846090586102
    H            1.877426941277    -0.875478267544    -3.130779003512

  Mulliken Charges: (a.u.)
   Center  Symbol    Alpha    Beta     Spin     Total
       1     O     4.16906  4.16906  0.00000 -0.33812
       2     N     3.28007  3.28007  0.00000  0.43987
       3     C     3.05125  3.05125  0.00000 -0.10250
       4     O     4.17467  4.17467  0.00000 -0.34934
       5     C     3.10368  3.10368  0.00000 -0.20735
       6     H     0.43062  0.43062  0.00000  0.13877
       7     H     0.42695  0.42695  0.00000  0.14609
       8     C     3.08841  3.08841  0.00000 -0.17682
       9     H     0.43838  0.43838  0.00000  0.12325
      10     H     0.44530  0.44530  0.00000  0.10940
      11     C     3.14978  3.14978  0.00000 -0.29957
      12     H     0.44182  0.44182  0.00000  0.11636
      13     H     0.44888  0.44888  0.00000  0.10225
      14     H     0.45166  0.45166  0.00000  0.09668
      15     H     0.45513  0.45513  0.00000  0.08974
      16     H     0.44435  0.44435  0.00000  0.11130

   Total alpha = 28.00000, Total beta = 28.00000, Total charge =  0.00000

*** Psi4 exiting successfully. Buy a developer a beer!
