                              Psi4 1.0.54 Driver

  ==> Input File <==

--------------------------------------------------------------------------
set {
	reference rhf
	basis cc-pvtz
}

set_num_threads( 4 )
memory 2 gb

molecule MOL {
0 1

H	 -3.443304	 -0.176636	 -0.003088
O	 -2.658848	 -0.704215	 -0.000460
C	 -1.605397	 0.107680	 0.001145
C	 -0.310616	 -0.658853	 0.000791
O	 -1.718351	 1.284629	 -0.000627
C	 0.926581	 0.227233	 0.000178
H	 -0.327628	 -1.313681	 -0.864448
H	 -0.327041	 -1.313334	 0.866298
C	 2.220156	 -0.582071	 -0.000088
H	 0.899945	 0.878221	 -0.866390
H	 0.900542	 0.878581	 0.866486
C	 3.466689	 0.296012	 -0.000457
H	 2.239073	 -1.234095	 -0.869382
H	 2.239505	 -1.233985	 0.869270
H	 3.493549	 0.935857	 -0.875887
H	 4.368821	 -0.304526	 -0.001199
H	 3.494559	 0.935166	 0.875458

	symmetry c1
}
set optking {
	frozen_dihedral = ("
		1 2 3 5
	")
}

ee,wfn = optimize('scf', return_wfn=True)
oeprop( wfn, 'DIPOLE', 'QUADRUPOLE', 'MULLIKEN_CHARGES')
f=open( 'psi4out.xyz', 'w' )
f.write( "17  " )
f.write( str(ee) + "\n" )
f.write( MOL.save_string_xyz() )
f.close()
--------------------------------------------------------------------------

    Molecular point group: c1
  Charge       = 0
  Multiplicity = 1
  Basis Set: CC-PVTZ
  Basis Set:
  @DF-RHF Final Energy:  -345.04893052410432
    Total Energy =                       -345.0489305241047191
    Molecular point group: c1
  Basis Set: CC-PVTZ
  Basis Set:
  Basis Set: CC-PVTZ
  Basis Set:
  @DF-RHF Final Energy:  -345.04890569614423
    Total Energy =                       -345.0489056961441747
  Basis Set: CC-PVTZ
  Basis Set:
  Charge       = 0
  Multiplicity = 1
  Basis Set: CC-PVTZ
  Basis Set:

    Orbital Energies (a.u.)
    -----------------------

    Doubly Occupied:

       1A    -20.604162     2A    -20.540739     3A    -11.373720
       4A    -11.239403     5A    -11.221328     6A    -11.220690
       7A    -11.210706     8A     -1.477700     9A     -1.369232
      10A     -1.092938    11A     -1.019878    12A     -0.914935
      13A     -0.824975    14A     -0.791054    15A     -0.703953
      16A     -0.688123    17A     -0.672265    18A     -0.631401
      19A     -0.593377    20A     -0.585372    21A     -0.574717
      22A     -0.538682    23A     -0.509247    24A     -0.484766
      25A     -0.483028    26A     -0.478478    27A     -0.472650
      28A     -0.446345

  @DF-RHF Final Energy:  -345.04893130931771

   => Energetics <=

    Nuclear Repulsion Energy =            304.7956471135206584
    One-Electron Energy =               -1074.1614321068452682
    Two-Electron Energy =                 424.3168536840070715
    DFT Exchange-Correlation Energy =       0.0000000000000000
    Empirical Dispersion Energy =           0.0000000000000000
    PCM Polarization Energy =               0.0000000000000000
    EFP Energy =                            0.0000000000000000
    Total Energy =                       -345.0489313093175383
    Molecular point group: c1
  Basis Set: CC-PVTZ
  Basis Set:

  -Total Gradient:
     Atom            X                  Y                   Z
    ------   -----------------  -----------------  -----------------
       1       -0.000095194455     0.000057728814     0.000000356737
       2        0.000068744389    -0.000077556836     0.000000288796
       3        0.000030511439    -0.000035271330    -0.000001832673
       4        0.000003193811     0.000000943743     0.000002077035
       5        0.000000205699     0.000053481406     0.000000426777
       6       -0.000002027664     0.000000010898     0.000001777618
       7       -0.000000681518    -0.000001199914    -0.000002281562
       8       -0.000001176826    -0.000000695871     0.000001167190
       9       -0.000001183469     0.000002549946    -0.000003472658
      10        0.000001444850     0.000000771853    -0.000001452747
      11        0.000000103432     0.000001961473     0.000002209491
      12       -0.000004343175    -0.000001047419     0.000001123644
      13       -0.000000100366    -0.000000366048    -0.000002078963
      14        0.000000951010    -0.000000138467     0.000001392468
      15       -0.000000384723    -0.000000471572    -0.000001635976
      16        0.000000765263    -0.000001870141     0.000001207841
      17       -0.000000827701     0.000001169474     0.000000726980

  **** Optimization is complete! (in 3 steps) ****
    Final optimized geometry and variables:
    Molecular point group: c1

    Geometry (in Angstrom), charge = 0, multiplicity = 1:

    H           -3.443172098962    -0.176266587116     0.000049059487
    O           -2.658844131438    -0.704238298459     0.000154286002
    C           -1.605301375974     0.107652450436    -0.000066180814
    C           -0.310605895249    -0.658929945188     0.000087147356
    O           -1.718213472078     1.284629267809    -0.000344336956
    C            0.926533054542     0.227207105660     0.000017384805
    H           -0.327408753365    -1.313597729545    -0.865253308907
    H           -0.327474761224    -1.313387313225     0.865581032824
    C            2.220106099159    -0.582051204075     0.000118701206
    H            0.900189105562     0.878251046696    -0.866507360384
    H            0.900155684275     0.878431799279     0.866407929166
    C            3.466559021147     0.296094631485     0.000036250008
    H            2.239274571847    -1.234074268630    -0.869157362385
    H            2.239258849073    -1.233868229512     0.869549211066
    H            3.493980356011     0.935315169263    -0.875837437790
    H            4.368724720703    -0.304402436737     0.000361466540
    H            3.493714779383     0.935859211786     0.875521396449

  Mulliken Charges: (a.u.)
   Center  Symbol    Alpha    Beta     Spin     Total
       1     H     0.38241  0.38241  0.00000  0.23517
       2     O     4.15977  4.15977  0.00000 -0.31955
       3     C     2.80469  2.80469  0.00000  0.39062
       4     C     3.11091  3.11091  0.00000 -0.22182
       5     O     4.19114  4.19114  0.00000 -0.38228
       6     C     3.08199  3.08199  0.00000 -0.16398
       7     H     0.43816  0.43816  0.00000  0.12368
       8     H     0.43816  0.43816  0.00000  0.12369
       9     C     3.08604  3.08604  0.00000 -0.17208
      10     H     0.44624  0.44624  0.00000  0.10752
      11     H     0.44624  0.44624  0.00000  0.10752
      12     C     3.14924  3.14924  0.00000 -0.29848
      13     H     0.45484  0.45484  0.00000  0.09032
      14     H     0.45484  0.45484  0.00000  0.09032
      15     H     0.45366  0.45366  0.00000  0.09269
      16     H     0.44801  0.44801  0.00000  0.10398
      17     H     0.45366  0.45366  0.00000  0.09268

   Total alpha = 28.00000, Total beta = 28.00000, Total charge =  0.00000

*** Psi4 exiting successfully. Buy a developer a beer!
