  ==> Input File <==

--------------------------------------------------------------------------
set {
	reference rhf
	basis cc-pvtz
}

set_num_threads( 4 )
memory 2 gb

molecule MOL {
0 1

O	 0.074770	 1.259872	 0.000487
C	 0.029490	 0.077183	 0.000078
C	 -1.232113	 -0.748027	 0.000015
O	 1.106773	 -0.690081	 -0.000204
C	 -2.501422	 0.088592	 -0.000052
H	 -1.188777	 -1.400384	 -0.865133
H	 -1.188857	 -1.400312	 0.865225
H	 -2.548170	 0.725504	 -0.873205
H	 -3.371613	 -0.556398	 -0.000040
H	 -2.548215	 0.725571	 0.873047
C	 1.271215	 -1.578137	 1.086975
H	 1.331578	 -1.034043	 2.017864
H	 2.193131	 -2.105706	 0.903761
H	 0.447163	 -2.274220	 1.138465

	symmetry c1
}
set optking {
	frozen_dihedral = ("
		11 4 2 3
	")
}

ee = optimize('scf')
oeprop('DIPOLE', 'QUADRUPOLE', 'MULLIKEN_CHARGES')
f=open( 'psi4out.xyz', 'w' )
f.write( "14  " )
f.write( str(ee) + "\n" )
f.write( MOL.save_string_xyz() )
f.close()
--------------------------------------------------------------------------

    Molecular point group: c1
  Charge       = 0
  Multiplicity = 1
  Basis Set: CC-PVTZ
  Basis Set:
  @DF-RHF Final Energy:  -305.96347135570102
    Total Energy =                       -305.9634713557012446
    Molecular point group: c1
  Basis Set: CC-PVTZ
  Basis Set:
  Basis Set: CC-PVTZ
  Basis Set:
  @DF-RHF Final Energy:  -305.96576909634132
    Total Energy =                       -305.9657690963414325
  Basis Set: CC-PVTZ
  Basis Set:
  Basis Set: CC-PVTZ
  Basis Set:
  @DF-RHF Final Energy:  -305.96808844822135
    Total Energy =                       -305.9680884482213514
  Basis Set: CC-PVTZ
  Basis Set:
  Basis Set: CC-PVTZ
  Basis Set:
  @DF-RHF Final Energy:  -305.96814819121585
    Total Energy =                       -305.9681481912155050
  Basis Set: CC-PVTZ
  Basis Set:
  Basis Set: CC-PVTZ
  Basis Set:
  @DF-RHF Final Energy:  -305.96827657360672
    Total Energy =                       -305.9682765736067722
  Basis Set: CC-PVTZ
  Basis Set:
  Basis Set: CC-PVTZ
  Basis Set:
  @DF-RHF Final Energy:  -305.96841371611822
    Total Energy =                       -305.9684137161182775
  Basis Set: CC-PVTZ
  Basis Set:
  Basis Set: CC-PVTZ
  Basis Set:
  @DF-RHF Final Energy:  -305.96841535571610
    Total Energy =                       -305.9684153557159334
  Basis Set: CC-PVTZ
  Basis Set:
  Charge       = 0
  Multiplicity = 1
  Basis Set: CC-PVTZ
  Basis Set:

    Orbital Energies (a.u.)
    -----------------------

    Doubly Occupied:

       1A    -20.583943     2A    -20.541350     3A    -11.367740
       4A    -11.292564     5A    -11.244018     6A    -11.218770
       7A     -1.463087     8A     -1.371101     9A     -1.063483
      10A     -0.980586    11A     -0.897307    12A     -0.768381
      13A     -0.704123    14A     -0.682177    15A     -0.676673
      16A     -0.629325    17A     -0.612889    18A     -0.560222
      19A     -0.548159    20A     -0.525898    21A     -0.513291
      22A     -0.493330    23A     -0.459627    24A     -0.438997

  @DF-RHF Final Energy:  -305.96841580049829

   => Energetics <=

    Nuclear Repulsion Energy =            247.3389912151213821
    One-Electron Energy =                -907.3407281119850722
    Two-Electron Energy =                 354.0333210963658530
    DFT Exchange-Correlation Energy =       0.0000000000000000
    Empirical Dispersion Energy =           0.0000000000000000
    PCM Polarization Energy =               0.0000000000000000
    EFP Energy =                            0.0000000000000000
    Total Energy =                       -305.9684158004978372
    Molecular point group: c1
  Basis Set: CC-PVTZ
  Basis Set:

  -Total Gradient:
     Atom            X                  Y                   Z
    ------   -----------------  -----------------  -----------------
       1        0.000013518049    -0.000015597404    -0.000051152072
       2        0.000730345750     0.000950443524     0.004588633686
       3       -0.000055395939     0.000091756190    -0.002489362506
       4       -0.002062174143    -0.003008427011    -0.003457408323
       5        0.000011285403    -0.000011670313    -0.000011176159
       6        0.000008077721    -0.000005460983    -0.000012324202
       7        0.000005920716    -0.000005645520    -0.000026273337
       8       -0.000000038823    -0.000001411987     0.000005900010
       9       -0.000003135988     0.000002890101     0.000001288729
      10       -0.000005608095     0.000005685445     0.000002782146
      11        0.001348003394     0.001994565950     0.001447819379
      12       -0.000002130012    -0.000007514647     0.000011491916
      13        0.000005124761    -0.000004933183    -0.000001977563
      14        0.000006207204     0.000015319838    -0.000008241703

  **** Optimization is complete! (in 8 steps) ****
    Final optimized geometry and variables:
    Molecular point group: c1

    Geometry (in Angstrom), charge = 0, multiplicity = 1:

    O            0.253996384100     1.501058235175    -0.188146658072
    C            0.192420643979     0.327804452082    -0.135623557563
    C           -1.102987894612    -0.451746038533    -0.132354994090
    O            1.314463078628    -0.411404638551    -0.182887137673
    C           -2.335042483451     0.429561391638    -0.266857010362
    H           -1.040369308689    -1.170368085530    -0.942734595540
    H           -1.154346029899    -1.035028232087     0.781024755722
    H           -2.307986920429     0.996151572483    -1.187561139807
    H           -3.230298925741    -0.180253220201    -0.264898142085
    H           -2.398880236991     1.134959108264     0.550420373822
    C            1.583637097821    -1.338679409791     0.841329929304
    H            1.505615826470    -0.872719147992     1.816299974724
    H            2.598448033357    -1.669707719016     0.692310154483
    H            0.924051142424    -2.196163864404     0.794338285894

  Mulliken Charges: (a.u.)
   Center  Symbol    Alpha    Beta     Spin     Total
       1     O     4.16781  4.16781  0.00000 -0.33562
       2     C     2.79983  2.79983  0.00000  0.40034
       3     C     3.11515  3.11515  0.00000 -0.23030
       4     O     4.15078  4.15078  0.00000 -0.30157
       5     C     3.13871  3.13871  0.00000 -0.27742
       6     H     0.43677  0.43677  0.00000  0.12645
       7     H     0.44696  0.44696  0.00000  0.10609
       8     H     0.44571  0.44571  0.00000  0.10859
       9     H     0.45107  0.45107  0.00000  0.09785
      10     H     0.44717  0.44717  0.00000  0.10567
      11     C     3.04431  3.04431  0.00000 -0.08862
      12     H     0.45789  0.45789  0.00000  0.08421
      13     H     0.43678  0.43678  0.00000  0.12644
      14     H     0.46105  0.46105  0.00000  0.07790

   Total alpha = 24.00000, Total beta = 24.00000, Total charge = -0.00000
