  ==> Input File <==

--------------------------------------------------------------------------
set {
	reference rhf
	basis 6-31G*
}

set_num_threads( 4 )
memory 2 gb

molecule MOL {
0 1

H	 0.202921	 1.257068	 -1.099176
O	 0.055946	 1.300438	 -0.164479
C	 0.004957	 -0.004114	 0.366649
C	 1.201664	 -0.828089	 -0.095740
C	 -1.317755	 -0.601827	 -0.081511
H	 0.013527	 0.048298	 1.454924
H	 1.216388	 -0.895289	 -1.178704
H	 2.135132	 -0.372895	 0.226467
H	 1.166770	 -1.832878	 0.313827
H	 -1.355732	 -0.658248	 -1.164429
H	 -2.141614	 0.017037	 0.254547
H	 -1.447303	 -1.600817	 0.322594

	symmetry c1
}
set optking {
	frozen_dihedral = ("
		1 2 3 4
	")
}

ee = optimize('scf')
oeprop('DIPOLE', 'QUADRUPOLE', 'MULLIKEN_CHARGES')
f=open( 'psi4out.xyz', 'w' )
f.write( "12  " )
f.write( str(ee) + "\n" )
f.write( MOL.save_string_xyz() )
f.close()
--------------------------------------------------------------------------

    Molecular point group: c1
  Charge       = 0
  Multiplicity = 1
  Basis Set: 6-31G*
  Basis Set:
  @DF-RHF Final Energy:  -193.11275126664816
    Total Energy =                       -193.1127512666481039
    Molecular point group: c1
  Basis Set: 6-31G*
  Basis Set:
  Basis Set: 6-31G*
  Basis Set:
  @DF-RHF Final Energy:  -193.11431525612710
    Total Energy =                       -193.1143152561271279
  Basis Set: 6-31G*
  Basis Set:
  Basis Set: 6-31G*
  Basis Set:
  @DF-RHF Final Energy:  -193.11471985754531
    Total Energy =                       -193.1147198575453103
  Basis Set: 6-31G*
  Basis Set:
  Basis Set: 6-31G*
  Basis Set:
  @DF-RHF Final Energy:  -193.11472238318515
    Total Energy =                       -193.1147223831850397
  Basis Set: 6-31G*
  Basis Set:
  Charge       = 0
  Multiplicity = 1
  Basis Set: 6-31G*
  Basis Set:

    Orbital Energies (a.u.)
    -----------------------

    Doubly Occupied:

       1A    -20.550932     2A    -11.275610     3A    -11.215338
       4A    -11.210440     5A     -1.360454     6A     -1.041780
       7A     -0.941427     8A     -0.818715     9A     -0.661333
      10A     -0.643820    11A     -0.602051    12A     -0.574489
      13A     -0.545486    14A     -0.516190    15A     -0.510429
      16A     -0.465982    17A     -0.430049

  @DF-RHF Final Energy:  -193.11472272394556

   => Energetics <=

    Nuclear Repulsion Energy =            135.3702573382883259
    One-Electron Energy =                -530.2409106497459561
    Two-Electron Energy =                 201.7559305875121538
    DFT Exchange-Correlation Energy =       0.0000000000000000
    Empirical Dispersion Energy =           0.0000000000000000
    PCM Polarization Energy =               0.0000000000000000
    EFP Energy =                            0.0000000000000000
    Total Energy =                       -193.1147227239455049
    Molecular point group: c1
  Basis Set: 6-31G*
  Basis Set:

  -Total Gradient:
     Atom            X                  Y                   Z
    ------   -----------------  -----------------  -----------------
       1        0.001199113507    -0.000031616500     0.000265660579
       2       -0.001618208145    -0.000065059210    -0.000549491620
       3        0.000780422532     0.000258149033     0.000881652428
       4       -0.000370553843    -0.000160394584    -0.000613949990
       5       -0.000015459707     0.000038665945    -0.000015666947
       6        0.000010125322    -0.000023611196    -0.000002799063
       7       -0.000022538991     0.000012507913     0.000026851780
       8        0.000018276327    -0.000006987707    -0.000020117736
       9        0.000005924337    -0.000010252332     0.000008065638
      10        0.000008116921     0.000006420727     0.000017949421
      11        0.000003644340    -0.000004295525    -0.000008471392
      12        0.000001137400    -0.000013526562     0.000010316903

  **** Optimization is complete! (in 5 steps) ****
    Final optimized geometry and variables:
    Molecular point group: c1

    Geometry (in Angstrom), charge = 0, multiplicity = 1:

    H            0.285629903364     1.323741296287    -1.037238507294
    O            0.098934109795     1.330697496846    -0.107992688179
    C            0.002151817465     0.004580207364     0.359202608523
    C            1.201916948691    -0.822860685244    -0.088280286344
    C           -1.323008915180    -0.619484511329    -0.064882602924
    H            0.018434470290     0.091434334616     1.438980816470
    H            1.217256940220    -0.924448086787    -1.171815516727
    H            2.126461035280    -0.347595544094     0.220712865331
    H            1.170060502899    -1.821559691757     0.335346650487
    H           -1.376480090894    -0.710916523166    -1.147364941592
    H           -2.150014600285     0.000592298073     0.261576717417
    H           -1.445304299996    -1.611161607566     0.360444606458

  Mulliken Charges: (a.u.)
   Center  Symbol    Alpha    Beta     Spin     Total
       1     H     0.28473  0.28473  0.00000  0.43054
       2     O     4.37177  4.37177  0.00000 -0.74353
       3     C     2.91622  2.91622  0.00000  0.16756
       4     C     3.25235  3.25235  0.00000 -0.50469
       5     C     3.24362  3.24362  0.00000 -0.48723
       6     H     0.41579  0.41579  0.00000  0.16843
       7     H     0.42701  0.42701  0.00000  0.14599
       8     H     0.41037  0.41037  0.00000  0.17926
       9     H     0.41832  0.41832  0.00000  0.16337
      10     H     0.42702  0.42702  0.00000  0.14596
      11     H     0.41044  0.41044  0.00000  0.17911
      12     H     0.42238  0.42238  0.00000  0.15524

   Total alpha = 17.00000, Total beta = 17.00000, Total charge = -0.00000
