  ==> Input File <==

--------------------------------------------------------------------------
set {
	reference rhf
	basis 6-31G*
}

set_num_threads( 1 )
memory 2 gb

molecule MOL {
0 1

H	 -3.364762	 -2.627118	 1.915148
C	 -2.967265	 -1.801385	 1.357634
C	 -1.738789	 -1.853752	 0.897085
H	 -3.593889	 -0.945615	 1.190570
O	 -1.180634	 -0.819263	 0.215062
H	 -1.097584	 -2.704327	 1.047329
C	 0.051604	 -1.018856	 -0.387932
C	 1.043764	 0.054862	 -0.001873
H	 -0.017620	 -1.041351	 -1.469781
H	 0.437898	 -1.966374	 -0.042284
F	 2.212596	 -0.199467	 -0.571921
F	 0.652529	 1.252447	 -0.405055
F	 1.230877	 0.110694	 1.300533

	symmetry c1
}
set optking {
	frozen_dihedral = ("
		11 8 7 9,
		6 3 2 1,
		6 3 5 7
	")
}

ee = energy('scf')
oeprop('DIPOLE', 'QUADRUPOLE', 'MULLIKEN_CHARGES')
f=open( 'psi4out.xyz', 'w' )
f.write( "13  " )
f.write( str(ee) + "\n" )
f.write( MOL.save_string_xyz() )
f.close()
--------------------------------------------------------------------------

    Molecular point group: c1

    Geometry (in Angstrom), charge = 0, multiplicity = 1:

       Center              X                  Y                   Z               Mass
    ------------   -----------------  -----------------  -----------------  -----------------
           H         -3.427520581848    -2.184497696811     1.640389714925     1.007825032070
           C         -3.030023581848    -1.358764696811     1.082875714925    12.000000000000
           C         -1.801547581848    -1.411131696811     0.622326714925    12.000000000000
           H         -3.656647581848    -0.502994696811     0.915811714925     1.007825032070
           O         -1.243392581848    -0.376642696811    -0.059696285075    15.994914619560
           H         -1.160342581848    -2.261706696811     0.772570714925     1.007825032070
           C         -0.011154581848    -0.576235696811    -0.662690285075    12.000000000000
           C          0.981005418152     0.497482303189    -0.276631285075    12.000000000000
           H         -0.080378581848    -0.598730696811    -1.744539285075     1.007825032070
           H          0.375139418152    -1.523753696811    -0.317042285075     1.007825032070
           F          2.149837418152     0.243153303189    -0.846679285075    18.998403224000
           F          0.589770418152     1.695067303189    -0.679813285075    18.998403224000
           F          1.168118418152     0.553314303189     1.025774714925    18.998403224000

  Charge       = 0
  Multiplicity = 1
  Basis Set: 6-31G*
  Basis Set:

    Orbital Energies (a.u.)
    -----------------------

    Doubly Occupied:

       1A    -26.344789     2A    -26.341288     3A    -26.337538
       4A    -20.608022     5A    -11.504210     6A    -11.319274
       7A    -11.303299     8A    -11.218312     9A     -1.740098
      10A     -1.639452    11A     -1.634939    12A     -1.438457
      13A     -1.086178    14A     -1.016781    15A     -0.923753
      16A     -0.836717    17A     -0.829987    18A     -0.810840
      19A     -0.801640    20A     -0.722521    21A     -0.711124
      22A     -0.697949    23A     -0.677682    24A     -0.658250
      25A     -0.652990    26A     -0.641057    27A     -0.634639
      28A     -0.583977    29A     -0.559630    30A     -0.526386
      31A     -0.516291    32A     -0.353244

  @DF-RHF Final Energy:  -527.53283414004306

   => Energetics <=

    Nuclear Repulsion Energy =            407.1327137023008618
    One-Electron Energy =               -1537.9886529118716680
    Two-Electron Energy =                 603.3231050695283102
    DFT Exchange-Correlation Energy =       0.0000000000000000
    Empirical Dispersion Energy =           0.0000000000000000
    PCM Polarization Energy =               0.0000000000000000
    EFP Energy =                            0.0000000000000000
    Total Energy =                       -527.5328341400424961

  Mulliken Charges: (a.u.)
   Center  Symbol    Alpha    Beta     Spin     Total
       1     H     0.40690  0.40690  0.00000  0.18620
       2     C     3.23584  3.23584  0.00000 -0.47167
       3     C     2.89679  2.89679  0.00000  0.20642
       4     H     0.40059  0.40059  0.00000  0.19883
       5     O     4.30359  4.30359  0.00000 -0.60717
       6     H     0.40686  0.40686  0.00000  0.18627
       7     C     3.04934  3.04934  0.00000 -0.09867
       8     C     2.45445  2.45445  0.00000  1.09110
       9     H     0.39888  0.39888  0.00000  0.20224
      10     H     0.41014  0.41014  0.00000  0.17972
      11     F     4.68283  4.68283  0.00000 -0.36565
      12     F     4.67778  4.67778  0.00000 -0.35557
      13     F     4.67602  4.67602  0.00000 -0.35204

   Total alpha = 32.00000, Total beta = 32.00000, Total charge = -0.00000
