  ==> Input File <==

--------------------------------------------------------------------------
set {
	reference rhf
	basis 6-31G*
}

set_num_threads( 1 )
memory 2 gb

molecule MOL {
0 1

O	 3.225979	 0.970355	 -0.599647
C	 2.701189	 0.057885	 -0.047330
C	 1.245376	 -0.013843	 0.345420
O	 3.347903	 -1.046386	 0.304773
C	 0.455112	 1.231400	 -0.050772
H	 0.838542	 -0.913825	 -0.103701
H	 1.208210	 -0.175333	 1.419774
C	 -0.998893	 1.219485	 0.433193
H	 0.482531	 1.345121	 -1.130325
H	 0.957290	 2.103070	 0.354729
C	 -1.883438	 0.145884	 -0.207175
H	 -1.431207	 2.195402	 0.224832
H	 -1.019646	 1.105716	 1.516076
C	 -3.347647	 0.245583	 0.225435
H	 -1.822183	 0.231698	 -1.291012
H	 -1.510341	 -0.844814	 0.042401
C	 -3.846796	 -0.996438	 0.965953
H	 -3.970948	 0.415131	 -0.650913
H	 -3.476059	 1.118818	 0.863141
C	 -5.310927	 -0.890373	 1.391126
H	 -3.718275	 -1.870126	 0.330505
H	 -3.227710	 -1.165046	 1.844636
H	 -5.635158	 -1.785275	 1.913267
H	 -5.960280	 -0.756081	 0.530602
H	 -5.465939	 -0.045190	 2.055891
C	 4.728119	 -1.109107	 -0.004993
H	 4.882018	 -1.033965	 -1.071845
H	 5.068212	 -2.067527	 0.355250
H	 5.265056	 -0.311663	 0.488280

	symmetry c1
}
set optking {
	frozen_dihedral = ("
		21 17 14 11,
		15 11 8 5,
		6 3 5 9,
		11 8 5 9,
		2 4 26 27,
		1 2 4 26,
		6 3 2 1
	")
}

ee = energy('scf')
oeprop('DIPOLE', 'QUADRUPOLE', 'MULLIKEN_CHARGES')
f=open( 'psi4out.xyz', 'w' )
f.write( "29  " )
f.write( str(ee) + "\n" )
f.write( MOL.save_string_xyz() )
f.close()
--------------------------------------------------------------------------

    Molecular point group: c1

    Geometry (in Angstrom), charge = 0, multiplicity = 1:

       Center              X                  Y                   Z               Mass
    ------------   -----------------  -----------------  -----------------  -----------------
           O          3.154058165839     1.001996476021    -0.850360995003    15.994914619560
           C          2.629268165839     0.089526476021    -0.298043995003    12.000000000000
           C          1.173455165839     0.017798476021     0.094706004997    12.000000000000
           O          3.275982165839    -1.014744523979     0.054059004997    15.994914619560
           C          0.383191165839     1.263041476021    -0.301485995003    12.000000000000
           H          0.766621165839    -0.882183523979    -0.354414995003     1.007825032070
           H          1.136289165839    -0.143691523979     1.169060004997     1.007825032070
           C         -1.070813834161     1.251126476021     0.182479004997    12.000000000000
           H          0.410610165839     1.376762476021    -1.381038995003     1.007825032070
           H          0.885369165839     2.134711476021     0.104015004997     1.007825032070
           C         -1.955358834161     0.177525476021    -0.457888995003    12.000000000000
           H         -1.503127834161     2.227043476021    -0.025881995003     1.007825032070
           H         -1.091566834161     1.137357476021     1.265362004997     1.007825032070
           C         -3.419567834161     0.277224476021    -0.025278995003    12.000000000000
           H         -1.894103834161     0.263339476021    -1.541725995003     1.007825032070
           H         -1.582261834161    -0.813172523979    -0.208312995003     1.007825032070
           C         -3.918716834161    -0.964796523979     0.715239004997    12.000000000000
           H         -4.042868834161     0.446772476021    -0.901626995003     1.007825032070
           H         -3.547979834161     1.150459476021     0.612427004997     1.007825032070
           C         -5.382847834161    -0.858731523979     1.140412004997    12.000000000000
           H         -3.790195834161    -1.838484523979     0.079791004997     1.007825032070
           H         -3.299630834161    -1.133404523979     1.593922004997     1.007825032070
           H         -5.707078834161    -1.753633523979     1.662553004997     1.007825032070
           H         -6.032200834161    -0.724439523979     0.279888004997     1.007825032070
           H         -5.537859834161    -0.013548523979     1.805177004997     1.007825032070
           C          4.656198165839    -1.077465523979    -0.255706995003    12.000000000000
           H          4.810097165839    -1.002323523979    -1.322558995003     1.007825032070
           H          4.996291165839    -2.035885523979     0.104536004997     1.007825032070
           H          5.193135165839    -0.280021523979     0.237566004997     1.007825032070

  Charge       = 0
  Multiplicity = 1
  Basis Set: 6-31G*
  Basis Set:

    Orbital Energies (a.u.)
    -----------------------

    Doubly Occupied:

       1A    -20.603276     2A    -20.545136     3A    -11.371895
       4A    -11.280598     5A    -11.234637     6A    -11.218689
       7A    -11.217907     8A    -11.216420     9A    -11.214345
      10A    -11.212811    11A    -11.208750    12A     -1.468983
      13A     -1.362429    14A     -1.098285    15A     -1.066627
      16A     -1.018987    17A     -0.977086    18A     -0.928448
      19A     -0.861169    20A     -0.804022    21A     -0.788310
      22A     -0.763850    23A     -0.700299    24A     -0.682219
      25A     -0.671924    26A     -0.637914    27A     -0.632873
      28A     -0.611411    29A     -0.595286    30A     -0.580364
      31A     -0.563673    32A     -0.555561    33A     -0.537627
      34A     -0.525723    35A     -0.516751    36A     -0.509041
      37A     -0.495517    38A     -0.477726    39A     -0.474798
      40A     -0.460637    41A     -0.456226    42A     -0.450593
      43A     -0.441567    44A     -0.435138

  @DF-RHF Final Energy:  -501.03840964424182

   => Energetics <=

    Nuclear Repulsion Energy =            613.1945361626102340
    One-Electron Energy =               -1897.5150895446106460
    Two-Electron Energy =                 783.2821437377564280
    DFT Exchange-Correlation Energy =       0.0000000000000000
    Empirical Dispersion Energy =           0.0000000000000000
    PCM Polarization Energy =               0.0000000000000000
    EFP Energy =                            0.0000000000000000
    Total Energy =                       -501.0384096442440978

  Mulliken Charges: (a.u.)
   Center  Symbol    Alpha    Beta     Spin     Total
       1     O     4.28596  4.28596  0.00000 -0.57191
       2     C     2.60483  2.60483  0.00000  0.79034
       3     C     3.20961  3.20961  0.00000 -0.41922
       4     O     4.30746  4.30746  0.00000 -0.61492
       5     C     3.15435  3.15435  0.00000 -0.30869
       6     H     0.39876  0.39876  0.00000  0.20248
       7     H     0.40137  0.40137  0.00000  0.19727
       8     C     3.15924  3.15924  0.00000 -0.31848
       9     H     0.41307  0.41307  0.00000  0.17385
      10     H     0.40894  0.40894  0.00000  0.18213
      11     C     3.15796  3.15796  0.00000 -0.31591
      12     H     0.41745  0.41745  0.00000  0.16510
      13     H     0.42379  0.42379  0.00000  0.15241
      14     C     3.15300  3.15300  0.00000 -0.30601
      15     H     0.42024  0.42024  0.00000  0.15953
      16     H     0.42061  0.42061  0.00000  0.15878
      17     C     3.15394  3.15394  0.00000 -0.30787
      18     H     0.42079  0.42079  0.00000  0.15842
      19     H     0.42079  0.42079  0.00000  0.15842
      20     C     3.23996  3.23996  0.00000 -0.47991
      21     H     0.42256  0.42256  0.00000  0.15488
      22     H     0.42356  0.42356  0.00000  0.15289
      23     H     0.41948  0.41948  0.00000  0.16103
      24     H     0.42153  0.42153  0.00000  0.15695
      25     H     0.42160  0.42160  0.00000  0.15679
      26     C     3.09239  3.09239  0.00000 -0.18477
      27     H     0.40910  0.40910  0.00000  0.18180
      28     H     0.40853  0.40853  0.00000  0.18294
      29     H     0.40915  0.40915  0.00000  0.18171

   Total alpha = 44.00000, Total beta = 44.00000, Total charge =  0.00000
