  ==> Input File <==

--------------------------------------------------------------------------
set {
	reference rhf
	basis 6-31G*
}

set_num_threads( 1 )
memory 2 gb

molecule MOL {
0 1

H	 -3.407059	 -1.043082	 0.000000
O	 -3.119761	 -0.140267	 0.000000
C	 -1.777559	 -0.059267	 0.000000
C	 -0.967575	 -1.172414	 0.204525
C	 -1.213485	 1.192124	 -0.214262
H	 -1.412830	 -2.138705	 0.369869
C	 0.404029	 -1.029547	 0.193948
H	 -1.859262	 2.035409	 -0.369545
C	 0.159938	 1.318951	 -0.221996
H	 1.040997	 -1.879787	 0.350362
C	 0.984284	 0.216695	 -0.019236
H	 0.597568	 2.288481	 -0.387991
C	 2.452627	 0.367888	 -0.030250
O	 3.228285	 -0.522018	 0.134618
H	 2.810559	 1.387779	 -0.205956

	symmetry c1
}
set optking {
	frozen_dihedral = ("
		7 11 13 14
	")
}

ee = energy('scf')
oeprop('DIPOLE', 'QUADRUPOLE', 'MULLIKEN_CHARGES')
f=open( 'psi4out.xyz', 'w' )
f.write( "15  " )
f.write( str(ee) + "\n" )
f.write( MOL.save_string_xyz() )
f.close()
--------------------------------------------------------------------------

    Molecular point group: c1

    Geometry (in Angstrom), charge = 0, multiplicity = 1:

       Center              X                  Y                   Z               Mass
    ------------   -----------------  -----------------  -----------------  -----------------
           H         -3.407021823350    -1.043697797842    -0.007053503830     1.007825032070
           O         -3.119723823350    -0.140882797842    -0.007053503830    15.994914619560
           C         -1.777521823350    -0.059882797842    -0.007053503830    12.000000000000
           C         -0.967537823350    -1.173029797842     0.197471496170    12.000000000000
           C         -1.213447823350     1.191508202158    -0.221315503830    12.000000000000
           H         -1.412792823350    -2.139320797842     0.362815496170     1.007825032070
           C          0.404066176650    -1.030162797842     0.186894496170    12.000000000000
           H         -1.859224823350     2.034793202158    -0.376598503830     1.007825032070
           C          0.159975176650     1.318335202158    -0.229049503830    12.000000000000
           H          1.041034176650    -1.880402797842     0.343308496170     1.007825032070
           C          0.984321176650     0.216079202158    -0.026289503830    12.000000000000
           H          0.597605176650     2.287865202158    -0.395044503830     1.007825032070
           C          2.452664176650     0.367272202158    -0.037303503830    12.000000000000
           O          3.228322176650    -0.522633797842     0.127564496170    15.994914619560
           H          2.810596176650     1.387163202158    -0.213009503830     1.007825032070

  Charge       = 0
  Multiplicity = 1
  Basis Set: 6-31G*
  Basis Set:

    Orbital Energies (a.u.)
    -----------------------

    Doubly Occupied:

       1A    -20.610671     2A    -20.555819     3A    -11.327955
       4A    -11.323656     5A    -11.260601     6A    -11.256696
       7A    -11.244337     8A    -11.238769     9A    -11.238655
      10A     -1.431930    11A     -1.397085    12A     -1.170530
      13A     -1.041454    14A     -1.038618    15A     -0.888837
      16A     -0.867161    17A     -0.794365    18A     -0.757478
      19A     -0.713560    20A     -0.666179    21A     -0.641386
      22A     -0.628097    23A     -0.610049    24A     -0.607659
      25A     -0.580506    26A     -0.557812    27A     -0.549275
      28A     -0.506102    29A     -0.483719    30A     -0.418536
      31A     -0.357906    32A     -0.326631

  @DF-RHF Final Energy:  -418.28981295180489

   => Energetics <=

    Nuclear Repulsion Energy =            401.3633200152838185
    One-Electron Energy =               -1365.1222527258344144
    Two-Electron Energy =                 545.4691197587458191
    DFT Exchange-Correlation Energy =       0.0000000000000000
    Empirical Dispersion Energy =           0.0000000000000000
    PCM Polarization Energy =               0.0000000000000000
    EFP Energy =                            0.0000000000000000
    Total Energy =                       -418.2898129518048336

  Mulliken Charges: (a.u.)
   Center  Symbol    Alpha    Beta     Spin     Total
       1     H     0.26851  0.26851  0.00000  0.46299
       2     O     4.37319  4.37319  0.00000 -0.74638
       3     C     2.78566  2.78566  0.00000  0.42869
       4     C     3.14682  3.14682  0.00000 -0.29364
       5     C     3.12834  3.12834  0.00000 -0.25669
       6     H     0.39768  0.39768  0.00000  0.20464
       7     C     3.07778  3.07778  0.00000 -0.15557
       8     H     0.38648  0.38648  0.00000  0.22704
       9     C     3.09213  3.09213  0.00000 -0.18426
      10     H     0.37459  0.37459  0.00000  0.25082
      11     C     3.06911  3.06911  0.00000 -0.13822
      12     H     0.38982  0.38982  0.00000  0.22037
      13     C     2.83025  2.83025  0.00000  0.33949
      14     O     4.25485  4.25485  0.00000 -0.50970
      15     H     0.42479  0.42479  0.00000  0.15041

   Total alpha = 32.00000, Total beta = 32.00000, Total charge = -0.00000
