                              Psi4 1.0.54 Driver

  ==> Input File <==

--------------------------------------------------------------------------
set {
	reference rhf
	basis cc-pvtz
}

set_num_threads( 4 )
memory 2 gb

molecule MOL {
0 1

O	 1.216069	 1.304886	 0.000821
C	 1.121787	 0.124983	 0.000110
C	 -0.170912	 -0.649867	 -0.000147
O	 2.167739	 -0.685178	 -0.000678
C	 -1.413045	 0.229353	 0.001137
H	 -0.152877	 -1.303435	 -0.866175
H	 -0.152278	 -1.305116	 0.864586
C	 -2.668460	 -0.537633	 -0.403801
H	 -1.260548	 1.065656	 -0.671828
H	 -1.547070	 0.658534	 0.987740
C	 -3.919047	 0.334664	 -0.408060
H	 -2.526879	 -0.968087	 -1.391680
H	 -2.815930	 -1.374390	 0.273936
H	 -3.816097	 1.161554	 -1.102496
H	 -4.793723	 -0.235400	 -0.699001
H	 -4.107336	 0.752201	 0.575195
C	 3.449556	 -0.089977	 -0.000570
H	 3.585694	 0.522473	 -0.879546
H	 4.155805	 -0.904274	 -0.001389
H	 3.586173	 0.521118	 0.879272

	symmetry c1
}
set optking {
	frozen_dihedral = ("
		9 5 3 6
	")
}

ee,wfn = optimize('scf', return_wfn=True)
oeprop( wfn, 'DIPOLE', 'QUADRUPOLE', 'MULLIKEN_CHARGES')
f=open( 'psi4out.xyz', 'w' )
f.write( "20  " )
f.write( str(ee) + "\n" )
f.write( MOL.save_string_xyz() )
f.close()
--------------------------------------------------------------------------

    Molecular point group: c1
  Charge       = 0
  Multiplicity = 1
  Basis Set: CC-PVTZ
  Basis Set:
  @DF-RHF Final Energy:  -384.08238203692810
    Total Energy =                       -384.0823820369276973
    Molecular point group: c1
  Basis Set: CC-PVTZ
  Basis Set:
  Basis Set: CC-PVTZ
  Basis Set:
  @DF-RHF Final Energy:  -384.08247845352884
    Total Energy =                       -384.0824784535286653
  Basis Set: CC-PVTZ
  Basis Set:
  Basis Set: CC-PVTZ
  Basis Set:
  @DF-RHF Final Energy:  -384.08247945017064
    Total Energy =                       -384.0824794501708084
  Basis Set: CC-PVTZ
  Basis Set:
  Basis Set: CC-PVTZ
  Basis Set:
  @DF-RHF Final Energy:  -384.08250599813186
    Total Energy =                       -384.0825059981318645
  Basis Set: CC-PVTZ
  Basis Set:
  Basis Set: CC-PVTZ
  Basis Set:
  @DF-RHF Final Energy:  -384.08250968488784
    Total Energy =                       -384.0825096848876683
  Basis Set: CC-PVTZ
  Basis Set:
  Charge       = 0
  Multiplicity = 1
  Basis Set: CC-PVTZ
  Basis Set:

    Orbital Energies (a.u.)
    -----------------------

    Doubly Occupied:

       1A    -20.596553     2A    -20.534511     3A    -11.365130
       4A    -11.278668     5A    -11.233853     6A    -11.218633
       7A    -11.217019     8A    -11.208791     9A     -1.472543
      10A     -1.366124    11A     -1.089578    12A     -1.025607
      13A     -0.969938    14A     -0.886588    15A     -0.805042
      16A     -0.769780    17A     -0.700415    18A     -0.686241
      19A     -0.676160    20A     -0.645377    21A     -0.599625
      22A     -0.592363    23A     -0.580377    24A     -0.542546
      25A     -0.536330    26A     -0.524233    27A     -0.500911
      28A     -0.479132    29A     -0.475084    30A     -0.470188
      31A     -0.459496    32A     -0.440996

  @DF-RHF Final Energy:  -384.08251014928231

   => Energetics <=

    Nuclear Repulsion Energy =            381.6496178536996808
    One-Electron Energy =               -1279.5685982529312241
    Two-Electron Energy =                 513.8364702499497980
    DFT Exchange-Correlation Energy =       0.0000000000000000
    Empirical Dispersion Energy =           0.0000000000000000
    PCM Polarization Energy =               0.0000000000000000
    EFP Energy =                            0.0000000000000000
    Total Energy =                       -384.0825101492816884
    Molecular point group: c1
  Basis Set: CC-PVTZ
  Basis Set:

  -Total Gradient:
     Atom            X                  Y                   Z
    ------   -----------------  -----------------  -----------------
       1        0.000017477121     0.000026284099    -0.000029369508
       2        0.000012260801    -0.000006759209     0.000050340727
       3        0.001872140419     0.002644415461    -0.001260654941
       4        0.000035654337    -0.000009370018    -0.000007346545
       5       -0.001545536331    -0.002225843945    -0.002111514331
       6       -0.001298065758    -0.001829115304     0.001372791629
       7       -0.000004969841    -0.000004676053    -0.000019654743
       8       -0.000023704195    -0.000000822390     0.000060064019
       9        0.001005524244     0.001440124574     0.001959538513
      10       -0.000012770607    -0.000014455854    -0.000003420249
      11       -0.000036811992    -0.000014007637    -0.000017655647
      12        0.000025235898    -0.000000745869    -0.000015430810
      13       -0.000022198026    -0.000042501894     0.000024876980
      14       -0.000001598699     0.000025727899    -0.000020812995
      15       -0.000026548542     0.000006177744    -0.000007877050
      16       -0.000009960082     0.000004996636     0.000026685595
      17       -0.000000091383    -0.000001903853     0.000008429129
      18        0.000002078860     0.000010641184    -0.000017423755
      19        0.000009144282    -0.000012239487     0.000000169425
      20        0.000002739506     0.000004073921     0.000008264558

  **** Optimization is complete! (in 6 steps) ****
    Final optimized geometry and variables:
    Molecular point group: c1

    Geometry (in Angstrom), charge = 0, multiplicity = 1:

    O            1.220722728749     1.295525638806     0.097057172764
    C            1.118871752762     0.116273613792     0.091136916707
    C           -0.177362478537    -0.651158541301     0.067088542102
    O            2.159457371174    -0.700500369260     0.107784061745
    C           -1.423409895558     0.225802844507     0.059293309804
    H           -0.155630581927    -1.315644456926    -0.790539049673
    H           -0.171691388159    -1.309029265735     0.930309960844
    C           -2.686173252051    -0.550228475568    -0.300222592680
    H           -1.276796392054     1.055157285847    -0.621943699689
    H           -1.542254063035     0.677397439719     1.039238902375
    C           -3.942328670784     0.313354517007    -0.264819090486
    H           -2.573285828962    -0.980992256230    -1.291528302125
    H           -2.805481567635    -1.387204965987     0.383130668772
    H           -3.865148503129     1.142757823060    -0.959617918436
    H           -4.821313667698    -0.261940280329    -0.531530244005
    H           -4.104714962140     0.726916723716     0.724772811542
    C            3.444815526166    -0.113580448041     0.133186433151
    H            3.601215151834     0.500170222920    -0.741534187350
    H            4.145698790841    -0.932463310691     0.143282581745
    H            3.569008538535     0.494380206118     1.017047199439

  Mulliken Charges: (a.u.)
   Center  Symbol    Alpha    Beta     Spin     Total
       1     O     4.19651  4.19651  0.00000 -0.39301
       2     C     2.80494  2.80494  0.00000  0.39011
       3     C     3.10167  3.10167  0.00000 -0.20334
       4     O     4.14669  4.14669  0.00000 -0.29337
       5     C     3.08349  3.08349  0.00000 -0.16697
       6     H     0.44086  0.44086  0.00000  0.11828
       7     H     0.43932  0.43932  0.00000  0.12137
       8     C     3.08656  3.08656  0.00000 -0.17312
       9     H     0.44227  0.44227  0.00000  0.11546
      10     H     0.45082  0.45082  0.00000  0.09836
      11     C     3.14925  3.14925  0.00000 -0.29849
      12     H     0.45475  0.45475  0.00000  0.09051
      13     H     0.45537  0.45537  0.00000  0.08926
      14     H     0.45341  0.45341  0.00000  0.09317
      15     H     0.44838  0.44838  0.00000  0.10323
      16     H     0.45416  0.45416  0.00000  0.09167
      17     C     3.03746  3.03746  0.00000 -0.07492
      18     H     0.45433  0.45433  0.00000  0.09134
      19     H     0.44537  0.44537  0.00000  0.10925
      20     H     0.45440  0.45440  0.00000  0.09121

   Total alpha = 32.00000, Total beta = 32.00000, Total charge = -0.00000

*** Psi4 exiting successfully. Buy a developer a beer!
