  ==> Input File <==

--------------------------------------------------------------------------
set {
	reference rhf
	basis 6-31G*
}

set_num_threads( 4 )
memory 2 gb

molecule MOL {
0 1

O	 3.768508	 -0.132261	 0.691784
C	 2.843464	 0.164689	 -0.000222
C	 1.546494	 -0.624492	 -0.000609
C	 2.905369	 1.358728	 -0.930595
C	 0.291004	 0.242674	 0.000989
H	 1.557904	 -1.283758	 -0.867573
H	 1.558622	 -1.285963	 0.864672
C	 -0.994322	 -0.586602	 0.000262
H	 0.309117	 0.896430	 -0.865270
H	 0.309661	 0.894078	 0.869017
C	 -2.259874	 0.272531	 0.000494
H	 -1.004862	 -1.240012	 -0.870939
H	 -1.005220	 -1.241071	 0.870675
C	 -3.549786	 -0.549746	 -0.000374
H	 -2.250389	 0.926680	 -0.869574
H	 -2.250838	 0.925513	 0.871430
C	 -4.809590	 0.315458	 -0.000369
H	 -3.560515	 -1.202009	 -0.871156
H	 -3.561123	 -1.202955	 0.869711
H	 -4.844746	 0.956611	 -0.876632
H	 -5.706986	 -0.295590	 -0.001609
H	 -4.845960	 0.954827	 0.877144
H	 2.121619	 2.070065	 -0.686968
H	 3.869540	 1.839901	 -0.842952
H	 2.748436	 1.046115	 -1.958836

	symmetry c1
}
set optking {
	frozen_dihedral = ("
		1 2 3 6
	")
}

ee = optimize('scf')
oeprop('DIPOLE', 'QUADRUPOLE', 'MULLIKEN_CHARGES')
f=open( 'psi4out.xyz', 'w' )
f.write( "25  " )
f.write( str(ee) + "\n" )
f.write( MOL.save_string_xyz() )
f.close()
--------------------------------------------------------------------------

    Molecular point group: c1
  Charge       = 0
  Multiplicity = 1
  Basis Set: 6-31G*
  Basis Set:
  @DF-RHF Final Energy:  -387.13232688488830
    Total Energy =                       -387.1323268848880161
    Molecular point group: c1
  Basis Set: 6-31G*
  Basis Set:
  Basis Set: 6-31G*
  Basis Set:
  @DF-RHF Final Energy:  -387.13232569205650
    Total Energy =                       -387.1323256920562699
  Basis Set: 6-31G*
  Basis Set:
  Basis Set: 6-31G*
  Basis Set:
  @DF-RHF Final Energy:  -387.13257610894817
    Total Energy =                       -387.1325761089483422
  Basis Set: 6-31G*
  Basis Set:
  Basis Set: 6-31G*
  Basis Set:
  @DF-RHF Final Energy:  -387.13363022198780
    Total Energy =                       -387.1336302219875733
  Basis Set: 6-31G*
  Basis Set:
  Basis Set: 6-31G*
  Basis Set:
  @DF-RHF Final Energy:  -387.13373931048511
    Total Energy =                       -387.1337393104851117
  Basis Set: 6-31G*
  Basis Set:
  Basis Set: 6-31G*
  Basis Set:
  @DF-RHF Final Energy:  -387.13374791251374
    Total Energy =                       -387.1337479125139680
  Basis Set: 6-31G*
  Basis Set:
  Basis Set: 6-31G*
  Basis Set:
  @DF-RHF Final Energy:  -387.13375292320785
    Total Energy =                       -387.1337529232079078
  Basis Set: 6-31G*
  Basis Set:
  Charge       = 0
  Multiplicity = 1
  Basis Set: 6-31G*
  Basis Set:

    Orbital Energies (a.u.)
    -----------------------

    Doubly Occupied:

       1A    -20.547142     2A    -11.324560     3A    -11.232196
       4A    -11.229907     5A    -11.227286     6A    -11.224266
       7A    -11.220642     8A    -11.219948     9A    -11.212531
      10A     -1.392791    11A     -1.101675    12A     -1.061168
      13A     -1.010652    14A     -0.971020    15A     -0.897999
      16A     -0.821723    17A     -0.797525    18A     -0.731561
      19A     -0.668596    20A     -0.647685    21A     -0.637222
      22A     -0.619165    23A     -0.601237    24A     -0.589111
      25A     -0.563850    26A     -0.560482    27A     -0.546080
      28A     -0.533461    29A     -0.516292    30A     -0.498791
      31A     -0.487800    32A     -0.478285    33A     -0.469584
      34A     -0.468979    35A     -0.457881    36A     -0.395862

  @DF-RHF Final Energy:  -387.13375361184404

   => Energetics <=

    Nuclear Repulsion Energy =            438.7422830865741048
    One-Electron Energy =               -1393.8221635806110044
    Two-Electron Energy =                 567.9461268821935391
    DFT Exchange-Correlation Energy =       0.0000000000000000
    Empirical Dispersion Energy =           0.0000000000000000
    PCM Polarization Energy =               0.0000000000000000
    EFP Energy =                            0.0000000000000000
    Total Energy =                       -387.1337536118433036
    Molecular point group: c1
  Basis Set: 6-31G*
  Basis Set:

  -Total Gradient:
     Atom            X                  Y                   Z
    ------   -----------------  -----------------  -----------------
       1        0.000368201583    -0.000584372286    -0.000787545099
       2       -0.000405405949     0.000685197594     0.001224503910
       3       -0.000369033143     0.000711605701    -0.000990326904
       4        0.000013663333    -0.000007868536     0.000020983478
       5       -0.000021546644    -0.000021702487    -0.000017131418
       6        0.000413181930    -0.000765651091     0.000535416776
       7       -0.000007210610    -0.000003536705     0.000004384780
       8        0.000008709403     0.000013596952     0.000012446261
       9        0.000000575849     0.000004350127     0.000019674469
      10        0.000020226675    -0.000011307203    -0.000002295458
      11        0.000000076523    -0.000007574058    -0.000008455968
      12        0.000003221070     0.000001255012     0.000008147772
      13       -0.000012375737    -0.000002924593     0.000009290141
      14       -0.000005399678     0.000002691436    -0.000005448624
      15        0.000002005681     0.000004273654    -0.000000832446
      16        0.000000049213    -0.000006410665    -0.000003633873
      17       -0.000001757831    -0.000002490773    -0.000000282854
      18       -0.000002160758     0.000000021363    -0.000000885648
      19        0.000002653562     0.000000092628    -0.000000000373
      20        0.000000271157    -0.000000077586     0.000000257455
      21       -0.000001106160     0.000000489854     0.000000541304
      22        0.000000132023     0.000000409458     0.000000383245
      23        0.000001415771    -0.000008906759    -0.000006405863
      24       -0.000001659582     0.000005717707    -0.000002282006
      25       -0.000006727692    -0.000006878746    -0.000010503056

  **** Optimization is complete! (in 8 steps) ****
    Final optimized geometry and variables:
    Molecular point group: c1

    Geometry (in Angstrom), charge = 0, multiplicity = 1:

    O            3.781354536319    -0.252687671801     0.739341540034
    C            2.888779659850     0.109796306040     0.034947921384
    C            1.572795984672    -0.648692634305    -0.005189997334
    C            3.053310767749     1.309353249776    -0.875238662039
    C            0.307039619848     0.215568717215    -0.014510842625
    H            1.595137716029    -1.276732525726    -0.895642684603
    H            1.573151881184    -1.317301284657     0.847654662769
    C           -0.969576089494    -0.626775287517     0.024620183642
    H            0.290223882188     0.845839813551    -0.899638552815
    H            0.320157999440     0.886027215359     0.842542950267
    C           -2.245936794459     0.215965394390     0.012575881481
    H           -0.977280534636    -1.305584036008    -0.826411859729
    H           -0.958945005430    -1.253026156241     0.914307753807
    C           -3.524041682602    -0.623735227909     0.052842067445
    H           -2.256456712917     0.842354088417    -0.877983702875
    H           -2.236670819031     0.895752860156     0.862896615825
    C           -4.795583470843     0.223926651307     0.041374656741
    H           -3.535480512410    -1.302795679701    -0.797043244527
    H           -3.515490299523    -1.249248434464     0.942799535966
    H           -4.850750196892     0.836302130044    -0.854266586730
    H           -5.683834017551    -0.399368432234     0.070679189449
    H           -4.830585588674     0.889972658188     0.898855215857
    H            2.451717667822     2.138755355565    -0.515560757732
    H            4.092343428394     1.607611006902    -0.887649281846
    H            2.722499772354     1.083235032105    -1.884363169719

  Mulliken Charges: (a.u.)
   Center  Symbol    Alpha    Beta     Spin     Total
       1     O     4.26234  4.26234  0.00000 -0.52468
       2     C     2.73076  2.73076  0.00000  0.53848
       3     C     3.20750  3.20750  0.00000 -0.41500
       4     C     3.29170  3.29170  0.00000 -0.58339
       5     C     3.16393  3.16393  0.00000 -0.32786
       6     H     0.40877  0.40877  0.00000  0.18246
       7     H     0.39898  0.39898  0.00000  0.20203
       8     C     3.15228  3.15228  0.00000 -0.30455
       9     H     0.41887  0.41887  0.00000  0.16227
      10     H     0.41658  0.41658  0.00000  0.16684
      11     C     3.15131  3.15131  0.00000 -0.30262
      12     H     0.42202  0.42202  0.00000  0.15596
      13     H     0.41940  0.41940  0.00000  0.16120
      14     C     3.15198  3.15198  0.00000 -0.30395
      15     H     0.42379  0.42379  0.00000  0.15242
      16     H     0.42264  0.42264  0.00000  0.15472
      17     C     3.23960  3.23960  0.00000 -0.47920
      18     H     0.42257  0.42257  0.00000  0.15486
      19     H     0.42188  0.42188  0.00000  0.15624
      20     H     0.42166  0.42166  0.00000  0.15669
      21     H     0.41833  0.41833  0.00000  0.16334
      22     H     0.42121  0.42121  0.00000  0.15757
      23     H     0.40496  0.40496  0.00000  0.19008
      24     H     0.39596  0.39596  0.00000  0.20808
      25     H     0.41099  0.41099  0.00000  0.17802

   Total alpha = 36.00000, Total beta = 36.00000, Total charge =  0.00000
