  ==> Input File <==

--------------------------------------------------------------------------
set {
	reference rhf
	basis 6-31G*
}

set_num_threads( 1 )
memory 2 gb

molecule MOL {
0 1

O	 1.618700	 1.694621	 -0.482793
C	 1.035757	 1.284923	 -1.434341
C	 -0.273506	 0.534641	 -1.406539
O	 1.472611	 1.443387	 -2.677396
C	 -0.823008	 0.326187	 0.001381
H	 -0.976334	 1.085062	 -2.026042
H	 -0.114745	 -0.414193	 -1.911740
C	 -2.149452	 -0.435131	 -0.000098
H	 -0.951955	 1.291149	 0.481392
H	 -0.090067	 -0.210584	 0.595504
C	 -3.368779	 0.488503	 -0.000883
H	 -2.193746	 -1.087250	 -0.871175
H	 -2.195311	 -1.087803	 0.870418
C	 -4.693822	 -0.272754	 -0.001129
H	 -3.325798	 1.139422	 -0.871284
H	 -3.326423	 1.139959	 0.869145
H	 -4.781274	 -0.907928	 -0.878124
H	 -5.538651	 0.408946	 -0.001420
H	 -4.781694	 -0.907783	 0.875984
C	 2.696042	 2.136215	 -2.845205
H	 2.620624	 3.140735	 -2.454333
H	 2.877603	 2.161243	 -3.908353
H	 3.498616	 1.618065	 -2.340328

	symmetry c1
}
set optking {
	frozen_dihedral = ("
		15 11 8 12,
		1 2 3 6,
		9 5 3 6,
		1 2 4 20
	")
}

ee = energy('scf')
oeprop('DIPOLE', 'QUADRUPOLE', 'MULLIKEN_CHARGES')
f=open( 'psi4out.xyz', 'w' )
f.write( "23  " )
f.write( str(ee) + "\n" )
f.write( MOL.save_string_xyz() )
f.close()
--------------------------------------------------------------------------

    Molecular point group: c1

    Geometry (in Angstrom), charge = 0, multiplicity = 1:

       Center              X                  Y                   Z               Mass
    ------------   -----------------  -----------------  -----------------  -----------------
           O          2.086849622578     0.877016171562     0.519899064760    15.994914619560
           C          1.503906622578     0.467318171562    -0.431648935240    12.000000000000
           C          0.194643622578    -0.282963828438    -0.403846935240    12.000000000000
           O          1.940760622578     0.625782171562    -1.674703935240    15.994914619560
           C         -0.354858377422    -0.491417828438     1.004073064760    12.000000000000
           H         -0.508184377422     0.267457171562    -1.023349935240     1.007825032070
           H          0.353404622578    -1.231797828438    -0.909047935240     1.007825032070
           C         -1.681302377422    -1.252735828438     1.002594064760    12.000000000000
           H         -0.483805377422     0.473544171562     1.484084064760     1.007825032070
           H          0.378082622578    -1.028188828438     1.598196064760     1.007825032070
           C         -2.900629377422    -0.329101828438     1.001809064760    12.000000000000
           H         -1.725596377422    -1.904854828438     0.131517064760     1.007825032070
           H         -1.727161377422    -1.905407828438     1.873110064760     1.007825032070
           C         -4.225672377422    -1.090358828438     1.001563064760    12.000000000000
           H         -2.857648377422     0.321817171562     0.131408064760     1.007825032070
           H         -2.858273377422     0.322354171562     1.871837064760     1.007825032070
           H         -4.313124377422    -1.725532828438     0.124568064760     1.007825032070
           H         -5.070501377422    -0.408658828438     1.001272064760     1.007825032070
           H         -4.313544377422    -1.725387828438     1.878676064760     1.007825032070
           C          3.164191622578     1.318610171562    -1.842512935240    12.000000000000
           H          3.088773622578     2.323130171562    -1.451640935240     1.007825032070
           H          3.345752622578     1.343638171562    -2.905660935240     1.007825032070
           H          3.966765622578     0.800460171562    -1.337635935240     1.007825032070

  Charge       = 0
  Multiplicity = 1
  Basis Set: 6-31G*
  Basis Set:

    Orbital Energies (a.u.)
    -----------------------

    Doubly Occupied:

       1A    -20.603531     2A    -20.545367     3A    -11.371995
       4A    -11.280784     5A    -11.235627     6A    -11.218223
       7A    -11.217980     8A    -11.216721     9A    -11.210214
      10A     -1.469233    11A     -1.362666    12A     -1.094484
      13A     -1.042544    14A     -0.987031    15A     -0.932369
      16A     -0.846801    17A     -0.793906    18A     -0.766810
      19A     -0.701317    20A     -0.682229    21A     -0.672532
      22A     -0.631826    23A     -0.626416    24A     -0.598847
      25A     -0.574172    26A     -0.558742    27A     -0.556036
      28A     -0.528489    29A     -0.520909    30A     -0.500326
      31A     -0.495352    32A     -0.471158    33A     -0.464851
      34A     -0.457879    35A     -0.450962    36A     -0.436186

  @DF-RHF Final Energy:  -422.97250076244643

   => Energetics <=

    Nuclear Repulsion Energy =            456.2052994931007106
    One-Electron Energy =               -1480.1065543045990580
    Two-Electron Energy =                 600.9287540490513493
    DFT Exchange-Correlation Energy =       0.0000000000000000
    Empirical Dispersion Energy =           0.0000000000000000
    PCM Polarization Energy =               0.0000000000000000
    EFP Energy =                            0.0000000000000000
    Total Energy =                       -422.9725007624469981

  Mulliken Charges: (a.u.)
   Center  Symbol    Alpha    Beta     Spin     Total
       1     O     4.28592  4.28592  0.00000 -0.57184
       2     C     2.60540  2.60540  0.00000  0.78920
       3     C     3.20931  3.20931  0.00000 -0.41863
       4     O     4.30734  4.30734  0.00000 -0.61469
       5     C     3.15519  3.15519  0.00000 -0.31038
       6     H     0.40037  0.40037  0.00000  0.19926
       7     H     0.40027  0.40027  0.00000  0.19946
       8     C     3.15694  3.15694  0.00000 -0.31389
       9     H     0.41021  0.41021  0.00000  0.17958
      10     H     0.40940  0.40940  0.00000  0.18120
      11     C     3.15302  3.15302  0.00000 -0.30604
      12     H     0.42358  0.42358  0.00000  0.15283
      13     H     0.41819  0.41819  0.00000  0.16363
      14     C     3.23967  3.23967  0.00000 -0.47933
      15     H     0.42422  0.42422  0.00000  0.15155
      16     H     0.42022  0.42022  0.00000  0.15956
      17     H     0.42188  0.42188  0.00000  0.15624
      18     H     0.41879  0.41879  0.00000  0.16242
      19     H     0.42096  0.42096  0.00000  0.15807
      20     C     3.09246  3.09246  0.00000 -0.18491
      21     H     0.40907  0.40907  0.00000  0.18186
      22     H     0.40848  0.40848  0.00000  0.18304
      23     H     0.40909  0.40909  0.00000  0.18181

   Total alpha = 36.00000, Total beta = 36.00000, Total charge =  0.00000
