                              Psi4 1.0.54 Driver

  ==> Input File <==

--------------------------------------------------------------------------
set {
	reference rhf
	basis cc-pvtz
}

set_num_threads( 4 )
memory 2 gb

molecule MOL {
0 1

O	 -2.071633	 -1.227563	 -0.223463
C	 -1.652164	 -0.152425	 0.058082
C	 -0.327811	 0.006324	 0.778296
C	 -2.402515	 1.108629	 -0.298924
C	 -0.487208	 -0.229640	 2.285060
H	 0.404969	 -0.683835	 0.373524
H	 0.021399	 1.015879	 0.603117
C	 0.822505	 -0.060990	 3.049546
H	 -0.877871	 -1.228579	 2.461686
H	 -1.226591	 0.464881	 2.668881
C	 0.666296	 -0.282363	 4.550131
H	 1.560927	 -0.754600	 2.656912
H	 1.213817	 0.936138	 2.870242
H	 0.309140	 -1.284335	 4.763503
H	 -0.042995	 0.418520	 4.976789
H	 1.611001	 -0.151833	 5.064811
H	 -3.240910	 0.874416	 -0.936711
H	 -1.747554	 1.818823	 -0.790984
H	 -2.760419	 1.579708	 0.610998

	symmetry c1
}
set optking {
	frozen_dihedral = ("
		5 3 2 4
	")
}

ee,wfn = optimize('scf', return_wfn=True)
oeprop( wfn, 'DIPOLE', 'QUADRUPOLE', 'MULLIKEN_CHARGES')
f=open( 'psi4out.xyz', 'w' )
f.write( "19  " )
f.write( str(ee) + "\n" )
f.write( MOL.save_string_xyz() )
f.close()
--------------------------------------------------------------------------

    Molecular point group: c1
  Charge       = 0
  Multiplicity = 1
  Basis Set: CC-PVTZ
  Basis Set:
  @DF-RHF Final Energy:  -309.17621435879340
    Total Energy =                       -309.1762143587934588
    Molecular point group: c1
  Basis Set: CC-PVTZ
  Basis Set:
  Basis Set: CC-PVTZ
  Basis Set:
  @DF-RHF Final Energy:  -309.17476716824837
    Total Energy =                       -309.1747671682480814
  Basis Set: CC-PVTZ
  Basis Set:
  Basis Set: CC-PVTZ
  Basis Set:
  @DF-RHF Final Energy:  -309.17677525115317
    Total Energy =                       -309.1767752511528897
  Basis Set: CC-PVTZ
  Basis Set:
  Basis Set: CC-PVTZ
  Basis Set:
  @DF-RHF Final Energy:  -309.17720442843921
    Total Energy =                       -309.1772044284394951
  Basis Set: CC-PVTZ
  Basis Set:
  @DF-RHF Final Energy:  -309.17728713065526
    Total Energy =                       -309.1772871306550314
  Basis Set: CC-PVTZ
  Basis Set:
  @DF-RHF Final Energy:  -309.17730403082385
    Total Energy =                       -309.1773040308234499
  Basis Set: CC-PVTZ
  Basis Set:
  Basis Set: CC-PVTZ
  Basis Set:
  @DF-RHF Final Energy:  -309.17732629165090
    Total Energy =                       -309.1773262916504450
  Basis Set: CC-PVTZ
  Basis Set:
  Basis Set: CC-PVTZ
  Basis Set:
  @DF-RHF Final Energy:  -309.17734031328814
    Total Energy =                       -309.1773403132881413
  Basis Set: CC-PVTZ
  Basis Set:
  Charge       = 0
  Multiplicity = 1
  Basis Set: CC-PVTZ
  Basis Set:

    Orbital Energies (a.u.)
    -----------------------

    Doubly Occupied:

       1A    -20.536900     2A    -11.319641     3A    -11.228189
       4A    -11.227561     5A    -11.227228     6A    -11.222528
       7A    -11.212719     8A     -1.397193     9A     -1.092277
      10A     -1.030448    11A     -0.984986    12A     -0.890356
      13A     -0.806748    14A     -0.734519    15A     -0.664804
      16A     -0.648072    17A     -0.624875    18A     -0.614896
      19A     -0.583193    20A     -0.574481    21A     -0.553852
      22A     -0.537906    23A     -0.515039    24A     -0.500019
      25A     -0.482222    26A     -0.476339    27A     -0.469789
      28A     -0.399274

  @DF-RHF Final Energy:  -309.17734062022822

   => Energetics <=

    Nuclear Repulsion Energy =            301.8287177563219643
    One-Electron Energy =               -1016.9000138416884056
    Two-Electron Energy =                 405.8939554651381059
    DFT Exchange-Correlation Energy =       0.0000000000000000
    Empirical Dispersion Energy =           0.0000000000000000
    PCM Polarization Energy =               0.0000000000000000
    EFP Energy =                            0.0000000000000000
    Total Energy =                       -309.1773406202282786
    Molecular point group: c1
  Basis Set: CC-PVTZ
  Basis Set:

  -Total Gradient:
     Atom            X                  Y                   Z
    ------   -----------------  -----------------  -----------------
       1        0.000017654624    -0.000000871621     0.000011715779
       2       -0.000135968024    -0.000098644238     0.000181435429
       3       -0.000000489404     0.000207694389    -0.000013099105
       4        0.000077146252     0.000037627819    -0.000157223079
       5        0.000024520599    -0.000138702598    -0.000037352133
       6       -0.000004265368     0.000001287880    -0.000006388734
       7       -0.000001759900    -0.000005620452     0.000003781074
       8        0.000006501448    -0.000001526916     0.000003548153
       9        0.000003035723     0.000007870715    -0.000007555012
      10       -0.000004958628     0.000000138620    -0.000000940200
      11        0.000004859495    -0.000002680526    -0.000001155907
      12        0.000002387394     0.000002472620     0.000005471643
      13       -0.000001006955    -0.000003646423     0.000001074738
      14        0.000000978920     0.000002757896    -0.000000019599
      15        0.000002727213    -0.000001727233    -0.000003148859
      16       -0.000002762963    -0.000000539854     0.000000937909
      17        0.000015911352     0.000001180288     0.000009202164
      18       -0.000003790676    -0.000005629113     0.000010458548
      19       -0.000000721102    -0.000001441258    -0.000000742808

  **** Optimization is complete! (in 9 steps) ****
    Final optimized geometry and variables:
    Molecular point group: c1

    Geometry (in Angstrom), charge = 0, multiplicity = 1:

    O           -1.234169624626    -1.127599282710    -1.696220608643
    C           -0.845869499486    -0.038166856955    -1.425204285300
    C            0.461955146992     0.161909343795    -0.684067526117
    C           -1.634588134316     1.197424231848    -1.786465794551
    C            0.286852696652    -0.089135362165     0.818110061293
    H            1.177574497560    -0.543100634594    -1.088582252522
    H            0.841471995158     1.164327063850    -0.849975062877
    C            1.586098160979     0.080026678440     1.599988037851
    H           -0.097919889283    -1.093008283828     0.958709427142
    H           -0.462366885623     0.589799909664     1.218083816556
    C            1.417568731029    -0.178372460330     3.093310698212
    H            2.334343212864    -0.597138058206     1.198415341779
    H            1.970327828047     1.085002268229     1.448466694117
    H            1.065442758666    -1.187469649216     3.277881117990
    H            0.699387701115     0.506913342029     3.531047753692
    H            2.356471698142    -0.053816347348     3.619972816408
    H           -2.596764160869     0.920882631491    -2.189215264823
    H           -1.082813511162     1.771043618798    -2.524263186472
    H           -1.763677401423     1.833783116053    -0.917809309910

  Mulliken Charges: (a.u.)
   Center  Symbol    Alpha    Beta     Spin     Total
       1     O     4.17795  4.17795  0.00000 -0.35589
       2     C     2.85803  2.85803  0.00000  0.28395
       3     C     3.09899  3.09899  0.00000 -0.19798
       4     C     3.15482  3.15482  0.00000 -0.30964
       5     C     3.09584  3.09584  0.00000 -0.19169
       6     H     0.43954  0.43954  0.00000  0.12091
       7     H     0.44923  0.44923  0.00000  0.10155
       8     C     3.08574  3.08574  0.00000 -0.17147
       9     H     0.44052  0.44052  0.00000  0.11896
      10     H     0.45345  0.45345  0.00000  0.09311
      11     C     3.14937  3.14937  0.00000 -0.29875
      12     H     0.45168  0.45168  0.00000  0.09665
      13     H     0.45423  0.45423  0.00000  0.09154
      14     H     0.45272  0.45272  0.00000  0.09456
      15     H     0.45515  0.45515  0.00000  0.08969
      16     H     0.44747  0.44747  0.00000  0.10506
      17     H     0.43615  0.43615  0.00000  0.12771
      18     H     0.44836  0.44836  0.00000  0.10329
      19     H     0.45077  0.45077  0.00000  0.09846

   Total alpha = 28.00000, Total beta = 28.00000, Total charge = -0.00000

*** Psi4 exiting successfully. Buy a developer a beer!
