  ==> Input File <==

--------------------------------------------------------------------------
set {
	reference rhf
	basis 6-31G*
}

set_num_threads( 4 )
memory 2 gb

molecule MOL {
0 1

H	 -3.650283	 0.221984	 0.000000
C	 -2.577024	 0.154109	 0.000000
C	 -1.960329	 -1.089307	 0.000000
C	 -1.811733	 1.307557	 0.000000
H	 -2.554473	 -1.985285	 0.000000
C	 -0.581547	 -1.175855	 0.000000
H	 -2.287118	 2.271701	 0.000000
C	 -0.428719	 1.219221	 0.000000
H	 -0.090826	 -2.129898	 0.000000
C	 0.198341	 -0.021559	 0.000000
H	 0.149947	 2.124040	 0.000000
C	 1.691355	 -0.173192	 0.000000
C	 2.557779	 1.068924	 0.000000
O	 2.191781	 -1.258986	 0.000000
H	 2.362209	 1.677823	 -0.876798
H	 3.594440	 0.764254	 0.000000
H	 2.362209	 1.677823	 0.876798

	symmetry c1
}
set optking {
	frozen_dihedral = ("
		13 12 10 8
	")
}

ee = optimize('scf')
oeprop('DIPOLE', 'QUADRUPOLE', 'MULLIKEN_CHARGES')
f=open( 'psi4out.xyz', 'w' )
f.write( "17  " )
f.write( str(ee) + "\n" )
f.write( MOL.save_string_xyz() )
f.close()
--------------------------------------------------------------------------

    Molecular point group: c1
  Charge       = 0
  Multiplicity = 1
  Basis Set: 6-31G*
  Basis Set:

    Orbital Energies (a.u.)
    -----------------------

    Doubly Occupied:

       1A    -20.550044     2A    -11.331674     3A    -11.248925
       4A    -11.246225     5A    -11.242959     6A    -11.240490
       7A    -11.240214     8A    -11.237868     9A    -11.229593
      10A     -1.396591    11A     -1.165594    12A     -1.049749
      13A     -1.026410    14A     -0.996156    15A     -0.861125
      16A     -0.834696    17A     -0.759580    18A     -0.709399
      19A     -0.654744    20A     -0.646613    21A     -0.625367
      22A     -0.606260    23A     -0.598310    24A     -0.597221
      25A     -0.552806    26A     -0.524251    27A     -0.518567
      28A     -0.500228    29A     -0.491263    30A     -0.410604
      31A     -0.345683    32A     -0.341356

  @DF-RHF Final Energy:  -382.47580097136824

   => Energetics <=

    Nuclear Repulsion Energy =            403.5705141694586473
    One-Electron Energy =               -1318.5315003886955765
    Two-Electron Energy =                 532.4851852478684577
    DFT Exchange-Correlation Energy =       0.0000000000000000
    Empirical Dispersion Energy =           0.0000000000000000
    PCM Polarization Energy =               0.0000000000000000
    EFP Energy =                            0.0000000000000000
    Total Energy =                       -382.4758009713684714
    Molecular point group: c1
  Basis Set: 6-31G*
  Basis Set:

  -Total Gradient:
     Atom            X                  Y                   Z
    ------   -----------------  -----------------  -----------------
       1        0.000029972735     0.000017065462     0.000000000000
       2        0.000009426350    -0.000017755371    -0.000000000011
       3       -0.000007973313     0.000044342076     0.000000000006
       4       -0.000040381987     0.000112789938    -0.000000000008
       5        0.000014618827    -0.000017188267     0.000000000000
       6        0.000014695707    -0.000110166246    -0.000000000034
       7        0.000000688805    -0.000045213955    -0.000000000001
       8       -0.000017072985    -0.000077185080    -0.000000000069
       9        0.000001374103     0.000031721894     0.000000000008
      10       -0.000001331125     0.000104312326     0.000000000535
      11       -0.000001709632     0.000006267708     0.000000000050
      12       -0.000000226840    -0.000045202342    -0.000000000642
      13       -0.000007471996     0.000002376401     0.000000000580
      14        0.000009385340     0.000011337149    -0.000000000020
      15       -0.000013639783     0.000001120348     0.000008860028
      16        0.000023285521    -0.000019742254    -0.000000000014
      17       -0.000013639729     0.000001120212    -0.000008860410

  **** Optimization is complete! (in 1 steps) ****
    Final optimized geometry and variables:
    Molecular point group: c1

    Geometry (in Angstrom), charge = 0, multiplicity = 1:

    H           -3.650283330906     0.221983873563     0.000000000000
    C           -2.577024330906     0.154108873563     0.000000000000
    C           -1.960329330906    -1.089307126437     0.000000000000
    C           -1.811733330906     1.307556873563     0.000000000000
    H           -2.554473330906    -1.985285126437     0.000000000000
    C           -0.581547330906    -1.175855126437     0.000000000000
    H           -2.287118330906     2.271700873563     0.000000000000
    C           -0.428719330906     1.219220873563     0.000000000000
    H           -0.090826330906    -2.129898126437     0.000000000000
    C            0.198340669094    -0.021559126437     0.000000000000
    H            0.149946669094     2.124039873563     0.000000000000
    C            1.691354669094    -0.173192126437     0.000000000000
    C            2.557778669094     1.068923873563     0.000000000000
    O            2.191780669094    -1.258986126437     0.000000000000
    H            2.362208669094     1.677822873563    -0.876798000000
    H            3.594439669094     0.764253873563     0.000000000000
    H            2.362208669094     1.677822873563     0.876798000000

  Mulliken Charges: (a.u.)
   Center  Symbol    Alpha    Beta     Spin     Total
       1     H     0.39528  0.39528  0.00000  0.20945
       2     C     3.09209  3.09209  0.00000 -0.18418
       3     C     3.10403  3.10403  0.00000 -0.20806
       4     C     3.10437  3.10437  0.00000 -0.20874
       5     H     0.39518  0.39518  0.00000  0.20963
       6     C     3.08823  3.08823  0.00000 -0.17645
       7     H     0.39641  0.39641  0.00000  0.20717
       8     C     3.10299  3.10299  0.00000 -0.20598
       9     H     0.37598  0.37598  0.00000  0.24805
      10     C     3.05936  3.05936  0.00000 -0.11873
      11     H     0.39337  0.39337  0.00000  0.21326
      12     C     2.72513  2.72513  0.00000  0.54975
      13     C     3.29295  3.29295  0.00000 -0.58590
      14     O     4.26905  4.26905  0.00000 -0.53811
      15     H     0.40620  0.40620  0.00000  0.18759
      16     H     0.39318  0.39318  0.00000  0.21364
      17     H     0.40620  0.40620  0.00000  0.18759

   Total alpha = 32.00000, Total beta = 32.00000, Total charge = -0.00000
