  ==> Input File <==

--------------------------------------------------------------------------
set {
	reference rhf
	basis cc-pvtz
}

set_num_threads( 4 )
memory 2 gb

molecule MOL {
0 1

H	 -0.366580	 2.045936	 -0.305741
C	 0.351829	 1.335402	 0.083179
N	 -0.000018	 0.000080	 -0.334836
H	 1.327156	 1.599860	 -0.305475
H	 0.380566	 1.445403	 1.171445
C	 0.416531	 -0.268589	 -1.690079
C	 0.483797	 -0.999344	 0.586747
H	 0.076008	 -1.250396	 -1.993710
H	 -0.020244	 0.459085	 -2.362317
H	 1.502996	 -0.234216	 -1.814509
H	 0.096137	 -0.806074	 1.578991
H	 0.143414	 -1.980424	 0.280565
H	 1.575801	 -1.024877	 0.649894

	symmetry c1
}
set optking {
	frozen_dihedral = ("
		6 3 2 1
	")
}

ee = optimize('scf')
oeprop('DIPOLE', 'QUADRUPOLE', 'MULLIKEN_CHARGES')
f=open( 'psi4out.xyz', 'w' )
f.write( "13  " )
f.write( str(ee) + "\n" )
f.write( MOL.save_string_xyz() )
f.close()
--------------------------------------------------------------------------

    Molecular point group: c1
  Charge       = 0
  Multiplicity = 1
  Basis Set: CC-PVTZ
  Basis Set:
  @DF-RHF Final Energy:  -173.33100997597504
    Total Energy =                       -173.3310099759750926
    Molecular point group: c1
  Basis Set: CC-PVTZ
  Basis Set:
  Basis Set: CC-PVTZ
  Basis Set:
  @DF-RHF Final Energy:  -173.33199278942362
    Total Energy =                       -173.3319927894235661
  Basis Set: CC-PVTZ
  Basis Set:
  Basis Set: CC-PVTZ
  Basis Set:
  @DF-RHF Final Energy:  -173.33209432432946
    Total Energy =                       -173.3320943243296028
  Basis Set: CC-PVTZ
  Basis Set:
  Charge       = 0
  Multiplicity = 1
  Basis Set: CC-PVTZ
  Basis Set:

    Orbital Energies (a.u.)
    -----------------------

    Doubly Occupied:

       1A    -15.539669     2A    -11.234135     3A    -11.233999
       4A    -11.233969     5A     -1.226017     6A     -0.952215
       7A     -0.951147     8A     -0.807602     9A     -0.643364
      10A     -0.631052    11A     -0.628638    12A     -0.549382
      13A     -0.543510    14A     -0.514909    15A     -0.501756
      16A     -0.498884    17A     -0.350566

  @DF-RHF Final Energy:  -173.33209755675730

   => Energetics <=

    Nuclear Repulsion Energy =            139.4053114704449001
    One-Electron Energy =                -509.3931927345945496
    Two-Electron Energy =                 196.6557837073924020
    DFT Exchange-Correlation Energy =       0.0000000000000000
    Empirical Dispersion Energy =           0.0000000000000000
    PCM Polarization Energy =               0.0000000000000000
    EFP Energy =                            0.0000000000000000
    Total Energy =                       -173.3320975567572759
    Molecular point group: c1
  Basis Set: CC-PVTZ
  Basis Set:

  -Total Gradient:
     Atom            X                  Y                   Z
    ------   -----------------  -----------------  -----------------
       1       -0.002582742917    -0.000393857371     0.003872334219
       2        0.004234989150     0.000062883460    -0.004491744860
       3       -0.004685471803     0.001516420736    -0.000573980389
       4        0.000064762892    -0.000004687932    -0.000022714680
       5       -0.000001258865    -0.000014078724    -0.000056042492
       6        0.003037457571    -0.001084535234     0.001400586200
       7       -0.000145595091     0.000030832511    -0.000142904010
       8        0.000000020845    -0.000009708826     0.000021467252
       9       -0.000004324196     0.000013613723    -0.000046610002
      10        0.000020678795    -0.000019666590    -0.000015008790
      11        0.000029880523    -0.000013243749    -0.000001876491
      12        0.000025934771    -0.000083117089     0.000045411106
      13        0.000005668327    -0.000000854915     0.000011082936

  **** Optimization is complete! (in 4 steps) ****
    Final optimized geometry and variables:
    Molecular point group: c1

    Geometry (in Angstrom), charge = 0, multiplicity = 1:

    H           -0.684412485290     2.044352467552     0.016222395706
    C            0.025419407138     1.325558862660     0.408826403004
    N           -0.343461572704    -0.016437199844     0.011139164877
    H            1.032724751292     1.604063262744     0.093407385270
    H           -0.017045333136     1.410353122452     1.487234969630
    C            0.068472361433    -0.297101329147    -1.343960321185
    C            0.163042424507    -1.015707666267     0.924214610237
    H           -0.298215473136    -1.268266694393    -1.651691644685
    H           -0.344951280712     0.443340989471    -2.018130976479
    H            1.155872385731    -0.290136164144    -1.462691351994
    H           -0.221840454020    -0.838837848292     1.920140993873
    H           -0.165094792609    -1.998920294443     0.610755077080
    H            1.255866656771    -1.029375113939     0.979996022137

  Mulliken Charges: (a.u.)
   Center  Symbol    Alpha    Beta     Spin     Total
       1     H     0.45053  0.45053  0.00000  0.09894
       2     C     3.08886  3.08886  0.00000 -0.17772
       3     N     3.59742  3.59742  0.00000 -0.19484
       4     H     0.47105  0.47105  0.00000  0.05790
       5     H     0.45550  0.45550  0.00000  0.08900
       6     C     3.09042  3.09042  0.00000 -0.18084
       7     C     3.08877  3.08877  0.00000 -0.17753
       8     H     0.45278  0.45278  0.00000  0.09444
       9     H     0.45240  0.45240  0.00000  0.09520
      10     H     0.47309  0.47309  0.00000  0.05383
      11     H     0.45214  0.45214  0.00000  0.09572
      12     H     0.45284  0.45284  0.00000  0.09431
      13     H     0.47420  0.47420  0.00000  0.05159

   Total alpha = 17.00000, Total beta = 17.00000, Total charge = -0.00000
