                              Psi4 1.0.54 Driver

  ==> Input File <==

--------------------------------------------------------------------------
set {
	reference rhf
	basis cc-pvtz
}

set_num_threads( 4 )
memory 2 gb

molecule MOL {
0 1

H	 -3.162190	 0.493205	 -0.000107
C	 -2.363908	 -0.234727	 0.000005
O	 -1.158738	 0.454634	 -0.000087
H	 -2.464314	 -0.863616	 -0.882153
H	 -2.464327	 -0.863359	 0.882345
C	 -0.028611	 -0.359694	 0.000037
C	 1.212847	 0.509314	 -0.000053
H	 -0.034155	 -1.007047	 -0.877198
H	 -0.034195	 -1.006836	 0.877430
C	 2.432857	 -0.218093	 0.553846
H	 1.403587	 0.839064	 -1.015340
H	 1.011243	 1.399683	 0.585225
H	 2.667193	 -1.100294	 -0.032579
H	 3.304291	 0.424935	 0.542069
H	 2.272345	 -0.535661	 1.578763

	symmetry c1
}
set optking {
	frozen_dihedral = ("
		11 7 6 8
	")
}

ee,wfn = optimize('scf', return_wfn=True)
oeprop( wfn, 'DIPOLE', 'QUADRUPOLE', 'MULLIKEN_CHARGES')
f=open( 'psi4out.xyz', 'w' )
f.write( "15  " )
f.write( str(ee) + "\n" )
f.write( MOL.save_string_xyz() )
f.close()
--------------------------------------------------------------------------

    Molecular point group: c1
  Charge       = 0
  Multiplicity = 1
  Basis Set: CC-PVTZ
  Basis Set:
  @DF-RHF Final Energy:  -232.22624029340949
    Total Energy =                       -232.2262402934095462
    Molecular point group: c1
  Basis Set: CC-PVTZ
  Basis Set:
  Basis Set: CC-PVTZ
  Basis Set:
  @DF-RHF Final Energy:  -232.22646419584629
    Total Energy =                       -232.2264641958460629
  Basis Set: CC-PVTZ
  Basis Set:
  Basis Set: CC-PVTZ
  Basis Set:
  @DF-RHF Final Energy:  -232.22652318411517
    Total Energy =                       -232.2265231841153081
  Basis Set: CC-PVTZ
  Basis Set:
  Basis Set: CC-PVTZ
  Basis Set:
  @DF-RHF Final Energy:  -232.22652456925499
    Total Energy =                       -232.2265245692549911
  Basis Set: CC-PVTZ
  Basis Set:
  Charge       = 0
  Multiplicity = 1
  Basis Set: CC-PVTZ
  Basis Set:

    Orbital Energies (a.u.)
    -----------------------

    Doubly Occupied:

       1A    -20.546966     2A    -11.264638     3A    -11.261413
       4A    -11.212893     5A    -11.210352     6A     -1.380850
       7A     -1.057526     8A     -0.955567     9A     -0.876990
      10A     -0.809363    11A     -0.677046    12A     -0.655087
      13A     -0.632629    14A     -0.606688    15A     -0.565857
      16A     -0.543153    17A     -0.500216    18A     -0.489647
      19A     -0.479605    20A     -0.462710    21A     -0.416328

  @DF-RHF Final Energy:  -232.22652480557713

   => Energetics <=

    Nuclear Repulsion Energy =            189.9580141649233838
    One-Electron Energy =                -691.1580328322411333
    Two-Electron Energy =                 268.9734938617406215
    DFT Exchange-Correlation Energy =       0.0000000000000000
    Empirical Dispersion Energy =           0.0000000000000000
    PCM Polarization Energy =               0.0000000000000000
    EFP Energy =                            0.0000000000000000
    Total Energy =                       -232.2265248055771281
    Molecular point group: c1
  Basis Set: CC-PVTZ
  Basis Set:

  -Total Gradient:
     Atom            X                  Y                   Z
    ------   -----------------  -----------------  -----------------
       1        0.000007110356     0.000000134238     0.000002505379
       2       -0.000028573762    -0.000022094530    -0.000004392485
       3        0.000042155634    -0.000009800898     0.000000316437
       4       -0.000001525158     0.000003096668     0.000004614839
       5       -0.000002118002     0.000003108406    -0.000002796591
       6        0.002952125425    -0.004183794114     0.002393929304
       7       -0.003245082010     0.004663557752     0.000259285627
       8       -0.001983444005     0.002770376449    -0.002042232603
       9        0.000008355204     0.000002674601    -0.000004215948
      10        0.000003192456     0.000010918122     0.000010604101
      11        0.002241074350    -0.003220197658    -0.000611279720
      12        0.000002560872    -0.000008494274    -0.000003267142
      13       -0.000002280198    -0.000002741697    -0.000000059249
      14       -0.000000903874    -0.000003287464     0.000001440085
      15        0.000007352711    -0.000003455599    -0.000004452034

  **** Optimization is complete! (in 5 steps) ****
    Final optimized geometry and variables:
    Molecular point group: c1

    Geometry (in Angstrom), charge = 0, multiplicity = 1:

    H           -3.153049420762     0.476252133827    -0.159030982112
    C           -2.354330580361    -0.251301544164    -0.147515779224
    O           -1.150114803530     0.437454138766    -0.103492644276
    H           -2.430298068431    -0.867437488132    -1.041208145264
    H           -2.479597446280    -0.893371360211     0.722163264663
    C           -0.018775381029    -0.379602358321    -0.073331812039
    C            1.224293073830     0.494922025232    -0.093542661441
    H           -0.032850076224    -1.033423457897    -0.944611060083
    H           -0.035765327252    -1.003530483150     0.819359226423
    C            2.459311947598    -0.243587698700     0.415934898465
    H            1.411454825593     0.822479379901    -1.110129847990
    H            1.036564729454     1.374003897358     0.510046941674
    H            2.647630510835    -1.143536499425    -0.161135433185
    H            3.341523411550     0.380986839556     0.343916863204
    H            2.343655613275    -0.535667682272     1.454057839271

  Mulliken Charges: (a.u.)
   Center  Symbol    Alpha    Beta     Spin     Total
       1     H     0.44694  0.44694  0.00000  0.10612
       2     C     3.03161  3.03161  0.00000 -0.06321
       3     O     4.17226  4.17226  0.00000 -0.34452
       4     H     0.47220  0.47220  0.00000  0.05560
       5     H     0.47304  0.47304  0.00000  0.05391
       6     C     2.95749  2.95749  0.00000  0.08502
       7     C     3.08152  3.08152  0.00000 -0.16303
       8     H     0.47417  0.47417  0.00000  0.05167
       9     H     0.47595  0.47595  0.00000  0.04809
      10     C     3.15514  3.15514  0.00000 -0.31028
      11     H     0.45328  0.45328  0.00000  0.09344
      12     H     0.44797  0.44797  0.00000  0.10405
      13     H     0.45642  0.45642  0.00000  0.08716
      14     H     0.44706  0.44706  0.00000  0.10588
      15     H     0.45495  0.45495  0.00000  0.09009

   Total alpha = 21.00000, Total beta = 21.00000, Total charge = -0.00000

*** Psi4 exiting successfully. Buy a developer a beer!
