  ==> Input File <==

--------------------------------------------------------------------------
set {
	reference rhf
	basis 6-31G*
}

set_num_threads( 1 )
memory 2 gb

molecule MOL {
0 1

H	 -3.420663	 1.227371	 -1.044276
O	 -3.452007	 0.283848	 -0.965577
C	 -3.181085	 -0.079926	 0.364119
C	 -1.765924	 0.277073	 0.805136
H	 -3.327791	 -1.152017	 0.410903
H	 -3.905698	 0.375695	 1.036898
C	 -0.677594	 -0.417312	 -0.014550
H	 -1.637766	 1.358238	 0.744969
H	 -1.659588	 0.017670	 1.857098
C	 0.738335	 -0.034840	 0.421385
H	 -0.814977	 -0.178223	 -1.064632
H	 -0.802730	 -1.495410	 0.071702
C	 1.822265	 -0.738362	 -0.399735
H	 0.853533	 1.043532	 0.342250
H	 0.871597	 -0.279636	 1.474438
C	 3.258659	 -0.443405	 0.047397
H	 1.710867	 -0.468241	 -1.448697
H	 1.657822	 -1.812504	 -0.345013
C	 3.699932	 1.008371	 -0.147618
H	 3.932257	 -1.089737	 -0.510107
H	 3.373009	 -0.718074	 1.094146
H	 3.584676	 1.315148	 -1.183833
H	 4.745249	 1.132580	 0.118317
H	 3.125191	 1.693916	 0.466275

	symmetry c1
}
set optking {
	frozen_dihedral = ("
		20 16 13 17,
		13 10 7 11,
		11 7 4 3,
		1 2 3 5,
		7 4 3 2
	")
}

ee = energy('scf')
oeprop('DIPOLE', 'QUADRUPOLE', 'MULLIKEN_CHARGES')
f=open( 'psi4out.xyz', 'w' )
f.write( "24  " )
f.write( str(ee) + "\n" )
f.write( MOL.save_string_xyz() )
f.close()
--------------------------------------------------------------------------

    Molecular point group: c1

    Geometry (in Angstrom), charge = 0, multiplicity = 1:

       Center              X                  Y                   Z               Mass
    ------------   -----------------  -----------------  -----------------  -----------------
           H         -3.419546200088     1.224122525645    -1.040017774103     1.007825032070
           O         -3.450890200088     0.280599525645    -0.961318774103    15.994914619560
           C         -3.179968200088    -0.083174474355     0.368377225897    12.000000000000
           C         -1.764807200088     0.273824525645     0.809394225897    12.000000000000
           H         -3.326674200088    -1.155265474355     0.415161225897     1.007825032070
           H         -3.904581200088     0.372446525645     1.041156225897     1.007825032070
           C         -0.676477200088    -0.420560474355    -0.010291774103    12.000000000000
           H         -1.636649200088     1.354989525645     0.749227225897     1.007825032070
           H         -1.658471200088     0.014421525645     1.861356225897     1.007825032070
           C          0.739451799912    -0.038088474355     0.425643225897    12.000000000000
           H         -0.813860200088    -0.181471474355    -1.060373774103     1.007825032070
           H         -0.801613200088    -1.498658474355     0.075960225897     1.007825032070
           C          1.823381799912    -0.741610474355    -0.395476774103    12.000000000000
           H          0.854649799912     1.040283525645     0.346508225897     1.007825032070
           H          0.872713799912    -0.282884474355     1.478696225897     1.007825032070
           C          3.259775799912    -0.446653474355     0.051655225897    12.000000000000
           H          1.711983799912    -0.471489474355    -1.444438774103     1.007825032070
           H          1.658938799912    -1.815752474355    -0.340754774103     1.007825032070
           C          3.701048799912     1.005122525645    -0.143359774103    12.000000000000
           H          3.933373799912    -1.092985474355    -0.505848774103     1.007825032070
           H          3.374125799912    -0.721322474355     1.098404225897     1.007825032070
           H          3.585792799912     1.311899525645    -1.179574774103     1.007825032070
           H          4.746365799912     1.129331525645     0.122575225897     1.007825032070
           H          3.126307799912     1.690667525645     0.470533225897     1.007825032070

  Charge       = 0
  Multiplicity = 1
  Basis Set: 6-31G*
  Basis Set:

    Orbital Energies (a.u.)
    -----------------------

    Doubly Occupied:

       1A    -20.553570     2A    -11.267726     3A    -11.217478
       4A    -11.214086     5A    -11.212455     6A    -11.211598
       7A    -11.211123     8A    -11.207399     9A     -1.360163
      10A     -1.088565    11A     -1.048319    12A     -0.985650
      13A     -0.915020    14A     -0.850458    15A     -0.800768
      16A     -0.776262    17A     -0.679071    18A     -0.653736
      19A     -0.625320    20A     -0.619783    21A     -0.596897
      22A     -0.584518    23A     -0.557794    24A     -0.540820
      25A     -0.514673    26A     -0.509115    27A     -0.499358
      28A     -0.472772    29A     -0.467495    30A     -0.459612
      31A     -0.455452    32A     -0.450852    33A     -0.419021

  @DF-RHF Final Energy:  -349.24763012453883

   => Energetics <=

    Nuclear Repulsion Energy =            384.4985537275220508
    One-Electron Energy =               -1235.4383570159143346
    Two-Electron Energy =                 501.6921731638533970
    DFT Exchange-Correlation Energy =       0.0000000000000000
    Empirical Dispersion Energy =           0.0000000000000000
    PCM Polarization Energy =               0.0000000000000000
    EFP Energy =                            0.0000000000000000
    Total Energy =                       -349.2476301245389436

  Mulliken Charges: (a.u.)
   Center  Symbol    Alpha    Beta     Spin     Total
       1     H     0.28338  0.28338  0.00000  0.43323
       2     O     4.36830  4.36830  0.00000 -0.73659
       3     C     2.99616  2.99616  0.00000  0.00767
       4     C     3.16901  3.16901  0.00000 -0.33801
       5     H     0.41632  0.41632  0.00000  0.16736
       6     H     0.42817  0.42817  0.00000  0.14366
       7     C     3.15176  3.15176  0.00000 -0.30353
       8     H     0.42833  0.42833  0.00000  0.14334
       9     H     0.42236  0.42236  0.00000  0.15528
      10     C     3.15361  3.15361  0.00000 -0.30723
      11     H     0.41206  0.41206  0.00000  0.17588
      12     H     0.42361  0.42361  0.00000  0.15278
      13     C     3.15224  3.15224  0.00000 -0.30448
      14     H     0.42296  0.42296  0.00000  0.15409
      15     H     0.42544  0.42544  0.00000  0.14913
      16     C     3.15230  3.15230  0.00000 -0.30461
      17     H     0.42364  0.42364  0.00000  0.15272
      18     H     0.42207  0.42207  0.00000  0.15586
      19     C     3.24104  3.24104  0.00000 -0.48209
      20     H     0.42105  0.42105  0.00000  0.15790
      21     H     0.42378  0.42378  0.00000  0.15244
      22     H     0.42228  0.42228  0.00000  0.15543
      23     H     0.41953  0.41953  0.00000  0.16094
      24     H     0.42059  0.42059  0.00000  0.15881

   Total alpha = 33.00000, Total beta = 33.00000, Total charge = -0.00000
