  ==> Input File <==

--------------------------------------------------------------------------
set {
	reference rhf
	basis 6-31G*
}

set_num_threads( 4 )
memory 2 gb

molecule MOL {
0 1

O	 -2.439739	 -0.935931	 -0.423848
C	 -1.921153	 0.064240	 -0.045697
C	 -2.624470	 1.379923	 0.150949
O	 -0.632575	 0.154573	 0.251549
H	 -2.168117	 2.136577	 -0.476876
H	 -3.669540	 1.273223	 -0.098610
H	 -2.519365	 1.700893	 1.180846
C	 0.160891	 -1.019931	 0.106212
C	 1.589627	 -0.672828	 0.480843
H	 0.089836	 -1.367806	 -0.916050
H	 -0.238459	 -1.792301	 0.749618
C	 1.982489	 -1.101768	 1.895788
H	 1.700649	 0.405059	 0.382021
H	 2.262202	 -1.124442	 -0.243689
C	 3.417521	 -0.713182	 2.248894
H	 1.298715	 -0.648271	 2.610556
H	 1.862535	 -2.175922	 1.991521
H	 3.672022	 -1.028787	 3.255698
H	 3.559379	 0.362509	 2.193734
H	 4.127296	 -1.175083	 1.568493

	symmetry c1
}
set optking {
	frozen_dihedral = ("
		12 9 8 10
	")
}

ee = optimize('scf')
oeprop('DIPOLE', 'QUADRUPOLE', 'MULLIKEN_CHARGES')
f=open( 'psi4out.xyz', 'w' )
f.write( "20  " )
f.write( str(ee) + "\n" )
f.write( MOL.save_string_xyz() )
f.close()
--------------------------------------------------------------------------

    Molecular point group: c1
  Charge       = 0
  Multiplicity = 1
  Basis Set: 6-31G*
  Basis Set:
  @DF-RHF Final Energy:  -383.94118015075298
    Total Energy =                       -383.9411801507529844
    Molecular point group: c1
  Basis Set: 6-31G*
  Basis Set:
  Basis Set: 6-31G*
  Basis Set:
  @DF-RHF Final Energy:  -383.94143471096930
    Total Energy =                       -383.9414347109695882
  Basis Set: 6-31G*
  Basis Set:
  Basis Set: 6-31G*
  Basis Set:
  @DF-RHF Final Energy:  -383.94064216012919
    Total Energy =                       -383.9406421601293005
  Basis Set: 6-31G*
  Basis Set:
  Basis Set: 6-31G*
  Basis Set:
  @DF-RHF Final Energy:  -383.94154023732256
    Total Energy =                       -383.9415402373226698
  Basis Set: 6-31G*
  Basis Set:
  Basis Set: 6-31G*
  Basis Set:
  @DF-RHF Final Energy:  -383.94154160139931
    Total Energy =                       -383.9415416013994218
  Basis Set: 6-31G*
  Basis Set:
  Basis Set: 6-31G*
  Basis Set:
  @DF-RHF Final Energy:  -383.94154567629903
    Total Energy =                       -383.9415456762988015
  Basis Set: 6-31G*
  Basis Set:
  Charge       = 0
  Multiplicity = 1
  Basis Set: 6-31G*
  Basis Set:

    Orbital Energies (a.u.)
    -----------------------

    Doubly Occupied:

       1A    -20.601861     2A    -20.543849     3A    -11.374099
       4A    -11.281782     5A    -11.233169     6A    -11.224671
       7A    -11.223426     8A    -11.214387     9A     -1.467791
      10A     -1.361916    11A     -1.085460    12A     -1.028880
      13A     -0.980126    14A     -0.881428    15A     -0.807814
      16A     -0.781502    17A     -0.689290    18A     -0.680358
      19A     -0.667646    20A     -0.631576    21A     -0.601993
      22A     -0.592448    23A     -0.571292    24A     -0.553542
      25A     -0.544393    26A     -0.526386    27A     -0.512985
      28A     -0.481407    29A     -0.479130    30A     -0.475036
      31A     -0.446408    32A     -0.437660

  @DF-RHF Final Energy:  -383.94154586235936

   => Energetics <=

    Nuclear Repulsion Energy =            381.8189870507629848
    One-Electron Energy =               -1279.5536439953957597
    Two-Electron Energy =                 513.7931110822732990
    DFT Exchange-Correlation Energy =       0.0000000000000000
    Empirical Dispersion Energy =           0.0000000000000000
    PCM Polarization Energy =               0.0000000000000000
    EFP Energy =                            0.0000000000000000
    Total Energy =                       -383.9415458623594759
    Molecular point group: c1
  Basis Set: 6-31G*
  Basis Set:

  -Total Gradient:
     Atom            X                  Y                   Z
    ------   -----------------  -----------------  -----------------
       1        0.000014710219    -0.000005283477     0.000000328068
       2        0.000026269834    -0.000009890944     0.000033660350
       3        0.000002663048     0.000005745260    -0.000011440836
       4       -0.000005640492     0.000014791004     0.000019443227
       5       -0.000002457171     0.000008157768    -0.000000932611
       6        0.000001849216    -0.000000688750    -0.000003146104
       7        0.000003068287    -0.000004871928    -0.000003189758
       8       -0.000331835991     0.004186011670    -0.002324047566
       9       -0.001221652636     0.002817628605     0.001894181682
      10        0.000611345812    -0.004187873445     0.001447084349
      11        0.000004839261     0.000011439110     0.000025687026
      12        0.000935347456    -0.002831564909    -0.001050811334
      13       -0.000020072928     0.000000841282     0.000004591063
      14       -0.000023681271    -0.000013924143    -0.000033796939
      15       -0.000001220362     0.000005963539    -0.000004957606
      16       -0.000006590029    -0.000012037181     0.000014670351
      17        0.000013608328     0.000010353966    -0.000008740025
      18       -0.000002185773    -0.000000674948    -0.000002519764
      19        0.000002917650     0.000002873585     0.000006378220
      20       -0.000001282458     0.000003003936    -0.000002441791

  **** Optimization is complete! (in 7 steps) ****
    Final optimized geometry and variables:
    Molecular point group: c1

    Geometry (in Angstrom), charge = 0, multiplicity = 1:

    O           -2.378163345161    -0.598835732623    -0.958608491518
    C           -1.853092649735     0.410215904569    -0.614029838500
    C           -2.558478101411     1.723790842317    -0.409928859135
    O           -0.556144016573     0.513038669733    -0.361582450271
    H           -2.129945450664     2.474728036762    -1.063625153976
    H           -3.610852359200     1.606494758772    -0.621133569670
    H           -2.419487395011     2.059444843368     0.611262335337
    C            0.238033717887    -0.659014136724    -0.514303042006
    C            1.676123527898    -0.322057187975    -0.125261135695
    H            0.163194289062    -1.022118051043    -1.529975870293
    H           -0.169419477113    -1.434919896785     0.120795734717
    C            2.037373251774    -0.738567583269     1.302425548108
    H            1.832982380735     0.742626660800    -0.262943635319
    H            2.349804867269    -0.825211719563    -0.814593912276
    C            3.466962495178    -0.360450946729     1.684959996862
    H            1.340609024964    -0.278213171675     1.999387548005
    H            1.907604944848    -1.813623569765     1.402625485067
    H            3.699323180085    -0.678041352533     2.696423056258
    H            3.615130482879     0.714308862506     1.632827301431
    H            4.187734721431    -0.825792949834     1.018332957788

  Mulliken Charges: (a.u.)
   Center  Symbol    Alpha    Beta     Spin     Total
       1     O     4.28353  4.28353  0.00000 -0.56706
       2     C     2.61971  2.61971  0.00000  0.76058
       3     C     3.28153  3.28153  0.00000 -0.56305
       4     O     4.30859  4.30859  0.00000 -0.61718
       5     H     0.40058  0.40058  0.00000  0.19884
       6     H     0.39694  0.39694  0.00000  0.20611
       7     H     0.40078  0.40078  0.00000  0.19844
       8     C     3.00420  3.00420  0.00000 -0.00840
       9     C     3.16679  3.16679  0.00000 -0.33359
      10     H     0.40847  0.40847  0.00000  0.18306
      11     H     0.40907  0.40907  0.00000  0.18187
      12     C     3.15686  3.15686  0.00000 -0.31372
      13     H     0.40750  0.40750  0.00000  0.18501
      14     H     0.41789  0.41789  0.00000  0.16422
      15     C     3.24077  3.24077  0.00000 -0.48153
      16     H     0.41765  0.41765  0.00000  0.16469
      17     H     0.42095  0.42095  0.00000  0.15811
      18     H     0.41721  0.41721  0.00000  0.16558
      19     H     0.41992  0.41992  0.00000  0.16016
      20     H     0.42106  0.42106  0.00000  0.15788

   Total alpha = 32.00000, Total beta = 32.00000, Total charge =  0.00000
