                              Psi4 1.0.54 Driver

  ==> Input File <==

--------------------------------------------------------------------------
set {
	reference rhf
	basis cc-pvtz
}

set_num_threads( 4 )
memory 2 gb

molecule MOL {
0 1

O	 -2.440701	 -0.934798	 -0.415053
C	 -1.922978	 0.063265	 -0.045005
C	 -2.632749	 1.372204	 0.158357
O	 -0.637375	 0.157174	 0.243149
H	 -2.187724	 2.129143	 -0.474664
H	 -3.677681	 1.257276	 -0.079438
H	 -2.516788	 1.693160	 1.185542
C	 0.162530	 -1.009518	 0.097799
C	 1.587210	 -0.664190	 0.477086
H	 0.096803	 -1.356267	 -0.924704
H	 -0.233803	 -1.785900	 0.736810
C	 2.256770	 0.342732	 -0.454344
H	 2.154716	 -1.590834	 0.479041
H	 1.598751	 -0.289614	 1.496104
C	 1.497638	 1.662786	 -0.536767
H	 3.269704	 0.529754	 -0.107812
H	 2.344591	 -0.087324	 -1.445395
H	 1.996074	 2.359629	 -1.200360
H	 1.419067	 2.133116	 0.437916
H	 0.490878	 1.512050	 -0.911907

	symmetry c1
}
set optking {
	frozen_dihedral = ("
		16 12 9 8
	")
}

ee,wfn = optimize('scf', return_wfn=True)
oeprop( wfn, 'DIPOLE', 'QUADRUPOLE', 'MULLIKEN_CHARGES')
f=open( 'psi4out.xyz', 'w' )
f.write( "20  " )
f.write( str(ee) + "\n" )
f.write( MOL.save_string_xyz() )
f.close()
--------------------------------------------------------------------------

    Molecular point group: c1
  Charge       = 0
  Multiplicity = 1
  Basis Set: CC-PVTZ
  Basis Set:
  @DF-RHF Final Energy:  -384.07784277832587
    Total Energy =                       -384.0778427783258167
    Molecular point group: c1
  Basis Set: CC-PVTZ
  Basis Set:
  Basis Set: CC-PVTZ
  Basis Set:
  @DF-RHF Final Energy:  -383.08969886565922
    Total Energy =                       -383.0896988656596136
  Basis Set: CC-PVTZ
  Basis Set:
  Basis Set: CC-PVTZ
  Basis Set:
  @DF-RHF Final Energy:  -383.30288544132088
    Total Energy =                       -383.3028854413209956
  Basis Set: CC-PVTZ
  Basis Set:
  Basis Set: CC-PVTZ
  Basis Set:
  @DF-RHF Final Energy:  -383.61111992632976
    Total Energy =                       -383.6111199263299341
  Basis Set: CC-PVTZ
  Basis Set:
  @DF-RHF Final Energy:  -383.88597072912023
    Total Energy =                       -383.8859707291204018
  @DF-RHF Final Energy:  -384.02380151514882
    Total Energy =                       -384.0238015151487616
  @DF-RHF Final Energy:  -383.96925558145688
    Total Energy =                       -383.9692555814569346
  @DF-RHF Final Energy:  -383.93075857272106
    Total Energy =                       -383.9307585727210608
  @DF-RHF Final Energy:  -383.96792565929206
    Total Energy =                       -383.9679256592922911
  @DF-RHF Final Energy:  -384.04751209775543
    Total Energy =                       -384.0475120977558845
  @DF-RHF Final Energy:  -384.06652891665482
    Total Energy =                       -384.0665289166547609
  @DF-RHF Final Energy:  -384.07574991262902
    Total Energy =                       -384.0757499126291350
  @DF-RHF Final Energy:  -384.08167120020926
    Total Energy =                       -384.0816712002097120
  @DF-RHF Final Energy:  -384.08341883851517
    Total Energy =                       -384.0834188385152856
  @DF-RHF Final Energy:  -384.08276897565287
    Total Energy =                       -384.0827689756526979
  @DF-RHF Final Energy:  -384.08347241648346
    Total Energy =                       -384.0834724164834597
  Basis Set: CC-PVTZ
  Basis Set:
  @DF-RHF Final Energy:  -384.08400060006642
    Total Energy =                       -384.0840006000668154
  Basis Set: CC-PVTZ
  Basis Set:
  Basis Set: CC-PVTZ
  Basis Set:
  @DF-RHF Final Energy:  -384.08402721033832
    Total Energy =                       -384.0840272103386042
  Basis Set: CC-PVTZ
  Basis Set:
  Basis Set: CC-PVTZ
  Basis Set:
  @DF-RHF Final Energy:  -384.08403041004840
    Total Energy =                       -384.0840304100480580
  Basis Set: CC-PVTZ
  Basis Set:
  Charge       = 0
  Multiplicity = 1
  Basis Set: CC-PVTZ
  Basis Set:

    Orbital Energies (a.u.)
    -----------------------

    Doubly Occupied:

       1A    -20.594107     2A    -20.532811     3A    -11.366722
       4A    -11.280621     5A    -11.231709     6A    -11.224396
       7A    -11.220990     8A    -11.207837     9A     -1.471140
      10A     -1.365222    11A     -1.085332    12A     -1.027797
      13A     -0.980289    14A     -0.891267    15A     -0.799181
      16A     -0.780416    17A     -0.693334    18A     -0.689853
      19A     -0.669139    20A     -0.622652    21A     -0.607893
      22A     -0.589049    23A     -0.574554    24A     -0.556415
      25A     -0.547484    26A     -0.532350    27A     -0.513676
      28A     -0.482729    29A     -0.476540    30A     -0.470144
      31A     -0.448698    32A     -0.441430

  @DF-RHF Final Energy:  -384.08403125982238

   => Energetics <=

    Nuclear Repulsion Energy =            394.1023013743382535
    One-Electron Energy =               -1304.4211116681151452
    Two-Electron Energy =                 526.2347790339539415
    DFT Exchange-Correlation Energy =       0.0000000000000000
    Empirical Dispersion Energy =           0.0000000000000000
    PCM Polarization Energy =               0.0000000000000000
    EFP Energy =                            0.0000000000000000
    Total Energy =                       -384.0840312598229502
    Molecular point group: c1
  Basis Set: CC-PVTZ
  Basis Set:

  -Total Gradient:
     Atom            X                  Y                   Z
    ------   -----------------  -----------------  -----------------
       1        0.000019298792     0.000030411806    -0.000102523822
       2       -0.000058634122    -0.000032479219     0.000106581277
       3        0.000002660258    -0.000003414200    -0.000034036719
       4        0.000050442810    -0.000051117182    -0.000001140755
       5        0.000003887375     0.000013938323     0.000024036017
       6       -0.000036775614     0.000021375368    -0.000016841074
       7        0.000006445963    -0.000013102288     0.000008296732
       8       -0.001019083914    -0.000248974099     0.000773787686
       9        0.001255485678     0.000392969807    -0.000834596034
      10        0.000002332844    -0.000011008368    -0.000008079275
      11       -0.000031613762    -0.000038729154    -0.000032303472
      12        0.001176623938     0.000443873703    -0.000791438234
      13       -0.000005490474    -0.000005467068    -0.000018617118
      14        0.000007518512    -0.000004032942    -0.000000387033
      15        0.000018825796     0.000020637295    -0.000027646482
      16       -0.001353599605    -0.000522353276     0.000953583238
      17       -0.000007586815    -0.000010928128    -0.000008663943
      18        0.000000820014    -0.000004677308     0.000016039045
      19        0.000005170805    -0.000010811525    -0.000000984258
      20       -0.000036728483     0.000033888458    -0.000005065781

  **** Optimization is complete! (in 18 steps) ****
    Final optimized geometry and variables:
    Molecular point group: c1

    Geometry (in Angstrom), charge = 0, multiplicity = 1:

    O           -1.224912814509     0.755762070109    -1.998137221873
    C           -1.417690847122     0.314354321358    -0.916763603987
    C           -2.745385895486     0.320952858671    -0.213254241683
    O           -0.478263516837    -0.248536911661    -0.178328566913
    H           -2.661582734967     0.871377443982     0.715096967266
    H           -3.488482794363     0.775596323162    -0.847999048006
    H           -3.032708004827    -0.693480745292     0.031206012424
    C            0.831040098086    -0.335376593275    -0.726718351649
    C            1.741075678594    -1.045014106723     0.259569285104
    H            1.186017432666     0.660641256331    -0.956789289132
    H            0.775321602349    -0.885516155788    -1.655169436316
    C            2.251313193907    -0.214360011922     1.440053241849
    H            2.600838033196    -1.399139732767    -0.300602523313
    H            1.224811329467    -1.928380980764     0.622346089889
    C            1.180610553521     0.388627301464     2.346831498322
    H            2.881403536102    -0.859705597170     2.044284130745
    H            2.891931488446     0.579042224474     1.065257685789
    H            1.642969276526     0.869870352667     3.201208658543
    H            0.505633459688    -0.374335342099     2.718292962693
    H            0.584463266432     1.130610670044     1.832364236651

  Mulliken Charges: (a.u.)
   Center  Symbol    Alpha    Beta     Spin     Total
       1     O     4.19719  4.19719  0.00000 -0.39437
       2     C     2.80962  2.80962  0.00000  0.38077
       3     C     3.13786  3.13786  0.00000 -0.27571
       4     O     4.15258  4.15258  0.00000 -0.30517
       5     H     0.44597  0.44597  0.00000  0.10806
       6     H     0.43764  0.43764  0.00000  0.12471
       7     H     0.44578  0.44578  0.00000  0.10844
       8     C     2.99785  2.99785  0.00000  0.00430
       9     C     3.09332  3.09332  0.00000 -0.18664
      10     H     0.44922  0.44922  0.00000  0.10157
      11     H     0.44138  0.44138  0.00000  0.11725
      12     C     3.09274  3.09274  0.00000 -0.18549
      13     H     0.44539  0.44539  0.00000  0.10922
      14     H     0.45079  0.45079  0.00000  0.09842
      15     C     3.14491  3.14491  0.00000 -0.28981
      16     H     0.44884  0.44884  0.00000  0.10231
      17     H     0.45251  0.45251  0.00000  0.09498
      18     H     0.44788  0.44788  0.00000  0.10424
      19     H     0.45343  0.45343  0.00000  0.09314
      20     H     0.45511  0.45511  0.00000  0.08979

   Total alpha = 32.00000, Total beta = 32.00000, Total charge = -0.00000

*** Psi4 exiting successfully. Buy a developer a beer!
