  ==> Input File <==

--------------------------------------------------------------------------
set {
	reference rhf
	basis 6-31G*
}

set_num_threads( 1 )
memory 2 gb

molecule MOL {
0 1

H	 -3.161837	 0.500524	 -0.000234
C	 -2.367097	 -0.232926	 -0.000000
O	 -1.158440	 0.455814	 -0.000122
H	 -2.468853	 -0.861886	 -0.882833
H	 -2.468942	 -0.861421	 0.883154
C	 -0.029776	 -0.365156	 0.000148
C	 1.212217	 0.508981	 0.000007
H	 -0.036772	 -1.013236	 -0.877259
H	 -0.036869	 -1.012778	 0.877897
C	 2.370838	 -0.121706	 0.771181
H	 1.503340	 0.693246	 -1.029535
H	 0.955390	 1.472162	 0.430149
H	 2.659955	 -1.076710	 0.341295
H	 3.243116	 0.523059	 0.755182
H	 2.107872	 -0.292954	 1.811339

	symmetry c1
}
set optking {
	frozen_dihedral = ("
		6 3 2 4,
		8 6 3 2
	")
}

ee = energy('scf')
oeprop('DIPOLE', 'QUADRUPOLE', 'MULLIKEN_CHARGES')
f=open( 'psi4out.xyz', 'w' )
f.write( "15  " )
f.write( str(ee) + "\n" )
f.write( MOL.save_string_xyz() )
f.close()
--------------------------------------------------------------------------

    Molecular point group: c1

    Geometry (in Angstrom), charge = 0, multiplicity = 1:

       Center              X                  Y                   Z               Mass
    ------------   -----------------  -----------------  -----------------  -----------------
           H         -3.135098632741     0.462508535834    -0.156583534162     1.007825032070
           C         -2.340358632741    -0.270941464166    -0.156349534162    12.000000000000
           O         -1.131701632741     0.417798535834    -0.156471534162    15.994914619560
           H         -2.442114632741    -0.899901464166    -1.039182534162     1.007825032070
           H         -2.442203632741    -0.899436464166     0.726804465838     1.007825032070
           C         -0.003037632741    -0.403171464166    -0.156201534162    12.000000000000
           C          1.238955367259     0.470965535834    -0.156342534162    12.000000000000
           H         -0.010033632741    -1.051251464166    -1.033608534162     1.007825032070
           H         -0.010130632741    -1.050793464166     0.721547465838     1.007825032070
           C          2.397576367259    -0.159721464166     0.614831465838    12.000000000000
           H          1.530078367259     0.655230535834    -1.185884534162     1.007825032070
           H          0.982128367259     1.434146535834     0.273799465838     1.007825032070
           H          2.686693367259    -1.114725464166     0.184945465838     1.007825032070
           H          3.269854367259     0.485043535834     0.598832465838     1.007825032070
           H          2.134610367259    -0.330969464166     1.654989465838     1.007825032070

  Charge       = 0
  Multiplicity = 1
  Basis Set: 6-31G*
  Basis Set:

    Orbital Energies (a.u.)
    -----------------------

    Doubly Occupied:

       1A    -20.553450     2A    -11.265427     3A    -11.263652
       4A    -11.213000     5A    -11.211979     6A     -1.378372
       7A     -1.056806     8A     -0.954692     9A     -0.877805
      10A     -0.808758    11A     -0.673368    12A     -0.655592
      13A     -0.631088    14A     -0.602301    15A     -0.568112
      16A     -0.542882    17A     -0.498405    18A     -0.488833
      19A     -0.478028    20A     -0.461883    21A     -0.412294

  @DF-RHF Final Energy:  -232.13577506996688

   => Energetics <=

    Nuclear Repulsion Energy =            190.0397892481031477
    One-Electron Energy =                -691.1577639034597951
    Two-Electron Energy =                 268.9821995853896510
    DFT Exchange-Correlation Energy =       0.0000000000000000
    Empirical Dispersion Energy =           0.0000000000000000
    PCM Polarization Energy =               0.0000000000000000
    EFP Energy =                            0.0000000000000000
    Total Energy =                       -232.1357750699669964

  Mulliken Charges: (a.u.)
   Center  Symbol    Alpha    Beta     Spin     Total
       1     H     0.41229  0.41229  0.00000  0.17542
       2     C     3.07962  3.07962  0.00000 -0.15925
       3     O     4.30526  4.30526  0.00000 -0.61052
       4     H     0.43053  0.43053  0.00000  0.13895
       5     H     0.43042  0.43042  0.00000  0.13916
       6     C     2.98423  2.98423  0.00000  0.03155
       7     C     3.16349  3.16349  0.00000 -0.32699
       8     H     0.43174  0.43174  0.00000  0.13653
       9     H     0.43208  0.43208  0.00000  0.13584
      10     C     3.24731  3.24731  0.00000 -0.49463
      11     H     0.41803  0.41803  0.00000  0.16394
      12     H     0.40666  0.40666  0.00000  0.18667
      13     H     0.42219  0.42219  0.00000  0.15562
      14     H     0.41698  0.41698  0.00000  0.16604
      15     H     0.41917  0.41917  0.00000  0.16165

   Total alpha = 21.00000, Total beta = 21.00000, Total charge =  0.00000
