  ==> Input File <==

--------------------------------------------------------------------------
set {
	reference rhf
	basis 6-31G*
}

set_num_threads( 1 )
memory 2 gb

molecule MOL {
0 1

H	 2.089532	 0.554382	 -3.100174
O	 2.362758	 -0.115411	 -3.709924
C	 2.672632	 -1.294188	 -3.010983
C	 1.441309	 -2.018050	 -2.477509
H	 3.191353	 -1.928167	 -3.718566
H	 3.365659	 -1.083697	 -2.197235
C	 0.658050	 -1.224027	 -1.429225
H	 0.791395	 -2.256412	 -3.315460
H	 1.764330	 -2.964575	 -2.047260
C	 -0.540329	 -1.999035	 -0.874187
H	 0.314877	 -0.292218	 -1.870055
H	 1.322046	 -0.956351	 -0.607155
C	 -1.309753	 -1.282496	 0.241564
H	 -1.223165	 -2.233834	 -1.688712
H	 -0.187273	 -2.953918	 -0.490456
C	 -2.037799	 -0.007733	 -0.193645
H	 -2.040577	 -1.975959	 0.652443
H	 -0.626038	 -1.047323	 1.055853
C	 -3.489788	 0.042957	 0.286558
H	 -2.017067	 0.064384	 -1.280144
H	 -1.513726	 0.868678	 0.179924
C	 -4.216917	 1.317354	 -0.141063
H	 -4.025645	 -0.823308	 -0.095450
H	 -3.513059	 -0.038752	 1.371301
H	 -4.239342	 1.411634	 -1.223113
H	 -5.243387	 1.322503	 0.212445
H	 -3.726170	 2.201406	 0.256408

	symmetry c1
}
set optking {
	frozen_dihedral = ("
		14 10 7 4,
		14 10 13 16,
		10 7 4 8,
		8 4 3 2,
		20 16 19 22,
		4 3 2 1
	")
}

ee = energy('scf')
oeprop('DIPOLE', 'QUADRUPOLE', 'MULLIKEN_CHARGES')
f=open( 'psi4out.xyz', 'w' )
f.write( "27  " )
f.write( str(ee) + "\n" )
f.write( MOL.save_string_xyz() )
f.close()
--------------------------------------------------------------------------

    Molecular point group: c1

    Geometry (in Angstrom), charge = 0, multiplicity = 1:

       Center              X                  Y                   Z               Mass
    ------------   -----------------  -----------------  -----------------  -----------------
           H          2.548411998451     1.258685398381    -1.804855117091     1.007825032070
           O          2.821637998451     0.588892398381    -2.414605117091    15.994914619560
           C          3.131511998451    -0.589884601619    -1.715664117091    12.000000000000
           C          1.900188998451    -1.313746601619    -1.182190117091    12.000000000000
           H          3.650232998451    -1.223863601619    -2.423247117091     1.007825032070
           H          3.824538998451    -0.379393601619    -0.901916117091     1.007825032070
           C          1.116929998451    -0.519723601619    -0.133906117091    12.000000000000
           H          1.250274998451    -1.552108601619    -2.020141117091     1.007825032070
           H          2.223209998451    -2.260271601619    -0.751941117091     1.007825032070
           C         -0.081449001549    -1.294731601619     0.421131882909    12.000000000000
           H          0.773756998451     0.412085398381    -0.574736117091     1.007825032070
           H          1.780925998451    -0.252047601619     0.688163882909     1.007825032070
           C         -0.850873001549    -0.578192601619     1.536882882909    12.000000000000
           H         -0.764285001549    -1.529530601619    -0.393393117091     1.007825032070
           H          0.271606998451    -2.249614601619     0.804862882909     1.007825032070
           C         -1.578919001549     0.696570398381     1.101673882909    12.000000000000
           H         -1.581697001549    -1.271655601619     1.947761882909     1.007825032070
           H         -0.167158001549    -0.343019601619     2.351171882909     1.007825032070
           C         -3.030908001549     0.747260398381     1.581876882909    12.000000000000
           H         -1.558187001549     0.768687398381     0.015174882909     1.007825032070
           H         -1.054846001549     1.572981398381     1.475242882909     1.007825032070
           C         -3.758037001549     2.021657398381     1.154255882909    12.000000000000
           H         -3.566765001549    -0.119004601619     1.199868882909     1.007825032070
           H         -3.054179001549     0.665551398381     2.666619882909     1.007825032070
           H         -3.780462001549     2.115937398381     0.072205882909     1.007825032070
           H         -4.784507001549     2.026806398381     1.507763882909     1.007825032070
           H         -3.267290001549     2.905709398381     1.551726882909     1.007825032070

  Charge       = 0
  Multiplicity = 1
  Basis Set: 6-31G*
  Basis Set:

    Orbital Energies (a.u.)
    -----------------------

    Doubly Occupied:

       1A    -20.552280     2A    -11.267086     3A    -11.219944
       4A    -11.217426     5A    -11.216179     6A    -11.215314
       7A    -11.214288     8A    -11.213132     9A    -11.208738
      10A     -1.359038    11A     -1.095385    12A     -1.061425
      13A     -1.011112    14A     -0.948398    15A     -0.887476
      16A     -0.821251    17A     -0.803025    18A     -0.776169
      19A     -0.693649    20A     -0.655355    21A     -0.629021
      22A     -0.615435    23A     -0.603747    24A     -0.586849
      25A     -0.577669    26A     -0.555593    27A     -0.537098
      28A     -0.531257    29A     -0.505934    30A     -0.493259
      31A     -0.484294    32A     -0.477372    33A     -0.469655
      34A     -0.453798    35A     -0.453129    36A     -0.442487
      37A     -0.422549

  @DF-RHF Final Energy:  -388.27731997180041

   => Energetics <=

    Nuclear Repulsion Energy =            460.1212266265732183
    One-Electron Energy =               -1438.2449741683381035
    Two-Electron Energy =                 589.8464275699648169
    DFT Exchange-Correlation Energy =       0.0000000000000000
    Empirical Dispersion Energy =           0.0000000000000000
    PCM Polarization Energy =               0.0000000000000000
    EFP Energy =                            0.0000000000000000
    Total Energy =                       -388.2773199718001251

  Mulliken Charges: (a.u.)
   Center  Symbol    Alpha    Beta     Spin     Total
       1     H     0.27982  0.27982  0.00000  0.44036
       2     O     4.37100  4.37100  0.00000 -0.74200
       3     C     2.99735  2.99735  0.00000  0.00531
       4     C     3.16109  3.16109  0.00000 -0.32218
       5     H     0.41444  0.41444  0.00000  0.17111
       6     H     0.43199  0.43199  0.00000  0.13601
       7     C     3.16267  3.16267  0.00000 -0.32535
       8     H     0.41510  0.41510  0.00000  0.16979
       9     H     0.42416  0.42416  0.00000  0.15167
      10     C     3.15380  3.15380  0.00000 -0.30760
      11     H     0.42283  0.42283  0.00000  0.15434
      12     H     0.42536  0.42536  0.00000  0.14929
      13     C     3.15640  3.15640  0.00000 -0.31279
      14     H     0.42177  0.42177  0.00000  0.15646
      15     H     0.42219  0.42219  0.00000  0.15562
      16     C     3.15350  3.15350  0.00000 -0.30700
      17     H     0.41865  0.41865  0.00000  0.16271
      18     H     0.42218  0.42218  0.00000  0.15564
      19     C     3.15391  3.15391  0.00000 -0.30782
      20     H     0.42165  0.42165  0.00000  0.15670
      21     H     0.42223  0.42223  0.00000  0.15553
      22     C     3.23991  3.23991  0.00000 -0.47981
      23     H     0.42257  0.42257  0.00000  0.15485
      24     H     0.42254  0.42254  0.00000  0.15492
      25     H     0.42147  0.42147  0.00000  0.15705
      26     H     0.41933  0.41933  0.00000  0.16135
      27     H     0.42209  0.42209  0.00000  0.15582

   Total alpha = 37.00000, Total beta = 37.00000, Total charge =  0.00000
