  ==> Input File <==

--------------------------------------------------------------------------
set {
	reference rhf
	basis cc-pvtz
}

set_num_threads( 4 )
memory 2 gb

molecule MOL {
0 1

H	 -3.162190	 0.493205	 -0.000107
C	 -2.363908	 -0.234727	 0.000005
O	 -1.158738	 0.454634	 -0.000087
H	 -2.464314	 -0.863616	 -0.882153
H	 -2.464327	 -0.863359	 0.882345
C	 -1.276896	 1.822641	 0.234243
C	 0.100338	 2.454277	 0.208623
H	 -1.752250	 1.996877	 1.199810
H	 -1.913429	 2.278332	 -0.524581
C	 0.056207	 3.957659	 0.458115
H	 0.716770	 1.969275	 0.957429
H	 0.556841	 2.248537	 -0.753264
H	 -0.375471	 4.185131	 1.427134
H	 1.052176	 4.382523	 0.434513
H	 -0.536211	 4.466289	 -0.295148

	symmetry c1
}
set optking {
	frozen_dihedral = ("
		6 3 2 4
	")
}

ee = optimize('scf')
oeprop('DIPOLE', 'QUADRUPOLE', 'MULLIKEN_CHARGES')
f=open( 'psi4out.xyz', 'w' )
f.write( "15  " )
f.write( str(ee) + "\n" )
f.write( MOL.save_string_xyz() )
f.close()
--------------------------------------------------------------------------

    Molecular point group: c1
  Charge       = 0
  Multiplicity = 1
  Basis Set: CC-PVTZ
  Basis Set:
  @DF-RHF Final Energy:  -232.22376848284821
    Total Energy =                       -232.2237684828481861
    Molecular point group: c1
  Basis Set: CC-PVTZ
  Basis Set:
  Basis Set: CC-PVTZ
  Basis Set:
  @DF-RHF Final Energy:  -232.22457718993718
    Total Energy =                       -232.2245771899372357
  Basis Set: CC-PVTZ
  Basis Set:
  Basis Set: CC-PVTZ
  Basis Set:
  @DF-RHF Final Energy:  -232.22481218216686
    Total Energy =                       -232.2248121821669429
  Basis Set: CC-PVTZ
  Basis Set:
  Charge       = 0
  Multiplicity = 1
  Basis Set: CC-PVTZ
  Basis Set:

    Orbital Energies (a.u.)
    -----------------------

    Doubly Occupied:

       1A    -20.544106     2A    -11.264856     3A    -11.261280
       4A    -11.212220     5A    -11.210448     6A     -1.377146
       7A     -1.058034     8A     -0.956094     9A     -0.877406
      10A     -0.809205    11A     -0.673500    12A     -0.653902
      13A     -0.631352    14A     -0.608699    15A     -0.563381
      16A     -0.545812    17A     -0.502927    18A     -0.489025
      19A     -0.479240    20A     -0.461996    21A     -0.411512

  @DF-RHF Final Energy:  -232.22481390201651

   => Energetics <=

    Nuclear Repulsion Energy =            189.6936330180798507
    One-Electron Energy =                -690.6526138155192029
    Two-Electron Energy =                 268.7341668954228453
    DFT Exchange-Correlation Energy =       0.0000000000000000
    Empirical Dispersion Energy =           0.0000000000000000
    PCM Polarization Energy =               0.0000000000000000
    EFP Energy =                            0.0000000000000000
    Total Energy =                       -232.2248139020165354
    Molecular point group: c1
  Basis Set: CC-PVTZ
  Basis Set:

  -Total Gradient:
     Atom            X                  Y                   Z
    ------   -----------------  -----------------  -----------------
       1       -0.000028712180     0.000001010359    -0.000004284397
       2        0.000795904372    -0.001121044591     0.000436077086
       3       -0.000083975745    -0.000119435995     0.001458930810
       4       -0.000571602106     0.001115011157    -0.000711545758
       5        0.000022793895    -0.000024943148    -0.000000632741
       6       -0.000148338231     0.000210270117    -0.001158788797
       7        0.000009197090    -0.000040637453    -0.000008915599
       8        0.000002942781    -0.000024782862    -0.000017309748
       9       -0.000002215240    -0.000025268678     0.000000647809
      10        0.000001534255     0.000017688725     0.000005048315
      11        0.000000921493     0.000002619720    -0.000004006301
      12       -0.000000040411    -0.000000337064     0.000004134817
      13        0.000000106157     0.000002114998    -0.000001433631
      14       -0.000000101268     0.000007451444     0.000001383818
      15        0.000001585138     0.000000283272     0.000000694317

  **** Optimization is complete! (in 4 steps) ****
    Final optimized geometry and variables:
    Molecular point group: c1

    Geometry (in Angstrom), charge = 0, multiplicity = 1:

    H           -2.279242692679    -1.263298072509    -0.181267753494
    C           -1.414931023615    -1.920199409109    -0.180679905380
    O           -0.218954665292    -1.204454144374    -0.175831592615
    H           -1.461771626729    -2.531354506715    -1.073708075635
    H           -1.476724159024    -2.563180491424     0.690996598444
    C           -0.325516544180     0.165573473516     0.058862311735
    C            1.058999934290     0.780775186019     0.030155860970
    H           -0.795000729749     0.349086714392     1.025224551841
    H           -0.956044526442     0.628012146321    -0.699891400409
    C            1.032370162501     2.285675457227     0.273957643250
    H            1.670475281442     0.291519141460     0.780325407111
    H            1.512425907215     0.565800625170    -0.931241086100
    H            0.603871782700     2.521912907402     1.242345989887
    H            2.033171940665     2.699132470607     0.248233756491
    H            0.445433818249     2.798258330270    -0.481009192464

  Mulliken Charges: (a.u.)
   Center  Symbol    Alpha    Beta     Spin     Total
       1     H     0.47367  0.47367  0.00000  0.05266
       2     C     3.02895  3.02895  0.00000 -0.05790
       3     O     4.17643  4.17643  0.00000 -0.35286
       4     H     0.45554  0.45554  0.00000  0.08892
       5     H     0.46017  0.46017  0.00000  0.07966
       6     C     2.95535  2.95535  0.00000  0.08929
       7     C     3.08209  3.08209  0.00000 -0.16418
       8     H     0.47602  0.47602  0.00000  0.04795
       9     H     0.47544  0.47544  0.00000  0.04913
      10     C     3.15592  3.15592  0.00000 -0.31185
      11     H     0.45112  0.45112  0.00000  0.09776
      12     H     0.45124  0.45124  0.00000  0.09753
      13     H     0.45585  0.45585  0.00000  0.08830
      14     H     0.44629  0.44629  0.00000  0.10741
      15     H     0.45590  0.45590  0.00000  0.08819

   Total alpha = 21.00000, Total beta = 21.00000, Total charge =  0.00000
