  ==> Input File <==

--------------------------------------------------------------------------
set {
	reference rhf
	basis cc-pvtz
}

set_num_threads( 4 )
memory 2 gb

molecule MOL {
0 1

H	 -2.819723	 -0.161330	 -0.818064
O	 -2.313989	 -0.142475	 -0.025864
C	 -0.943808	 -0.065018	 -0.330000
H	 -0.812293	 -0.225641	 -1.398673
C	 -0.231030	 -1.182113	 0.407592
C	 -0.353797	 1.300461	 0.050970
H	 -0.312800	 -0.992012	 1.473041
H	 -0.738841	 -2.119564	 0.220514
C	 1.246176	 -1.268044	 -0.015480
H	 -0.539537	 2.008579	 -0.751815
H	 -0.889989	 1.662858	 0.920677
C	 1.153605	 1.231851	 0.356834
H	 1.823096	 -1.684665	 0.802361
H	 1.352335	 -1.958223	 -0.845114
C	 1.826409	 0.100723	 -0.416008
H	 1.622968	 2.181508	 0.128734
H	 1.301983	 1.066493	 1.419367
H	 2.897299	 0.112407	 -0.249665
H	 1.683458	 0.265621	 -1.480024

	symmetry c1
}
set optking {
	frozen_dihedral = ("
		1 2 3 4
	")
}

ee = optimize('scf')
oeprop('DIPOLE', 'QUADRUPOLE', 'MULLIKEN_CHARGES')
f=open( 'psi4out.xyz', 'w' )
f.write( "19  " )
f.write( str(ee) + "\n" )
f.write( MOL.save_string_xyz() )
f.close()
--------------------------------------------------------------------------

    Molecular point group: c1
  Charge       = 0
  Multiplicity = 1
  Basis Set: CC-PVTZ
  Basis Set:
  @DF-RHF Final Energy:  -309.16157571043743
    Total Energy =                       -309.1615757104373188
    Molecular point group: c1
  Basis Set: CC-PVTZ
  Basis Set:
  Basis Set: CC-PVTZ
  Basis Set:
  @DF-RHF Final Energy:  -309.16187741821017
    Total Energy =                       -309.1618774182099401
  Basis Set: CC-PVTZ
  Basis Set:
  Basis Set: CC-PVTZ
  Basis Set:
  @DF-RHF Final Energy:  -309.16196787589536
    Total Energy =                       -309.1619678758949590
  Basis Set: CC-PVTZ
  Basis Set:
  Basis Set: CC-PVTZ
  Basis Set:
  @DF-RHF Final Energy:  -309.16196920565289
    Total Energy =                       -309.1619692056528947
  Basis Set: CC-PVTZ
  Basis Set:
  Charge       = 0
  Multiplicity = 1
  Basis Set: CC-PVTZ
  Basis Set:

    Orbital Energies (a.u.)
    -----------------------

    Doubly Occupied:

       1A    -20.542270     2A    -11.268424     3A    -11.213288
       4A    -11.212611     5A    -11.211707     6A    -11.206654
       7A    -11.206352     8A     -1.361671     9A     -1.108839
      10A     -1.000802    11A     -0.989341    12A     -0.842151
      13A     -0.833504    14A     -0.731272    15A     -0.714222
      16A     -0.656034    17A     -0.626070    18A     -0.593176
      19A     -0.563852    20A     -0.545539    21A     -0.540375
      22A     -0.517000    23A     -0.497487    24A     -0.488376
      25A     -0.463138    26A     -0.449925    27A     -0.430435
      28A     -0.407988

  @DF-RHF Final Energy:  -309.16196936567388

   => Energetics <=

    Nuclear Repulsion Energy =            331.6113290750644751
    One-Electron Energy =               -1077.1015947924954617
    Two-Electron Energy =                 436.3282963517569897
    DFT Exchange-Correlation Energy =       0.0000000000000000
    Empirical Dispersion Energy =           0.0000000000000000
    PCM Polarization Energy =               0.0000000000000000
    EFP Energy =                            0.0000000000000000
    Total Energy =                       -309.1619693656739400
    Molecular point group: c1
  Basis Set: CC-PVTZ
  Basis Set:

  -Total Gradient:
     Atom            X                  Y                   Z
    ------   -----------------  -----------------  -----------------
       1        0.000002609967    -0.000441141965    -0.000008840021
       2        0.000003876544     0.000631019665    -0.000017428045
       3        0.000004524428    -0.000556200839     0.000093786586
       4       -0.000020778795     0.000375754543    -0.000058945134
       5        0.000018813816    -0.000000923215    -0.000008413414
       6        0.000014401741     0.000006373779    -0.000002395039
       7        0.000002103863    -0.000002175879    -0.000000042975
       8        0.000000170245    -0.000005101496     0.000000972241
       9       -0.000008802994    -0.000005225831     0.000018481416
      10        0.000003974676     0.000004641412    -0.000003444360
      11        0.000000256653    -0.000008657105    -0.000001268917
      12       -0.000001481997     0.000000552426    -0.000009152306
      13        0.000004032666    -0.000008955271     0.000000914583
      14       -0.000004258539     0.000003379442     0.000000454194
      15       -0.000009660351     0.000006743208    -0.000005290029
      16       -0.000003689960     0.000002129574     0.000000643014
      17       -0.000004327640    -0.000000695980     0.000000279677
      18       -0.000001604749    -0.000002944711     0.000001399040
      19       -0.000000159582     0.000001428246    -0.000001710509

  **** Optimization is complete! (in 5 steps) ****
    Final optimized geometry and variables:
    Molecular point group: c1

    Geometry (in Angstrom), charge = 0, multiplicity = 1:

    H           -2.838252655656    -0.101223337476    -0.795920322259
    O           -2.320254720821    -0.101848900990    -0.014415663855
    C           -0.945459732459    -0.070059203871    -0.328061118062
    H           -0.823571936090    -0.231289953872    -1.396256260599
    C           -0.223120539956    -1.186331487847     0.406992905399
    C           -0.356512027077     1.296589145277     0.045547127613
    H           -0.309827292444    -1.000005187511     1.472828881352
    H           -0.723696352534    -2.127723975699     0.217688515632
    C            1.256817418604    -1.263821451386    -0.009880141397
    H           -0.543386040410     1.997930246657    -0.761505871751
    H           -0.903146595516     1.661461192492     0.906427778129
    C            1.148371841605     1.233639783463     0.361014137276
    H            1.833550655293    -1.675084631363     0.810865448348
    H            1.370481260033    -1.955738280955    -0.837429778912
    C            1.829903958091     0.107543752308    -0.410921029774
    H            1.614730702132     2.186076108565     0.137913375406
    H            1.292836599824     1.066282768173     1.423989935267
    H            2.900812772557     0.124486917770    -0.244832255322
    H            1.686078396700     0.271470916600    -1.475257543672

  Mulliken Charges: (a.u.)
   Center  Symbol    Alpha    Beta     Spin     Total
       1     H     0.39214  0.39214  0.00000  0.21571
       2     O     4.20615  4.20615  0.00000 -0.41230
       3     C     2.92609  2.92609  0.00000  0.14781
       4     H     0.46790  0.46790  0.00000  0.06419
       5     C     3.09507  3.09507  0.00000 -0.19015
       6     C     3.11005  3.11005  0.00000 -0.22009
       7     H     0.45308  0.45308  0.00000  0.09383
       8     H     0.44480  0.44480  0.00000  0.11041
       9     C     3.11383  3.11383  0.00000 -0.22766
      10     H     0.45306  0.45306  0.00000  0.09389
      11     H     0.44467  0.44467  0.00000  0.11066
      12     C     3.10094  3.10094  0.00000 -0.20189
      13     H     0.44730  0.44730  0.00000  0.10540
      14     H     0.44813  0.44813  0.00000  0.10374
      15     C     3.10280  3.10280  0.00000 -0.20560
      16     H     0.44263  0.44263  0.00000  0.11473
      17     H     0.45316  0.45316  0.00000  0.09368
      18     H     0.44309  0.44309  0.00000  0.11383
      19     H     0.45510  0.45510  0.00000  0.08980

   Total alpha = 28.00000, Total beta = 28.00000, Total charge =  0.00000
