  ==> Input File <==

--------------------------------------------------------------------------
set {
	reference rhf
	basis 6-31G*
}

set_num_threads( 4 )
memory 2 gb

molecule MOL {
0 1

H	 2.756595	 0.102083	 -0.059233
N	 1.778921	 0.315423	 -0.060532
C	 1.158836	 -0.138230	 1.170892
C	 1.134409	 -0.264749	 -1.224455
H	 1.658506	 0.332632	 2.010765
H	 1.229445	 -1.220801	 1.300101
C	 -0.310155	 0.257310	 1.164236
H	 1.616390	 0.114491	 -2.119239
H	 1.203539	 -1.354983	 -1.240324
C	 -0.334567	 0.130870	 -1.229627
H	 -0.386012	 1.348543	 1.187795
H	 -0.793761	 -0.127125	 2.056358
N	 -0.975995	 -0.298722	 0.000000
H	 -0.835802	 -0.344876	 -2.066271
H	 -0.412059	 1.213632	 -1.366448
C	 -2.393863	 -0.024976	 0.000000
H	 -2.854032	 -0.467193	 -0.876721
H	 -2.854032	 -0.467193	 0.876721
H	 -2.623281	 1.044943	 0.000000

	symmetry c1
}
set optking {
	frozen_dihedral = ("
		7 13 16 19
	")
}

ee = optimize('scf')
oeprop('DIPOLE', 'QUADRUPOLE', 'MULLIKEN_CHARGES')
f=open( 'psi4out.xyz', 'w' )
f.write( "19  " )
f.write( str(ee) + "\n" )
f.write( MOL.save_string_xyz() )
f.close()
--------------------------------------------------------------------------

    Molecular point group: c1
  Charge       = 0
  Multiplicity = 1
  Basis Set: 6-31G*
  Basis Set:
  @DF-RHF Final Energy:  -305.19965913457594
    Total Energy =                       -305.1996591345758816
    Molecular point group: c1
  Basis Set: 6-31G*
  Basis Set:
  Basis Set: 6-31G*
  Basis Set:
  @DF-RHF Final Energy:  -305.19966507657949
    Total Energy =                       -305.1996650765796062
  Basis Set: 6-31G*
  Basis Set:
  Charge       = 0
  Multiplicity = 1
  Basis Set: 6-31G*
  Basis Set:

    Orbital Energies (a.u.)
    -----------------------

    Doubly Occupied:

       1A    -15.541221     2A    -15.536656     3A    -11.238664
       4A    -11.238631     5A    -11.237198     6A    -11.237183
       7A    -11.235014     8A     -1.247543     9A     -1.185794
      10A     -1.022936    11A     -0.964604    12A     -0.860771
      13A     -0.857188    14A     -0.757283    15A     -0.691284
      16A     -0.633712    17A     -0.626646    18A     -0.608087
      19A     -0.603386    20A     -0.579664    21A     -0.543394
      22A     -0.528953    23A     -0.511882    24A     -0.490441
      25A     -0.466253    26A     -0.456975    27A     -0.363431
      28A     -0.345870

  @DF-RHF Final Energy:  -305.19966546431812

   => Energetics <=

    Nuclear Repulsion Energy =            339.8830582042729134
    One-Electron Energy =               -1086.9441152240960946
    Two-Electron Energy =                 441.8613915555051790
    DFT Exchange-Correlation Energy =       0.0000000000000000
    Empirical Dispersion Energy =           0.0000000000000000
    PCM Polarization Energy =               0.0000000000000000
    EFP Energy =                            0.0000000000000000
    Total Energy =                       -305.1996654643180591
    Molecular point group: c1
  Basis Set: 6-31G*
  Basis Set:

  -Total Gradient:
     Atom            X                  Y                   Z
    ------   -----------------  -----------------  -----------------
       1       -0.000004885913     0.000000899101    -0.000005097391
       2        0.000002836605     0.000013202698    -0.000006236609
       3        0.000009567473     0.000021111354     0.000027931069
       4        0.000002893379    -0.000030236956     0.000015540924
       5        0.000014697956    -0.000001140726    -0.000005048847
       6       -0.000009015634     0.000004850418     0.000001986691
       7        0.000079953179     0.000425662444    -0.000310384992
       8       -0.000005623022     0.000002591451     0.000007440052
       9        0.000008597640    -0.000006342745    -0.000002519751
      10       -0.000021902250    -0.000020529334     0.000016272041
      11        0.000009799005     0.000001170417     0.000010333018
      12        0.000006422509     0.000009970539     0.000016957817
      13       -0.000131142669    -0.000601024459     0.000570152166
      14        0.000007577879     0.000006437026    -0.000011265846
      15       -0.000010367179     0.000008493689     0.000012336626
      16        0.000066815193     0.000150346638    -0.001116398372
      17       -0.000017183850    -0.000001766483     0.000003204679
      18       -0.000005113803     0.000009037687     0.000008190354
      19       -0.000003926501     0.000007267241     0.000766606373

  **** Optimization is complete! (in 3 steps) ****
    Final optimized geometry and variables:
    Molecular point group: c1

    Geometry (in Angstrom), charge = 0, multiplicity = 1:

    H            2.757016504599     0.103234912389    -0.032155325076
    N            1.779356597150     0.316535938589    -0.033826906589
    C            1.158426108565    -0.137151515297     1.197136122591
    C            1.135298898510    -0.262538254822    -1.198523976974
    H            1.656609748317     0.334601575991     2.037440042970
    H            1.229967416447    -1.219544405349     1.327068048310
    C           -0.310999109803     0.256587037030     1.188430911339
    H            1.617415942810     0.117668809676    -2.092861276552
    H            1.204666492668    -1.352735867483    -1.215547126157
    C           -0.333926674848     0.132225788094    -1.204010841117
    H           -0.388086853470     1.347709534574     1.209873236296
    H           -0.794981659447    -0.126462210499     2.081074713124
    N           -0.976138293150    -0.301202272142     0.024396266027
    H           -0.833688033413    -0.341782274550    -2.042445136606
    H           -0.411619626641     1.215271695445    -1.338223044686
    C           -2.393605777338    -0.023482490008     0.026204371878
    H           -2.858117297742    -0.469714699712    -0.845830988623
    H           -2.851374939941    -0.459259155683     0.907747998222
    H           -2.619720100040     1.047072658932     0.024913014436

  Mulliken Charges: (a.u.)
   Center  Symbol    Alpha    Beta     Spin     Total
       1     H     0.32947  0.32947  0.00000  0.34105
       2     N     3.85424  3.85424  0.00000 -0.70848
       3     C     3.06340  3.06340  0.00000 -0.12680
       4     C     3.06348  3.06348  0.00000 -0.12696
       5     H     0.41757  0.41757  0.00000  0.16486
       6     H     0.42762  0.42762  0.00000  0.14477
       7     C     3.05529  3.05529  0.00000 -0.11059
       8     H     0.41758  0.41758  0.00000  0.16483
       9     H     0.42762  0.42762  0.00000  0.14477
      10     C     3.05520  3.05520  0.00000 -0.11040
      11     H     0.42786  0.42786  0.00000  0.14429
      12     H     0.41866  0.41866  0.00000  0.16268
      13     N     3.78765  3.78765  0.00000 -0.57530
      14     H     0.41868  0.41868  0.00000  0.16264
      15     H     0.42798  0.42798  0.00000  0.14403
      16     C     3.14018  3.14018  0.00000 -0.28035
      17     H     0.41720  0.41720  0.00000  0.16560
      18     H     0.41696  0.41696  0.00000  0.16609
      19     H     0.43337  0.43337  0.00000  0.13326

   Total alpha = 28.00000, Total beta = 28.00000, Total charge =  0.00000
