                              Psi4 1.0.54 Driver

  ==> Input File <==

--------------------------------------------------------------------------
set {
	reference rhf
	basis cc-pvtz
}

set_num_threads( 4 )
memory 2 gb

molecule MOL {
0 1

H	 -2.644180	 -0.653737	 1.272255
C	 -2.092774	 -0.380414	 0.391915
O	 -0.808934	 -0.154049	 0.752536
F	 -2.163230	 -1.351640	 -0.507133
F	 -2.627232	 0.691260	 -0.169301
C	 0.079950	 -1.206654	 0.717782
C	 0.911195	 -1.145612	 1.997072
Cl	 1.138592	 -1.105704	 -0.701594
H	 -0.412425	 -2.162722	 0.683922
F	 1.770074	 -2.132560	 2.032911
F	 0.112928	 -1.266770	 3.031193
F	 1.561347	 -0.020251	 2.111594

	symmetry c1
}
set optking {
	frozen_dihedral = ("
		6 3 2 4
	")
}

ee,wfn = optimize('scf', return_wfn=True)
oeprop( wfn, 'DIPOLE', 'QUADRUPOLE', 'MULLIKEN_CHARGES')
f=open( 'psi4out.xyz', 'w' )
f.write( "12  " )
f.write( str(ee) + "\n" )
f.write( MOL.save_string_xyz() )
f.close()
--------------------------------------------------------------------------

    Molecular point group: c1
  Charge       = 0
  Multiplicity = 1
  Basis Set: CC-PVTZ
  Basis Set:
  @DF-RHF Final Energy: -1146.61309025165269
    Total Energy =                      -1146.6130902516536025
    Molecular point group: c1
  Basis Set: CC-PVTZ
  Basis Set:
  Basis Set: CC-PVTZ
  Basis Set:
  @DF-RHF Final Energy: -1146.61477001967978
    Total Energy =                      -1146.6147700196797814
  Basis Set: CC-PVTZ
  Basis Set:
  Basis Set: CC-PVTZ
  Basis Set:
  @DF-RHF Final Energy: -1146.61520267687547
    Total Energy =                      -1146.6152026768763790
  Basis Set: CC-PVTZ
  Basis Set:
  Basis Set: CC-PVTZ
  Basis Set:
  @DF-RHF Final Energy: -1146.61523326803535
    Total Energy =                      -1146.6152332680360360
  Basis Set: CC-PVTZ
  Basis Set:
  Basis Set: CC-PVTZ
  Basis Set:
  @DF-RHF Final Energy: -1146.61523184061980
    Total Energy =                      -1146.6152318406207087
  Basis Set: CC-PVTZ
  Basis Set:
  Basis Set: CC-PVTZ
  Basis Set:
  @DF-RHF Final Energy: -1146.61524035583489
    Total Energy =                      -1146.6152403558353399
  Basis Set: CC-PVTZ
  Basis Set:
  Charge       = 0
  Multiplicity = 1
  Basis Set: CC-PVTZ
  Basis Set:

    Orbital Energies (a.u.)
    -----------------------

    Doubly Occupied:

       1A   -104.856200     2A    -26.357843     3A    -26.357453
       4A    -26.355320     5A    -26.349162     6A    -26.342347
       7A    -20.638189     8A    -11.522371     9A    -11.487065
      10A    -11.403889    11A    -10.581731    12A     -8.048517
      13A     -8.046536    14A     -8.046459    15A     -1.770483
      16A     -1.727618    17A     -1.665391    18A     -1.664264
      19A     -1.650645    20A     -1.484739    21A     -1.177174
      22A     -1.053386    23A     -0.991640    24A     -0.930323
      25A     -0.865747    26A     -0.857680    27A     -0.848431
      28A     -0.842699    29A     -0.824995    30A     -0.796733
      31A     -0.737225    32A     -0.734730    33A     -0.707934
      34A     -0.706173    35A     -0.688036    36A     -0.683583
      37A     -0.670559    38A     -0.667090    39A     -0.648892
      40A     -0.638324    41A     -0.616391    42A     -0.575903
      43A     -0.514605    44A     -0.477273    45A     -0.470038

  @DF-RHF Final Energy: -1146.61524217885335

   => Energetics <=

    Nuclear Repulsion Energy =            731.4475916017659074
    One-Electron Energy =               -3045.9620929585021258
    Two-Electron Energy =                1167.8992591778833230
    DFT Exchange-Correlation Energy =       0.0000000000000000
    Empirical Dispersion Energy =           0.0000000000000000
    PCM Polarization Energy =               0.0000000000000000
    EFP Energy =                            0.0000000000000000
    Total Energy =                      -1146.6152421788528954
    Molecular point group: c1
  Basis Set: CC-PVTZ
  Basis Set:

  -Total Gradient:
     Atom            X                  Y                   Z
    ------   -----------------  -----------------  -----------------
       1       -0.000003830403    -0.000025113752     0.000005095832
       2        0.000330892742     0.001296494915    -0.001718736108
       3       -0.000515033083    -0.000753750027     0.001996637858
       4       -0.000086437507    -0.000871026450     0.000837682920
       5       -0.000025350066     0.000065011679     0.000020280573
       6        0.000346544822     0.000301745912    -0.001183937718
       7       -0.000087582220     0.000025494119    -0.000025241601
       8       -0.000015757320    -0.000011709503     0.000018861950
       9        0.000001209955     0.000001864423     0.000018621842
      10        0.000022770507     0.000002654959     0.000004124771
      11        0.000017178483    -0.000008083014     0.000019309962
      12        0.000015394156    -0.000023583264     0.000007299677

  **** Optimization is complete! (in 7 steps) ****
    Final optimized geometry and variables:
    Molecular point group: c1

    Geometry (in Angstrom), charge = 0, multiplicity = 1:

    H           -2.662195698286     0.115256640254     0.415240971269
    C           -2.046221335693     0.413433564382    -0.418631020866
    O           -0.754061030427     0.632424939834    -0.040244022152
    F           -2.115963417722    -0.521146477654    -1.353512266828
    F           -2.499127037566     1.536100423086    -0.918481427528
    C            0.165454844450    -0.382587366875    -0.095447018195
    C            1.012454093271    -0.295026785889     1.171499644817
    CL           1.196911085042    -0.250195694112    -1.533816564154
    H           -0.286228443232    -1.358731894822    -0.123669761245
    F            1.905201328699    -1.251456434162     1.195442253661
    F            0.225299005268    -0.453450474315     2.213327228432
    F            1.621242766145     0.850853116917     1.289564604912

  Mulliken Charges: (a.u.)
   Center  Symbol    Alpha    Beta     Spin     Total
       1     H     0.46893  0.46893  0.00000  0.06215
       2     C     2.74422  2.74422  0.00000  0.51155
       3     O     4.15099  4.15099  0.00000 -0.30198
       4     F     4.61590  4.61590  0.00000 -0.23181
       5     F     4.59971  4.59971  0.00000 -0.19942
       6     C     2.93720  2.93720  0.00000  0.12560
       7     C     2.66698  2.66698  0.00000  0.66605
       8    CL     8.57512  8.57512  0.00000 -0.15023
       9     H     0.43163  0.43163  0.00000  0.13674
      10     F     4.60213  4.60213  0.00000 -0.20426
      11     F     4.60870  4.60870  0.00000 -0.21740
      12     F     4.59850  4.59850  0.00000 -0.19700

   Total alpha = 45.00000, Total beta = 45.00000, Total charge = -0.00000

*** Psi4 exiting successfully. Buy a developer a beer!
