                              Psi4 1.0.54 Driver

  ==> Input File <==

--------------------------------------------------------------------------
set {
	reference rhf
	basis cc-pvtz
}

set_num_threads( 4 )
memory 2 gb

molecule MOL {
0 1

H	 3.366981	 -1.027232	 0.895016
O	 2.824271	 -1.154299	 0.131461
C	 2.076458	 -0.067370	 -0.038225
C	 0.626018	 -0.337582	 0.258241
O	 2.538288	 0.965419	 -0.381593
C	 -0.267326	 0.883135	 0.076490
H	 0.325620	 -1.161483	 -0.378003
H	 0.574537	 -0.713685	 1.275261
C	 -1.726822	 0.642622	 0.463839
H	 -0.210803	 1.217591	 -0.953497
H	 0.129920	 1.693110	 0.675679
C	 -2.480891	 -0.340606	 -0.429852
H	 -2.243098	 1.597649	 0.438609
H	 -1.776542	 0.301208	 1.495542
C	 -3.955933	 -0.460128	 -0.060472
H	 -2.393755	 -0.020485	 -1.464726
H	 -2.024244	 -1.323637	 -0.374360
H	 -4.467673	 -1.160944	 -0.709827
H	 -4.458917	 0.497287	 -0.144505
H	 -4.076458	 -0.806900	 0.960497

	symmetry c1
}
set optking {
	frozen_dihedral = ("
		1 2 3 5
	")
}

ee,wfn = optimize('scf', return_wfn=True)
oeprop( wfn, 'DIPOLE', 'QUADRUPOLE', 'MULLIKEN_CHARGES')
f=open( 'psi4out.xyz', 'w' )
f.write( "20  " )
f.write( str(ee) + "\n" )
f.write( MOL.save_string_xyz() )
f.close()
--------------------------------------------------------------------------

    Molecular point group: c1
  Charge       = 0
  Multiplicity = 1
  Basis Set: CC-PVTZ
  Basis Set:
  @DF-RHF Final Energy:  -384.07689051294670
    Total Energy =                       -384.0768905129465338
    Molecular point group: c1
  Basis Set: CC-PVTZ
  Basis Set:
  Basis Set: CC-PVTZ
  Basis Set:
  @DF-RHF Final Energy:  -384.07522100471158
    Total Energy =                       -384.0752210047114659
  Basis Set: CC-PVTZ
  Basis Set:
  Basis Set: CC-PVTZ
  Basis Set:
  @DF-RHF Final Energy:  -384.07775317649390
    Total Energy =                       -384.0777531764937294
  Basis Set: CC-PVTZ
  Basis Set:
  Basis Set: CC-PVTZ
  Basis Set:
  @DF-RHF Final Energy:  -384.07841350770224
    Total Energy =                       -384.0784135077017822
  Basis Set: CC-PVTZ
  Basis Set:
  Basis Set: CC-PVTZ
  Basis Set:
  @DF-RHF Final Energy:  -384.07842178430650
    Total Energy =                       -384.0784217843064425
  Basis Set: CC-PVTZ
  Basis Set:
  Charge       = 0
  Multiplicity = 1
  Basis Set: CC-PVTZ
  Basis Set:

    Orbital Energies (a.u.)
    -----------------------

    Doubly Occupied:

       1A    -20.588030     2A    -20.549084     3A    -11.373956
       4A    -11.239262     5A    -11.221604     6A    -11.219492
       7A    -11.218755     8A    -11.211029     9A     -1.464601
      10A     -1.369904    11A     -1.097713    12A     -1.041461
      13A     -0.960521    14A     -0.867494    15A     -0.817086
      16A     -0.781595    17A     -0.710897    18A     -0.683269
      19A     -0.660902    20A     -0.640559    21A     -0.613349
      22A     -0.587910    23A     -0.565522    24A     -0.556527
      25A     -0.527448    26A     -0.517392    27A     -0.498807
      28A     -0.494192    29A     -0.471240    30A     -0.466908
      31A     -0.459185    32A     -0.445905

  @DF-RHF Final Energy:  -384.07842214407469

   => Energetics <=

    Nuclear Repulsion Energy =            375.9338885741603917
    One-Electron Energy =               -1268.1814261865815752
    Two-Electron Energy =                 508.1691154683467175
    DFT Exchange-Correlation Energy =       0.0000000000000000
    Empirical Dispersion Energy =           0.0000000000000000
    PCM Polarization Energy =               0.0000000000000000
    EFP Energy =                            0.0000000000000000
    Total Energy =                       -384.0784221440744659
    Molecular point group: c1
  Basis Set: CC-PVTZ
  Basis Set:

  -Total Gradient:
     Atom            X                  Y                   Z
    ------   -----------------  -----------------  -----------------
       1       -0.005478058998    -0.003396927247     0.005118487721
       2        0.006088114106     0.003668578088    -0.009476929023
       3        0.000946005819     0.001296926606     0.011092541601
       4        0.000055461047     0.000004298252     0.000111665305
       5       -0.001593029325    -0.001554829971    -0.006815309346
       6        0.000017391851    -0.000002611519     0.000038221448
       7       -0.000039325573    -0.000055013388    -0.000037096840
       8       -0.000014608002    -0.000004371766    -0.000033438636
       9       -0.000018142802     0.000047346101    -0.000012175784
      10       -0.000006846583     0.000011656457     0.000016637789
      11        0.000001957196    -0.000005016425     0.000012486201
      12        0.000017338957     0.000012060936    -0.000023508519
      13       -0.000012866553    -0.000002068177    -0.000018418166
      14       -0.000007983075     0.000024166184     0.000005209476
      15        0.000004486071    -0.000020318419     0.000019677195
      16       -0.000009733139     0.000005704235     0.000007473960
      17        0.000047054282    -0.000023002629    -0.000010742232
      18        0.000002814252    -0.000006083005     0.000004105368
      19        0.000007556922    -0.000000669971    -0.000005762472
      20       -0.000007586455     0.000000175657     0.000006874953

  **** Optimization is complete! (in 6 steps) ****
    Final optimized geometry and variables:
    Molecular point group: c1

    Geometry (in Angstrom), charge = 0, multiplicity = 1:

    H            3.448092319714    -1.143961356805     0.774878009319
    O            2.831340235833    -1.185057696824     0.062494307623
    C            2.080704753653    -0.057395649841    -0.011122164356
    C            0.626207907830    -0.320803226414     0.270591286185
    O            2.537153075383     0.972303929484    -0.347097108881
    C           -0.269531241238     0.897051040142     0.085697983982
    H            0.336334956559    -1.145713518949    -0.369913267827
    H            0.562771142897    -0.704865885183     1.285328084950
    C           -1.733039952511     0.650523950758     0.454259496991
    H           -0.201575399978     1.236488786740    -0.942026989682
    H            0.117647537897     1.706115464326     0.693179782614
    C           -2.471748445244    -0.333560429392    -0.451329801283
    H           -2.252886433357     1.603503181891     0.425141894803
    H           -1.794487120699     0.306269208991     1.484528529967
    C           -3.947898718560    -0.470390879431    -0.092250444892
    H           -2.381017122300    -0.005236644330    -1.483266357146
    H           -2.005566482773    -1.312342029585    -0.400097772127
    H           -4.447649742663    -1.174039443628    -0.747810074191
    H           -4.460667117435     0.481855708157    -0.175934982668
    H           -4.071715408412    -0.822567352036     0.926527391432

  Mulliken Charges: (a.u.)
   Center  Symbol    Alpha    Beta     Spin     Total
       1     H     0.38471  0.38471  0.00000  0.23058
       2     O     4.17680  4.17680  0.00000 -0.35360
       3     C     2.80012  2.80012  0.00000  0.39976
       4     C     3.11369  3.11369  0.00000 -0.22738
       5     O     4.16662  4.16662  0.00000 -0.33324
       6     C     3.09484  3.09484  0.00000 -0.18967
       7     H     0.43587  0.43587  0.00000  0.12826
       8     H     0.44499  0.44499  0.00000  0.11001
       9     C     3.09899  3.09899  0.00000 -0.19798
      10     H     0.44459  0.44459  0.00000  0.11082
      11     H     0.44010  0.44010  0.00000  0.11979
      12     C     3.08685  3.08685  0.00000 -0.17370
      13     H     0.44543  0.44543  0.00000  0.10915
      14     H     0.45455  0.45455  0.00000  0.09089
      15     C     3.14952  3.14952  0.00000 -0.29904
      16     H     0.45200  0.45200  0.00000  0.09601
      17     H     0.45412  0.45412  0.00000  0.09175
      18     H     0.44750  0.44750  0.00000  0.10500
      19     H     0.45357  0.45357  0.00000  0.09286
      20     H     0.45513  0.45513  0.00000  0.08974

   Total alpha = 32.00000, Total beta = 32.00000, Total charge = -0.00000

*** Psi4 exiting successfully. Buy a developer a beer!
