  ==> Input File <==

--------------------------------------------------------------------------
set {
	reference rhf
	basis cc-pvtz
}

set_num_threads( 4 )
memory 2 gb

molecule MOL {
0 1

O	 -1.278239	 1.034789	 -0.784693
C	 -1.204115	 0.062668	 -0.112312
C	 -2.386398	 -0.667698	 0.460323
O	 -0.068058	 -0.518372	 0.226882
H	 -2.382952	 -1.693172	 0.114333
H	 -3.296656	 -0.175702	 0.158400
H	 -2.312537	 -0.685191	 1.540100
C	 1.169086	 0.037484	 -0.230612
C	 0.821623	 0.946591	 -1.392467
C	 2.124766	 -1.077816	 -0.614526
H	 1.592349	 0.614180	 0.577694
H	 0.135569	 1.722964	 -1.078898
H	 1.718747	 1.416987	 -1.776666
H	 0.358641	 0.384596	 -2.194804
H	 3.057692	 -0.658478	 -0.972723
H	 2.342375	 -1.707181	 0.237057
H	 1.699395	 -1.687864	 -1.403312

	symmetry c1
}
set optking {
	frozen_dihedral = ("
		11 8 4 2
	")
}

ee = optimize('scf')
oeprop('DIPOLE', 'QUADRUPOLE', 'MULLIKEN_CHARGES')
f=open( 'psi4out.xyz', 'w' )
f.write( "17  " )
f.write( str(ee) + "\n" )
f.write( MOL.save_string_xyz() )
f.close()
--------------------------------------------------------------------------

    Molecular point group: c1
  Charge       = 0
  Multiplicity = 1
  Basis Set: CC-PVTZ
  Basis Set:
  @DF-RHF Final Energy:  -344.98079377379872
    Total Energy =                       -344.9807937737989505
    Molecular point group: c1
  Basis Set: CC-PVTZ
  Basis Set:
  Basis Set: CC-PVTZ
  Basis Set:
  @DF-RHF Final Energy:  -345.01963484777497
    Total Energy =                       -345.0196348477747392
  Basis Set: CC-PVTZ
  Basis Set:
  Basis Set: CC-PVTZ
  Basis Set:
  @DF-RHF Final Energy:  -345.02846517148237
    Total Energy =                       -345.0284651714822530
  Basis Set: CC-PVTZ
  Basis Set:
  Basis Set: CC-PVTZ
  Basis Set:
  @DF-RHF Final Energy:  -345.02774553014729
    Total Energy =                       -345.0277455301470582
  Basis Set: CC-PVTZ
  Basis Set:
  @DF-RHF Final Energy:  -345.03275095018091
    Total Energy =                       -345.0327509501805707
  @DF-RHF Final Energy:  -345.03312411000445
    Total Energy =                       -345.0331241100045645
  @DF-RHF Final Energy:  -345.03315542706861
    Total Energy =                       -345.0331554270686638
  @DF-RHF Final Energy:  -345.03316196458411
    Total Energy =                       -345.0331619645837122
  @DF-RHF Final Energy:  -345.03316465875167
    Total Energy =                       -345.0331646587520709
  @DF-RHF Final Energy:  -345.03316579159792
    Total Energy =                       -345.0331657915976393
  @DF-RHF Final Energy:  -345.03315255007294
    Total Energy =                       -345.0331525500733960
  @DF-RHF Final Energy:  -345.03316599419884
    Total Energy =                       -345.0331659941988391
  @DF-RHF Final Energy:  -345.03302173638497
    Total Energy =                       -345.0330217363850807
  Basis Set: CC-PVTZ
  Basis Set:
  @DF-RHF Final Energy:  -345.03253326454859
    Total Energy =                       -345.0325332645479648
  Basis Set: CC-PVTZ
  Basis Set:
  Basis Set: CC-PVTZ
  Basis Set:
  @DF-RHF Final Energy:  -345.03316067912698
    Total Energy =                       -345.0331606791269792
  Basis Set: CC-PVTZ
  Basis Set:
  Basis Set: CC-PVTZ
  Basis Set:
  @DF-RHF Final Energy:  -345.03316648065447
    Total Energy =                       -345.0331664806548702
  Basis Set: CC-PVTZ
  Basis Set:
  Charge       = 0
  Multiplicity = 1
  Basis Set: CC-PVTZ
  Basis Set:

    Orbital Energies (a.u.)
    -----------------------

    Doubly Occupied:

       1A    -20.588700     2A    -20.528361     3A    -11.366938
       4A    -11.295288     5A    -11.228211     6A    -11.217798
       7A    -11.211343     8A     -1.462398     9A     -1.364210
      10A     -1.081251    11A     -1.003360    12A     -0.946753
      13A     -0.861927    14A     -0.747478    15A     -0.691014
      16A     -0.681924    17A     -0.659353    18A     -0.614836
      19A     -0.586919    20A     -0.579848    21A     -0.555936
      22A     -0.547150    23A     -0.543290    24A     -0.517381
      25A     -0.504677    26A     -0.486826    27A     -0.444803
      28A     -0.431295

  @DF-RHF Final Energy:  -345.03316674007641

   => Energetics <=

    Nuclear Repulsion Energy =            324.0379351875902216
    One-Electron Energy =               -1112.6436713989874079
    Two-Electron Energy =                 443.5725694713211738
    DFT Exchange-Correlation Energy =       0.0000000000000000
    Empirical Dispersion Energy =           0.0000000000000000
    PCM Polarization Energy =               0.0000000000000000
    EFP Energy =                            0.0000000000000000
    Total Energy =                       -345.0331667400760693
    Molecular point group: c1
  Basis Set: CC-PVTZ
  Basis Set:

  -Total Gradient:
     Atom            X                  Y                   Z
    ------   -----------------  -----------------  -----------------
       1       -0.000044353973     0.000030787599    -0.000009507001
       2       -0.000406523536    -0.002695164212    -0.003841916156
       3       -0.000001085765     0.000000218732     0.000012719779
       4        0.001212557863     0.003309858496     0.006229468265
       5        0.000004894517    -0.000004472274     0.000003919115
       6       -0.000004674291    -0.000005123784    -0.000003479487
       7       -0.000007057622     0.000008192928    -0.000002600697
       8       -0.002991253075     0.003358804296    -0.003911155019
       9        0.000039755487    -0.000077520769    -0.000032481838
      10       -0.000022324058    -0.000022675295    -0.000000924316
      11        0.002243443223    -0.003971124599     0.001520724368
      12       -0.000017644509     0.000061638160     0.000024138248
      13        0.000014326698    -0.000006527547    -0.000011797518
      14       -0.000009522085    -0.000000035183     0.000016332096
      15       -0.000014038823     0.000005508255    -0.000016131714
      16        0.000012825680     0.000010163222     0.000002432255
      17       -0.000009325729    -0.000002528019     0.000020259621

  **** Optimization is complete! (in 17 steps) ****
    Final optimized geometry and variables:
    Molecular point group: c1

    Geometry (in Angstrom), charge = 0, multiplicity = 1:

    O           -1.394061821178     1.140111579400    -0.174346865270
    C           -1.144879225082     0.093692923772     0.317865436722
    C           -2.189310547497    -0.862390906322     0.829060836059
    O            0.065005200034    -0.392016876075     0.521121827644
    H           -2.127243234949    -1.793661265930     0.280538538801
    H           -3.167670344751    -0.426264573156     0.708585078478
    H           -2.003307967245    -1.083014900533     1.871935398374
    C            1.299623321943     0.136215749073     0.009361893096
    C            1.201408262292     0.993433247776    -1.241032527297
    C            2.168749004046    -1.089830386803    -0.223095669028
    H            1.739423603004     0.699384817796     0.823462417355
    H            0.707395424512     1.932469457122    -1.063441477163
    H            2.211270721772     1.185864068480    -1.585183960903
    H            0.672159693897     0.472227979439    -2.029504482405
    H            3.177024386909    -0.788824702142    -0.480293713294
    H            2.209203921248    -1.701175765441     0.668686465237
    H            1.772185811703    -1.691169116873    -1.032956061231

  Mulliken Charges: (a.u.)
   Center  Symbol    Alpha    Beta     Spin     Total
       1     O     4.19830  4.19830  0.00000 -0.39660
       2     C     2.80863  2.80863  0.00000  0.38273
       3     C     3.13695  3.13695  0.00000 -0.27390
       4     O     4.16135  4.16135  0.00000 -0.32270
       5     H     0.44770  0.44770  0.00000  0.10461
       6     H     0.43883  0.43883  0.00000  0.12234
       7     H     0.44525  0.44525  0.00000  0.10950
       8     C     2.93418  2.93418  0.00000  0.13163
       9     C     3.15851  3.15851  0.00000 -0.31701
      10     C     3.13775  3.13775  0.00000 -0.27550
      11     H     0.44844  0.44844  0.00000  0.10313
      12     H     0.42853  0.42853  0.00000  0.14294
      13     H     0.45146  0.45146  0.00000  0.09708
      14     H     0.44935  0.44935  0.00000  0.10130
      15     H     0.45502  0.45502  0.00000  0.08997
      16     H     0.44570  0.44570  0.00000  0.10859
      17     H     0.45405  0.45405  0.00000  0.09190

   Total alpha = 28.00000, Total beta = 28.00000, Total charge = -0.00000
