  ==> Input File <==

--------------------------------------------------------------------------
set {
	reference rhf
	basis cc-pvtz
}

set_num_threads( 4 )
memory 2 gb

molecule MOL {
0 1

H	 1.660013	 -1.098030	 0.841599
O	 1.583947	 -0.677544	 -0.001533
C	 0.489979	 0.078084	 0.002623
C	 -0.763662	 -0.754014	 0.000816
O	 0.539051	 1.259395	 -0.000088
C	 -2.038001	 0.074705	 -0.000833
H	 -0.712945	 -1.405886	 -0.864342
H	 -0.715137	 -1.405770	 0.866182
H	 -2.087267	 0.710831	 -0.874232
H	 -2.903419	 -0.576199	 -0.001922
H	 -2.089467	 0.710909	 0.872389

	symmetry c1
}
set optking {
	frozen_dihedral = ("
		1 2 3 5
	")
}

ee = optimize('scf')
oeprop('DIPOLE', 'QUADRUPOLE', 'MULLIKEN_CHARGES')
f=open( 'psi4out.xyz', 'w' )
f.write( "11  " )
f.write( str(ee) + "\n" )
f.write( MOL.save_string_xyz() )
f.close()
--------------------------------------------------------------------------

    Molecular point group: c1
  Charge       = 0
  Multiplicity = 1
  Basis Set: CC-PVTZ
  Basis Set:
  @DF-RHF Final Energy:  -266.93245205885040
    Total Energy =                       -266.9324520588503447
    Molecular point group: c1
  Basis Set: CC-PVTZ
  Basis Set:
  Basis Set: CC-PVTZ
  Basis Set:
  @DF-RHF Final Energy:  -266.93391282445094
    Total Energy =                       -266.9339128244509425
  Basis Set: CC-PVTZ
  Basis Set:
  Basis Set: CC-PVTZ
  Basis Set:
  @DF-RHF Final Energy:  -266.93375701604464
    Total Energy =                       -266.9337570160445239
  Basis Set: CC-PVTZ
  Basis Set:
  Basis Set: CC-PVTZ
  Basis Set:
  @DF-RHF Final Energy:  -266.93404568130853
    Total Energy =                       -266.9340456813085893
  Basis Set: CC-PVTZ
  Basis Set:
  Basis Set: CC-PVTZ
  Basis Set:
  @DF-RHF Final Energy:  -266.93405514619155
    Total Energy =                       -266.9340551461916675
  Basis Set: CC-PVTZ
  Basis Set:
  Charge       = 0
  Multiplicity = 1
  Basis Set: CC-PVTZ
  Basis Set:

    Orbital Energies (a.u.)
    -----------------------

    Doubly Occupied:

       1A    -20.589113     2A    -20.550209     3A    -11.374852
       4A    -11.247614     5A    -11.221706     6A     -1.464958
       7A     -1.372771     8A     -1.066647     9A     -0.910300
      10A     -0.815285    11A     -0.716696    12A     -0.674598
      13A     -0.662631    14A     -0.617227    15A     -0.573944
      16A     -0.532258    17A     -0.522540    18A     -0.505047
      19A     -0.495241    20A     -0.449127

  @DF-RHF Final Energy:  -266.93405570163952

   => Energetics <=

    Nuclear Repulsion Energy =            179.4558964077725136
    One-Electron Energy =                -720.0543715588675013
    Two-Electron Energy =                 273.6644194494554085
    DFT Exchange-Correlation Energy =       0.0000000000000000
    Empirical Dispersion Energy =           0.0000000000000000
    PCM Polarization Energy =               0.0000000000000000
    EFP Energy =                            0.0000000000000000
    Total Energy =                       -266.9340557016396360
    Molecular point group: c1
  Basis Set: CC-PVTZ
  Basis Set:

  -Total Gradient:
     Atom            X                  Y                   Z
    ------   -----------------  -----------------  -----------------
       1        0.001876152793     0.002863586974     0.001143128484
       2       -0.002426925174    -0.003556952396    -0.000038952120
       3        0.000562081370     0.000550628189    -0.004234356076
       4        0.000030186748     0.000024623839    -0.000048212409
       5       -0.000018218084     0.000110035575     0.003142868222
       6       -0.000023667523    -0.000004198876     0.000013338040
       7        0.000000431662     0.000003024232     0.000016497029
       8        0.000007071712     0.000007735989     0.000014008944
       9        0.000001637818    -0.000002150277    -0.000001831346
      10       -0.000011433547     0.000005803701    -0.000003213585
      11        0.000002682227    -0.000002136950    -0.000003275184

  **** Optimization is complete! (in 6 steps) ****
    Final optimized geometry and variables:
    Molecular point group: c1

    Geometry (in Angstrom), charge = 0, multiplicity = 1:

    H            1.767753931680    -1.079474319460     0.837786229164
    O            1.629721502703    -0.657678604283     0.006280315216
    C            0.494243010744     0.085308632947    -0.003263396601
    C           -0.770951939387    -0.735064430641    -0.011452878000
    O            0.537637729459     1.257434560044    -0.033852975404
    C           -2.042757669992     0.097310586007    -0.012775350404
    H           -0.718375925463    -1.381993812001    -0.880580796100
    H           -0.738541334389    -1.398467825530     0.848716499569
    H           -2.082679320222     0.739554469877    -0.881945297069
    H           -2.911928280599    -0.548735270368    -0.023394894695
    H           -2.096301471780     0.728425000049     0.864354454473

  Mulliken Charges: (a.u.)
   Center  Symbol    Alpha    Beta     Spin     Total
       1     H     0.38927  0.38927  0.00000  0.22146
       2     O     4.16875  4.16875  0.00000 -0.33749
       3     C     2.80399  2.80399  0.00000  0.39203
       4     C     3.10607  3.10607  0.00000 -0.21214
       5     O     4.16032  4.16032  0.00000 -0.32063
       6     C     3.13916  3.13916  0.00000 -0.27832
       7     H     0.43722  0.43722  0.00000  0.12555
       8     H     0.45135  0.45135  0.00000  0.09731
       9     H     0.44518  0.44518  0.00000  0.10964
      10     H     0.45013  0.45013  0.00000  0.09973
      11     H     0.44856  0.44856  0.00000  0.10287

   Total alpha = 20.00000, Total beta = 20.00000, Total charge = -0.00000
