  ==> Input File <==

--------------------------------------------------------------------------
set {
	reference rhf
	basis 6-31G*
}

set_num_threads( 4 )
memory 2 gb

molecule MOL {
0 1

O	 0.749854	 1.307668	 -0.000040
C	 0.576249	 0.131685	 -0.000108
C	 -0.766779	 -0.556801	 -0.000461
O	 1.568443	 -0.749345	 -0.000005
C	 -1.945214	 0.412366	 0.000161
H	 -0.796911	 -1.211249	 -0.867467
H	 -0.796854	 -1.212390	 0.865687
C	 -1.894014	 1.376915	 1.184050
H	 -2.871968	 -0.150907	 0.021424
H	 -1.951267	 0.969110	 -0.930739
H	 -1.918664	 0.843682	 2.130362
H	 -2.739832	 2.056389	 1.166488
H	 -0.988350	 1.976879	 1.167031
C	 2.886820	 -0.232538	 0.000322
H	 3.059106	 0.369571	 -0.880203
H	 3.540187	 -1.091012	 0.000050
H	 3.059019	 0.368956	 0.881266

	symmetry c1
}
set optking {
	frozen_dihedral = ("
		9 5 3 6
	")
}

ee = optimize('scf')
oeprop('DIPOLE', 'QUADRUPOLE', 'MULLIKEN_CHARGES')
f=open( 'psi4out.xyz', 'w' )
f.write( "17  " )
f.write( str(ee) + "\n" )
f.write( MOL.save_string_xyz() )
f.close()
--------------------------------------------------------------------------

    Molecular point group: c1
  Charge       = 0
  Multiplicity = 1
  Basis Set: 6-31G*
  Basis Set:
  @DF-RHF Final Energy:  -344.90275337190633
    Total Energy =                       -344.9027533719062149
    Molecular point group: c1
  Basis Set: 6-31G*
  Basis Set:
  Basis Set: 6-31G*
  Basis Set:
  @DF-RHF Final Energy:  -344.90514895301146
    Total Energy =                       -344.9051489530115191
  Basis Set: 6-31G*
  Basis Set:
  Basis Set: 6-31G*
  Basis Set:
  @DF-RHF Final Energy:  -344.90467010693851
    Total Energy =                       -344.9046701069383403
  Basis Set: 6-31G*
  Basis Set:
  Basis Set: 6-31G*
  Basis Set:
  @DF-RHF Final Energy:  -344.90566145320884
    Total Energy =                       -344.9056614532086655
  Basis Set: 6-31G*
  Basis Set:
  @DF-RHF Final Energy:  -344.90587975789742
    Total Energy =                       -344.9058797578973099
  Basis Set: 6-31G*
  Basis Set:
  @DF-RHF Final Energy:  -344.90593173903062
    Total Energy =                       -344.9059317390302795
  Basis Set: 6-31G*
  Basis Set:
  Basis Set: 6-31G*
  Basis Set:
  @DF-RHF Final Energy:  -344.90593989049864
    Total Energy =                       -344.9059398904984164
  Basis Set: 6-31G*
  Basis Set:
  Basis Set: 6-31G*
  Basis Set:
  @DF-RHF Final Energy:  -344.90594137960716
    Total Energy =                       -344.9059413796069293
  Basis Set: 6-31G*
  Basis Set:
  Charge       = 0
  Multiplicity = 1
  Basis Set: 6-31G*
  Basis Set:

    Orbital Energies (a.u.)
    -----------------------

    Doubly Occupied:

       1A    -20.605261     2A    -20.545367     3A    -11.373127
       4A    -11.281506     5A    -11.236268     6A    -11.223676
       7A    -11.207698     8A     -1.470498     9A     -1.363268
      10A     -1.079118    11A     -0.999297    12A     -0.939053
      13A     -0.829855    14A     -0.766017    15A     -0.699140
      16A     -0.682023    17A     -0.671367    18A     -0.624579
      19A     -0.613310    20A     -0.568293    21A     -0.562699
      22A     -0.534181    23A     -0.523825    24A     -0.490310
      25A     -0.483994    26A     -0.481613    27A     -0.456525
      28A     -0.435483

  @DF-RHF Final Energy:  -344.90594152094047

   => Energetics <=

    Nuclear Repulsion Energy =            318.6508111397041603
    One-Electron Energy =               -1101.6188093301557274
    Two-Electron Energy =                 438.0620566695112075
    DFT Exchange-Correlation Energy =       0.0000000000000000
    Empirical Dispersion Energy =           0.0000000000000000
    PCM Polarization Energy =               0.0000000000000000
    EFP Energy =                            0.0000000000000000
    Total Energy =                       -344.9059415209403596
    Molecular point group: c1
  Basis Set: 6-31G*
  Basis Set:

  -Total Gradient:
     Atom            X                  Y                   Z
    ------   -----------------  -----------------  -----------------
       1        0.000029313263    -0.000029915595     0.000018859663
       2       -0.000024334512    -0.000004814274    -0.000014919285
       3       -0.001807538015    -0.002356788993     0.002215430192
       4        0.000003922491     0.000040878992    -0.000005896343
       5        0.000222305905     0.000641922576    -0.003567581844
       6        0.001468429903     0.001860719071    -0.001317024451
       7        0.000003375721    -0.000002256952     0.000000020802
       8       -0.000004337497    -0.000008567243    -0.000009464325
       9        0.000099676618    -0.000148758155     0.002668341861
      10       -0.000002264900    -0.000000574882     0.000003615732
      11        0.000000133511     0.000001811931    -0.000001056812
      12       -0.000003196933     0.000002641401     0.000003753662
      13        0.000010384058     0.000009364118     0.000005442591
      14       -0.000007134893    -0.000015604603    -0.000001937387
      15       -0.000000310536     0.000000751470    -0.000000347127
      16        0.000011727776     0.000005528179     0.000000170891
      17       -0.000000151964     0.000003662958     0.000002592182

  **** Optimization is complete! (in 9 steps) ****
    Final optimized geometry and variables:
    Molecular point group: c1

    Geometry (in Angstrom), charge = 0, multiplicity = 1:

    O            0.582926081378     0.999738865737    -0.629627829291
    C            0.377437613351    -0.117928069438    -0.278143715649
    C           -0.981805089960    -0.774264869317    -0.200590258626
    O            1.344523717145    -0.962163432386     0.053687673760
    C           -2.143794799651     0.214575561988    -0.102275060621
    H           -1.063710465178    -1.355943408334    -1.116666987092
    H           -0.983065145972    -1.479271260382     0.622450827572
    C           -2.111668100759     1.077796274696     1.160510041615
    H           -3.065251062457    -0.361293581503    -0.098739408564
    H           -2.156092847176     0.847573563312    -0.981767242987
    H           -2.104759636052     0.460050438982     2.055122710368
    H           -2.989568037943     1.714153538749     1.208885252034
    H           -1.237651931076     1.716997023084     1.181615940328
    C            2.674661124561    -0.484434975748    -0.038586403821
    H            2.903835303787    -0.191995308301    -1.053204967607
    H            3.304741442799    -1.305596251123     0.265618173830
    H            2.819931294738     0.362198534577     0.616696410644

  Mulliken Charges: (a.u.)
   Center  Symbol    Alpha    Beta     Spin     Total
       1     O     4.28765  4.28765  0.00000 -0.57529
       2     C     2.60673  2.60673  0.00000  0.78655
       3     C     3.20731  3.20731  0.00000 -0.41461
       4     O     4.30565  4.30565  0.00000 -0.61131
       5     C     3.15212  3.15212  0.00000 -0.30425
       6     H     0.39854  0.39854  0.00000  0.20291
       7     H     0.40096  0.40096  0.00000  0.19808
       8     C     3.24826  3.24826  0.00000 -0.49653
       9     H     0.41851  0.41851  0.00000  0.16297
      10     H     0.40789  0.40789  0.00000  0.18421
      11     H     0.42457  0.42457  0.00000  0.15086
      12     H     0.41776  0.41776  0.00000  0.16449
      13     H     0.40541  0.40541  0.00000  0.18917
      14     C     3.09270  3.09270  0.00000 -0.18540
      15     H     0.40905  0.40905  0.00000  0.18190
      16     H     0.40827  0.40827  0.00000  0.18346
      17     H     0.40861  0.40861  0.00000  0.18279

   Total alpha = 28.00000, Total beta = 28.00000, Total charge = -0.00000
