                              Psi4 1.0.54 Driver

  ==> Input File <==

--------------------------------------------------------------------------
set {
	reference rhf
	basis cc-pvtz
}

set_num_threads( 4 )
memory 2 gb

molecule MOL {
0 1

H	 0.606696	 0.952530	 2.331373
C	 1.286919	 0.617976	 1.537003
C	 0.692262	 0.592428	 0.156232
O	 2.396612	 0.307145	 1.800819
C	 -0.554654	 -0.292621	 0.086567
H	 1.451923	 0.258573	 -0.538240
H	 0.423941	 1.614894	 -0.101539
C	 -1.846385	 0.513195	 -0.016346
H	 -0.473986	 -0.956115	 -0.769708
H	 -0.597929	 -0.929215	 0.966651
C	 -3.089953	 -0.365049	 -0.098564
H	 -1.798267	 1.154820	 -0.891143
H	 -1.925398	 1.173265	 0.842889
H	 -3.055079	 -1.012299	 -0.968245
H	 -3.988403	 0.236438	 -0.170014
H	 -3.183055	 -0.995885	 0.779079

	symmetry c1
}
set optking {
	frozen_dihedral = ("
		6 3 5 9
	")
}

ee,wfn = optimize('scf', return_wfn=True)
oeprop( wfn, 'DIPOLE', 'QUADRUPOLE', 'MULLIKEN_CHARGES')
f=open( 'psi4out.xyz', 'w' )
f.write( "16  " )
f.write( str(ee) + "\n" )
f.write( MOL.save_string_xyz() )
f.close()
--------------------------------------------------------------------------

    Molecular point group: c1
  Charge       = 0
  Multiplicity = 1
  Basis Set: CC-PVTZ
  Basis Set:
  @DF-RHF Final Energy:  -270.11434645100212
    Total Energy =                       -270.1143464510021204
    Molecular point group: c1
  Basis Set: CC-PVTZ
  Basis Set:
  Basis Set: CC-PVTZ
  Basis Set:
  @DF-RHF Final Energy:  -270.11432269396664
    Total Energy =                       -270.1143226939667557
  Basis Set: CC-PVTZ
  Basis Set:
  Basis Set: CC-PVTZ
  Basis Set:
  @DF-RHF Final Energy:  -270.11163530925631
    Total Energy =                       -270.1116353092560303
  Basis Set: CC-PVTZ
  Basis Set:
  Basis Set: CC-PVTZ
  Basis Set:
  @DF-RHF Final Energy:  -270.11474665880655
    Total Energy =                       -270.1147466588066095
  Basis Set: CC-PVTZ
  Basis Set:
  @DF-RHF Final Energy:  -270.11480151647294
    Total Energy =                       -270.1148015164729372
  Basis Set: CC-PVTZ
  Basis Set:
  @DF-RHF Final Energy:  -270.11482752682718
    Total Energy =                       -270.1148275268269572
  Basis Set: CC-PVTZ
  Basis Set:
  Basis Set: CC-PVTZ
  Basis Set:
  @DF-RHF Final Energy:  -270.11483804013972
    Total Energy =                       -270.1148380401398299
  Basis Set: CC-PVTZ
  Basis Set:
  Basis Set: CC-PVTZ
  Basis Set:
  @DF-RHF Final Energy:  -270.11484091646355
    Total Energy =                       -270.1148409164634927
  Basis Set: CC-PVTZ
  Basis Set:
  Charge       = 0
  Multiplicity = 1
  Basis Set: CC-PVTZ
  Basis Set:

    Orbital Energies (a.u.)
    -----------------------

    Doubly Occupied:

       1A    -20.551395     2A    -11.321773     3A    -11.234504
       4A    -11.233865     5A    -11.229226     6A    -11.217734
       7A     -1.406732     8A     -1.097126     9A     -1.019544
      10A     -0.907292    11A     -0.819965    12A     -0.793090
      13A     -0.672147    14A     -0.658527    15A     -0.618437
      16A     -0.611115    17A     -0.583679    18A     -0.558139
      19A     -0.536609    20A     -0.509453    21A     -0.485490
      22A     -0.484031    23A     -0.475762    24A     -0.412304

  @DF-RHF Final Energy:  -270.11484105192557

   => Energetics <=

    Nuclear Repulsion Energy =            230.2237645595829463
    One-Electron Energy =                -821.8013301190069342
    Two-Electron Energy =                 321.4627245074983648
    DFT Exchange-Correlation Energy =       0.0000000000000000
    Empirical Dispersion Energy =           0.0000000000000000
    PCM Polarization Energy =               0.0000000000000000
    EFP Energy =                            0.0000000000000000
    Total Energy =                       -270.1148410519256231
    Molecular point group: c1
  Basis Set: CC-PVTZ
  Basis Set:

  -Total Gradient:
     Atom            X                  Y                   Z
    ------   -----------------  -----------------  -----------------
       1        0.000001082485     0.000001338838    -0.000001265340
       2       -0.000005285300    -0.000005243001    -0.000002037044
       3        0.001029741813    -0.001780457113     0.002019041910
       4       -0.000004212215     0.000002850583    -0.000002028108
       5       -0.001137575720     0.001916264512    -0.001743879724
       6       -0.000669489998     0.001168043956    -0.001396371269
       7        0.000000066064     0.000001707747     0.000006868650
       8        0.000000108411     0.000003640199     0.000016920368
       9        0.000789176493    -0.001322037630     0.001106462433
      10        0.000002046574     0.000007999796     0.000001048280
      11        0.000005044197     0.000004075201    -0.000007451428
      12       -0.000002992252    -0.000005034067    -0.000001297502
      13       -0.000004204416     0.000006117894     0.000003898264
      14       -0.000000443370    -0.000002696215    -0.000000943936
      15       -0.000004310462     0.000001105452    -0.000002066850
      16        0.000001247700     0.000002323846     0.000003101298

  **** Optimization is complete! (in 9 steps) ****
    Final optimized geometry and variables:
    Molecular point group: c1

    Geometry (in Angstrom), charge = 0, multiplicity = 1:

    H            0.735565079705     0.550498984287     1.760773459133
    C            1.470339874109     0.352185730815     0.968920746000
    C            0.907971862208     0.297336797304    -0.424693467794
    O            2.609982618021     0.202399136694     1.244022815365
    C           -0.380971278404    -0.543854545369    -0.516532966880
    H            1.678772458667    -0.060112077834    -1.092738450382
    H            0.695423961217     1.324157612577    -0.714323980909
    C           -1.658178975679     0.284619404574    -0.625440664911
    H           -0.304490412829    -1.214780989261    -1.364155164791
    H           -0.454687555965    -1.192653419030     0.353095219935
    C           -2.919468555496    -0.568919232011    -0.686339849570
    H           -1.599970193326     0.910361444680    -1.511518078076
    H           -1.721588729562     0.963077314155     0.221448612481
    H           -2.898413702184    -1.236209040889    -1.541334308823
    H           -3.805825833911     0.048638040479    -0.770417486673
    H           -3.023828964866    -1.178260273799     0.205019769222

  Mulliken Charges: (a.u.)
   Center  Symbol    Alpha    Beta     Spin     Total
       1     H     0.46576  0.46576  0.00000  0.06847
       2     C     2.90374  2.90374  0.00000  0.19253
       3     C     3.08752  3.08752  0.00000 -0.17503
       4     O     4.16452  4.16452  0.00000 -0.32905
       5     C     3.10864  3.10864  0.00000 -0.21729
       6     H     0.43607  0.43607  0.00000  0.12786
       7     H     0.44947  0.44947  0.00000  0.10107
       8     C     3.08400  3.08400  0.00000 -0.16800
       9     H     0.44130  0.44130  0.00000  0.11740
      10     H     0.45071  0.45071  0.00000  0.09859
      11     C     3.14959  3.14959  0.00000 -0.29919
      12     H     0.45136  0.45136  0.00000  0.09729
      13     H     0.45364  0.45364  0.00000  0.09273
      14     H     0.45345  0.45345  0.00000  0.09311
      15     H     0.44658  0.44658  0.00000  0.10684
      16     H     0.45366  0.45366  0.00000  0.09268

   Total alpha = 24.00000, Total beta = 24.00000, Total charge =  0.00000

*** Psi4 exiting successfully. Buy a developer a beer!
