  ==> Input File <==

--------------------------------------------------------------------------
set {
	reference rhf
	basis 6-31G*
}

set_num_threads( 4 )
memory 2 gb

molecule MOL {
0 1

H	 2.927717	 -1.199966	 0.189387
N	 3.092854	 -0.246221	 -0.068770
C	 1.865559	 0.531981	 0.018834
H	 3.435502	 -0.256564	 -1.010744
C	 0.645745	 -0.382037	 -0.029944
H	 1.841966	 1.207024	 -0.831236
H	 1.815756	 1.155410	 0.915079
C	 -0.679275	 0.379305	 0.025956
H	 0.698998	 -0.976915	 -0.937203
H	 0.693479	 -1.083846	 0.802235
C	 -1.903357	 -0.536963	 -0.023547
H	 -0.726309	 1.082987	 -0.803784
H	 -0.717680	 0.977832	 0.934877
C	 -3.225172	 0.228290	 0.028445
H	 -1.867824	 -1.134999	 -0.931459
H	 -1.860449	 -1.239604	 0.805977
H	 -3.313397	 0.915643	 -0.808262
H	 -4.073500	 -0.448134	 -0.008893
H	 -3.306061	 0.809945	 0.942516

	symmetry c1
}
set optking {
	frozen_dihedral = ("
		1 2 3 6
	")
}

ee = optimize('scf')
oeprop('DIPOLE', 'QUADRUPOLE', 'MULLIKEN_CHARGES')
f=open( 'psi4out.xyz', 'w' )
f.write( "19  " )
f.write( str(ee) + "\n" )
f.write( MOL.save_string_xyz() )
f.close()
--------------------------------------------------------------------------

    Molecular point group: c1
  Charge       = 0
  Multiplicity = 1
  Basis Set: 6-31G*
  Basis Set:
  @DF-RHF Final Energy:  -251.34711121833968
    Total Energy =                       -251.3471112183394780
    Molecular point group: c1
  Basis Set: 6-31G*
  Basis Set:
  Basis Set: 6-31G*
  Basis Set:
  @DF-RHF Final Energy:  -251.34826658010752
    Total Energy =                       -251.3482665801074631
  Basis Set: 6-31G*
  Basis Set:
  Basis Set: 6-31G*
  Basis Set:
  @DF-RHF Final Energy:  -251.34844868466877
    Total Energy =                       -251.3484486846687673
  Basis Set: 6-31G*
  Basis Set:
  Basis Set: 6-31G*
  Basis Set:
  @DF-RHF Final Energy:  -251.34845108049188
    Total Energy =                       -251.3484510804917136
  Basis Set: 6-31G*
  Basis Set:
  Charge       = 0
  Multiplicity = 1
  Basis Set: 6-31G*
  Basis Set:

    Orbital Energies (a.u.)
    -----------------------

    Doubly Occupied:

       1A    -15.530919     2A    -11.239787     3A    -11.217344
       4A    -11.216486     5A    -11.215667     6A    -11.209876
       7A     -1.175044     8A     -1.076141     9A     -1.000703
      10A     -0.901862    11A     -0.819288    12A     -0.793801
      13A     -0.671859    14A     -0.639626    15A     -0.599759
      16A     -0.596248    17A     -0.569126    18A     -0.554298
      19A     -0.527823    20A     -0.500642    21A     -0.486073
      22A     -0.468921    23A     -0.466261    24A     -0.461313
      25A     -0.375251

  @DF-RHF Final Energy:  -251.34845127634495

   => Energetics <=

    Nuclear Repulsion Energy =            245.4536232643372102
    One-Electron Energy =                -824.9759103476965265
    Two-Electron Energy =                 328.1738358070143136
    DFT Exchange-Correlation Energy =       0.0000000000000000
    Empirical Dispersion Energy =           0.0000000000000000
    PCM Polarization Energy =               0.0000000000000000
    EFP Energy =                            0.0000000000000000
    Total Energy =                       -251.3484512763449743
    Molecular point group: c1
  Basis Set: 6-31G*
  Basis Set:

  -Total Gradient:
     Atom            X                  Y                   Z
    ------   -----------------  -----------------  -----------------
       1       -0.000502293838    -0.000767275576    -0.003088615678
       2        0.000285920535     0.000451552626     0.003484268653
       3        0.001446917954     0.002395757087     0.001281669419
       4       -0.000006863849     0.000007063826    -0.000019553807
       5        0.000127183577     0.000019821440    -0.000013001592
       6       -0.001224544156    -0.002127662514    -0.001649914045
       7       -0.000025996933     0.000015717432     0.000010766776
       8        0.000011366895    -0.000012765976     0.000004520731
       9        0.000010791281     0.000017697985     0.000008829273
      10       -0.000007966712    -0.000011755087    -0.000031068877
      11       -0.000047109587     0.000038849696     0.000018095130
      12        0.000008271888    -0.000021813261    -0.000000700586
      13       -0.000017209922     0.000009981469    -0.000019005483
      14       -0.000042791816    -0.000036735315     0.000017377732
      15        0.000003506041     0.000019671850     0.000001291210
      16       -0.000002108923    -0.000004076614    -0.000007483384
      17        0.000006108188    -0.000007225244    -0.000000962740
      18       -0.000023373143     0.000011634364     0.000004316427
      19        0.000000192520     0.000001561811    -0.000000829160

  **** Optimization is complete! (in 5 steps) ****
    Final optimized geometry and variables:
    Molecular point group: c1

    Geometry (in Angstrom), charge = 0, multiplicity = 1:

    H            3.021424042817    -1.160366787636     0.235296599900
    N            3.144973011349    -0.198443592835    -0.016001743998
    C            1.870911741461     0.517927854481     0.017308599415
    H            3.521929043095    -0.202723280260    -0.942950468017
    C            0.640164429381    -0.389429950832    -0.036318284668
    H            1.834407993834     1.197226531286    -0.829198877963
    H            1.828464468513     1.126881284132     0.915734732693
    C           -0.679740794701     0.380575772615     0.028187745636
    H            0.674994256479    -0.982037366691    -0.949332676446
    H            0.685258140350    -1.095827527022     0.792047826450
    C           -1.912262363002    -0.525169384421    -0.007281949928
    H           -0.728231688465     1.083387518517    -0.802133781740
    H           -0.702464349900     0.980748207497     0.936105669867
    C           -3.226661305828     0.251690864771     0.059432979011
    H           -1.892843264348    -1.123909378265    -0.915413179086
    H           -1.866061595199    -1.227613676659     0.822116481652
    H           -3.318879007245     0.938806148875    -0.776983926980
    H           -4.081169553798    -0.417419961159     0.033146658727
    H           -3.291297933024     0.834901906229     0.973663815359

  Mulliken Charges: (a.u.)
   Center  Symbol    Alpha    Beta     Spin     Total
       1     H     0.33322  0.33322  0.00000  0.33357
       2     N     3.92566  3.92566  0.00000 -0.85133
       3     C     3.05150  3.05150  0.00000 -0.10299
       4     H     0.33323  0.33323  0.00000  0.33354
       5     C     3.16533  3.16533  0.00000 -0.33067
       6     H     0.42462  0.42462  0.00000  0.15076
       7     H     0.41914  0.41914  0.00000  0.16172
       8     C     3.15442  3.15442  0.00000 -0.30883
       9     H     0.42538  0.42538  0.00000  0.14923
      10     H     0.42400  0.42400  0.00000  0.15200
      11     C     3.15100  3.15100  0.00000 -0.30200
      12     H     0.42361  0.42361  0.00000  0.15279
      13     H     0.42179  0.42179  0.00000  0.15642
      14     C     3.23943  3.23943  0.00000 -0.47886
      15     H     0.42312  0.42312  0.00000  0.15376
      16     H     0.42258  0.42258  0.00000  0.15484
      17     H     0.42168  0.42168  0.00000  0.15664
      18     H     0.41904  0.41904  0.00000  0.16193
      19     H     0.42126  0.42126  0.00000  0.15747

   Total alpha = 25.00000, Total beta = 25.00000, Total charge = -0.00000
