                              Psi4 1.0.54 Driver

  ==> Input File <==

--------------------------------------------------------------------------
set {
	reference rhf
	basis cc-pvtz
}

set_num_threads( 4 )
memory 2 gb

molecule MOL {
0 1

H	 -0.939693	 0.000281	 1.681345
O	 -0.046262	 -0.000157	 1.387678
C	 -0.000837	 0.000006	 -0.025491
C	 1.367681	 0.491616	 -0.493068
C	 -0.276731	 -1.409233	 -0.546138
C	 -1.097286	 0.960815	 -0.464619
H	 1.420458	 0.537016	 -1.574709
H	 2.153612	 -0.174954	 -0.150916
H	 1.567163	 1.479200	 -0.096398
H	 -0.284209	 -1.433397	 -1.629719
H	 0.486596	 -2.101969	 -0.204784
H	 -1.235746	 -1.760868	 -0.186822
H	 -1.141386	 1.029086	 -1.545212
H	 -0.912110	 1.949182	 -0.063306
H	 -2.059289	 0.623160	 -0.100264

	symmetry c1
}
set optking {
	frozen_dihedral = ("
		4 3 2 1
	")
}

ee,wfn = optimize('scf', return_wfn=True)
oeprop( wfn, 'DIPOLE', 'QUADRUPOLE', 'MULLIKEN_CHARGES')
f=open( 'psi4out.xyz', 'w' )
f.write( "15  " )
f.write( str(ee) + "\n" )
f.write( MOL.save_string_xyz() )
f.close()
--------------------------------------------------------------------------

    Molecular point group: c1
  Charge       = 0
  Multiplicity = 1
  Basis Set: CC-PVTZ
  Basis Set:
  @DF-RHF Final Energy:  -232.24425102386090
    Total Energy =                       -232.2442510238609543
    Molecular point group: c1
  Basis Set: CC-PVTZ
  Basis Set:
  Basis Set: CC-PVTZ
  Basis Set:
  @DF-RHF Final Energy:  -232.19923037841431
    Total Energy =                       -232.1992303784143132
  Basis Set: CC-PVTZ
  Basis Set:
  Basis Set: CC-PVTZ
  Basis Set:
  @DF-RHF Final Energy:  -232.24419247603595
    Total Energy =                       -232.2441924760361189
  Basis Set: CC-PVTZ
  Basis Set:
  Basis Set: CC-PVTZ
  Basis Set:
  @DF-RHF Final Energy:  -232.24622537568553
    Total Energy =                       -232.2462253756856967
  Basis Set: CC-PVTZ
  Basis Set:
  Basis Set: CC-PVTZ
  Basis Set:
  @DF-RHF Final Energy:  -232.24628380948880
    Total Energy =                       -232.2462838094888866
  Basis Set: CC-PVTZ
  Basis Set:
  Basis Set: CC-PVTZ
  Basis Set:
  @DF-RHF Final Energy:  -232.24628920296357
    Total Energy =                       -232.2462892029634531
  Basis Set: CC-PVTZ
  Basis Set:
  Basis Set: CC-PVTZ
  Basis Set:
  @DF-RHF Final Energy:  -232.24629119448960
    Total Energy =                       -232.2462911944894586
  Basis Set: CC-PVTZ
  Basis Set:
  Charge       = 0
  Multiplicity = 1
  Basis Set: CC-PVTZ
  Basis Set:

    Orbital Energies (a.u.)
    -----------------------

    Doubly Occupied:

       1A    -20.541754     2A    -11.280862     3A    -11.212599
       4A    -11.206337     5A    -11.203691     6A     -1.364460
       7A     -1.065365     8A     -0.943680     9A     -0.939002
      10A     -0.778536    11A     -0.672458    12A     -0.624392
      13A     -0.622890    14A     -0.576080    15A     -0.557612
      16A     -0.533172    17A     -0.517051    18A     -0.511331
      19A     -0.504417    20A     -0.458383    21A     -0.428427

  @DF-RHF Final Energy:  -232.24629133846958

   => Energetics <=

    Nuclear Repulsion Energy =            200.6564411889804660
    One-Electron Energy =                -712.7204654706640667
    Two-Electron Energy =                 279.8177329432139686
    DFT Exchange-Correlation Energy =       0.0000000000000000
    Empirical Dispersion Energy =           0.0000000000000000
    PCM Polarization Energy =               0.0000000000000000
    EFP Energy =                            0.0000000000000000
    Total Energy =                       -232.2462913384696321
    Molecular point group: c1
  Basis Set: CC-PVTZ
  Basis Set:

  -Total Gradient:
     Atom            X                  Y                   Z
    ------   -----------------  -----------------  -----------------
       1        0.000072838741     0.001575903098     0.000342111383
       2       -0.000152829139    -0.001679852053    -0.000383676133
       3        0.000380501183    -0.000823609289    -0.000000901165
       4       -0.000324827035     0.000912603462     0.000073017853
       5       -0.000002344201     0.000010858467    -0.000028773974
       6        0.000018093083     0.000007130695    -0.000051822417
       7       -0.000017439747    -0.000008362043     0.000032651919
       8       -0.000010446968     0.000006090334    -0.000005837344
       9       -0.000002740762    -0.000009687537    -0.000002607781
      10       -0.000015969499    -0.000005262422     0.000009550247
      11        0.000013517204     0.000015116005    -0.000000216350
      12        0.000016660152    -0.000005299402     0.000004877680
      13       -0.000019312877     0.000006866397     0.000007756753
      14        0.000009649732    -0.000004548064    -0.000004692176
      15        0.000034650133     0.000002052351     0.000008561505

  **** Optimization is complete! (in 8 steps) ****
    Final optimized geometry and variables:
    Molecular point group: c1

    Geometry (in Angstrom), charge = 0, multiplicity = 1:

    H           -1.352808634123    -0.264600349342     1.348398128875
    O           -0.414433395265    -0.275472273732     1.297429745653
    C            0.007368729059     0.000923930269    -0.024497119971
    C            1.456203784964     0.454869048553     0.093693773078
    C           -0.098264168835    -1.271395781442    -0.862630463577
    C           -0.854312499913     1.113039642239    -0.618583899501
    H            1.878547102807     0.661541680982    -0.882684962264
    H            2.051072602680    -0.314848581792     0.569360843346
    H            1.520563504675     1.351608670311     0.696739858857
    H            0.249386135097    -1.106086997053    -1.876192116129
    H            0.495373889996    -2.060513335104    -0.418698243876
    H           -1.127127985314    -1.612304550000    -0.912190997940
    H           -0.528325140120     1.367865262712    -1.619822910032
    H           -0.799568879794     2.003005686345    -0.003461155751
    H           -1.894093853908     0.804747908808    -0.679947059203

  Mulliken Charges: (a.u.)
   Center  Symbol    Alpha    Beta     Spin     Total
       1     H     0.39480  0.39480  0.00000  0.21041
       2     O     4.21221  4.21221  0.00000 -0.42441
       3     C     2.87849  2.87849  0.00000  0.24303
       4     C     3.14219  3.14219  0.00000 -0.28438
       5     C     3.14635  3.14635  0.00000 -0.29270
       6     C     3.15459  3.15459  0.00000 -0.30918
       7     H     0.45896  0.45896  0.00000  0.08209
       8     H     0.44734  0.44734  0.00000  0.10531
       9     H     0.45007  0.45007  0.00000  0.09985
      10     H     0.45717  0.45717  0.00000  0.08567
      11     H     0.44766  0.44766  0.00000  0.10468
      12     H     0.45510  0.45510  0.00000  0.08980
      13     H     0.45352  0.45352  0.00000  0.09296
      14     H     0.44562  0.44562  0.00000  0.10876
      15     H     0.45594  0.45594  0.00000  0.08811

   Total alpha = 21.00000, Total beta = 21.00000, Total charge =  0.00000

*** Psi4 exiting successfully. Buy a developer a beer!
