                              Psi4 1.0.54 Driver

  ==> Input File <==

--------------------------------------------------------------------------
set {
	reference rhf
	basis cc-pvtz
}

set_num_threads( 4 )
memory 2 gb

molecule MOL {
0 1

H	 0.841639	 4.501632	 -1.220439
N	 0.062526	 3.883194	 -1.298760
C	 0.328525	 2.618348	 -0.631774
H	 -0.105913	 3.743665	 -2.273187
C	 -0.891554	 1.710836	 -0.682305
H	 0.571084	 2.834218	 0.403346
H	 1.186189	 2.090089	 -1.050472
C	 -0.678115	 0.376691	 0.025731
H	 -1.731680	 2.237052	 -0.241067
H	 -1.154883	 1.528227	 -1.722399
C	 -1.900706	 -0.535531	 -0.022488
H	 -0.410896	 0.559456	 1.064069
H	 0.169425	 -0.139595	 -0.419238
C	 -3.220513	 0.226854	 0.028039
H	 -1.865036	 -1.134397	 -0.928236
H	 -1.857948	 -1.236381	 0.806820
H	 -3.309098	 0.911849	 -0.808725
H	 -4.066838	 -0.449485	 -0.008086
H	 -3.301685	 0.809374	 0.939860

	symmetry c1
}
set optking {
	frozen_dihedral = ("
		12 8 11 15
	")
}

ee,wfn = optimize('scf', return_wfn=True)
oeprop( wfn, 'DIPOLE', 'QUADRUPOLE', 'MULLIKEN_CHARGES')
f=open( 'psi4out.xyz', 'w' )
f.write( "19  " )
f.write( str(ee) + "\n" )
f.write( MOL.save_string_xyz() )
f.close()
--------------------------------------------------------------------------

    Molecular point group: c1
  Charge       = 0
  Multiplicity = 1
  Basis Set: CC-PVTZ
  Basis Set:
  @DF-RHF Final Energy:  -251.44095674679554
    Total Energy =                       -251.4409567467955640
    Molecular point group: c1
  Basis Set: CC-PVTZ
  Basis Set:
  Basis Set: CC-PVTZ
  Basis Set:
  @DF-RHF Final Energy:  -251.44118833923011
    Total Energy =                       -251.4411883392299387
  Basis Set: CC-PVTZ
  Basis Set:
  Basis Set: CC-PVTZ
  Basis Set:
  @DF-RHF Final Energy:  -251.44346980069838
    Total Energy =                       -251.4434698006983240
  Basis Set: CC-PVTZ
  Basis Set:
  Basis Set: CC-PVTZ
  Basis Set:
  @DF-RHF Final Energy:  -251.44359149679616
    Total Energy =                       -251.4435914967963299
  Basis Set: CC-PVTZ
  Basis Set:
  Basis Set: CC-PVTZ
  Basis Set:
  @DF-RHF Final Energy:  -251.44360245643796
    Total Energy =                       -251.4436024564380432
  Basis Set: CC-PVTZ
  Basis Set:
  Basis Set: CC-PVTZ
  Basis Set:
  @DF-RHF Final Energy:  -251.44360692478253
    Total Energy =                       -251.4436069247825571
  Basis Set: CC-PVTZ
  Basis Set:
  Charge       = 0
  Multiplicity = 1
  Basis Set: CC-PVTZ
  Basis Set:

    Orbital Energies (a.u.)
    -----------------------

    Doubly Occupied:

       1A    -15.526346     2A    -11.237821     3A    -11.212259
       4A    -11.210648     5A    -11.207366     6A    -11.204194
       7A     -1.178124     8A     -1.072151     9A     -0.995819
      10A     -0.905697    11A     -0.825944    12A     -0.773048
      13A     -0.663784    14A     -0.642723    15A     -0.606533
      16A     -0.596472    17A     -0.584175    18A     -0.536475
      19A     -0.526091    20A     -0.505328    21A     -0.488994
      22A     -0.458334    23A     -0.451729    24A     -0.451437
      25A     -0.383916

  @DF-RHF Final Energy:  -251.44360725261186

   => Energetics <=

    Nuclear Repulsion Energy =            249.6209032845993079
    One-Electron Energy =                -833.6382056419215587
    Two-Electron Energy =                 332.5736951047101684
    DFT Exchange-Correlation Energy =       0.0000000000000000
    Empirical Dispersion Energy =           0.0000000000000000
    PCM Polarization Energy =               0.0000000000000000
    EFP Energy =                            0.0000000000000000
    Total Energy =                       -251.4436072526120824
    Molecular point group: c1
  Basis Set: CC-PVTZ
  Basis Set:

  -Total Gradient:
     Atom            X                  Y                   Z
    ------   -----------------  -----------------  -----------------
       1        0.000003821264    -0.000006244381     0.000003988628
       2       -0.000008254704    -0.000011491241    -0.000000030164
       3        0.000001709223     0.000011127407     0.000021131384
       4       -0.000001823576    -0.000000757300    -0.000004486669
       5        0.000001403829    -0.000009360901    -0.000037322636
       6        0.000004649470     0.000005434584     0.000004860793
       7       -0.000004742592    -0.000003047194    -0.000002834576
       8       -0.003667197423     0.004305852393     0.000737115538
       9        0.000002139839    -0.000000728767     0.000010082374
      10       -0.000011765041     0.000007941106    -0.000015917232
      11       -0.002828380365     0.003694525938    -0.003331320809
      12        0.003533076684    -0.004222481353    -0.000068464895
      13       -0.000001436475     0.000003317354    -0.000001785657
      14        0.000010270233     0.000000935499     0.000014436772
      15        0.002979991928    -0.003783330520     0.002675101985
      16       -0.000000833725    -0.000001330527    -0.000000054542
      17       -0.000000486897     0.000004902894    -0.000010353936
      18       -0.000004832036    -0.000006635907     0.000002451058
      19       -0.000007309634     0.000011370915     0.000003402586

  **** Optimization is complete! (in 7 steps) ****
    Final optimized geometry and variables:
    Molecular point group: c1

    Geometry (in Angstrom), charge = 0, multiplicity = 1:

    H            1.980865598659     3.068737937276    -0.828164465508
    N            1.178329344186     2.479497729314    -0.894409057460
    C            1.399570195938     1.214319771219    -0.211939866967
    H            0.999871500993     2.333662219139    -1.866158245552
    C            0.144035149902     0.354864439698    -0.241864540833
    H            1.656873347664     1.434265687531     0.818871646720
    H            2.233309123098     0.647815228884    -0.628554525793
    C            0.317874720131    -0.964165260572     0.503428425508
    H           -0.671296473272     0.931305950046     0.177732266540
    H           -0.121290141349     0.152268423032    -1.278312639193
    C           -0.857969522945    -1.949135503882     0.415564194630
    H            0.558094098950    -0.781845265546     1.547889757661
    H            1.195691908716    -1.470478313377     0.108709133412
    C           -2.251571673893    -1.342111813380     0.537790227424
    H           -0.774213712425    -2.530787156149    -0.498021350909
    H           -0.732207946826    -2.677841577729     1.211654399432
    H           -2.482104683689    -0.682249139222    -0.289462102765
    H           -3.004337182986    -2.121948214797     0.554427960786
    H           -2.350926005083    -0.769454749551     1.454328437007

  Mulliken Charges: (a.u.)
   Center  Symbol    Alpha    Beta     Spin     Total
       1     H     0.43030  0.43030  0.00000  0.13940
       2     N     3.68875  3.68875  0.00000 -0.37750
       3     C     3.02877  3.02877  0.00000 -0.05753
       4     H     0.43123  0.43123  0.00000  0.13755
       5     C     3.08535  3.08535  0.00000 -0.17069
       6     H     0.45713  0.45713  0.00000  0.08574
       7     H     0.46740  0.46740  0.00000  0.06520
       8     C     3.10062  3.10062  0.00000 -0.20125
       9     H     0.44582  0.44582  0.00000  0.10836
      10     H     0.45889  0.45889  0.00000  0.08221
      11     C     3.08859  3.08859  0.00000 -0.17718
      12     H     0.45204  0.45204  0.00000  0.09591
      13     H     0.45415  0.45415  0.00000  0.09169
      14     C     3.15565  3.15565  0.00000 -0.31130
      15     H     0.45326  0.45326  0.00000  0.09348
      16     H     0.45165  0.45165  0.00000  0.09670
      17     H     0.45131  0.45131  0.00000  0.09738
      18     H     0.44602  0.44602  0.00000  0.10797
      19     H     0.45308  0.45308  0.00000  0.09385

   Total alpha = 25.00000, Total beta = 25.00000, Total charge = -0.00000

*** Psi4 exiting successfully. Buy a developer a beer!
