  ==> Input File <==

--------------------------------------------------------------------------
set {
	reference rhf
	basis cc-pvtz
}

set_num_threads( 4 )
memory 2 gb

molecule MOL {
0 1

H	 2.441316	 0.226859	 0.507099
O	 1.563041	 0.358611	 0.811927
C	 0.700177	 0.619554	 -0.266242
C	 -0.713111	 0.588314	 0.266177
H	 0.813439	 -0.134946	 -1.038787
H	 0.905042	 1.594770	 -0.700248
O	 -1.421673	 -0.521378	 -0.196983
H	 -1.244794	 1.469161	 -0.069059
H	 -0.685100	 0.604721	 1.352683
H	 -0.933408	 -1.297830	 0.014544

	symmetry c1
}
set optking {
	frozen_dihedral = ("
		5 3 4 7
	")
}

ee = optimize('scf')
oeprop('DIPOLE', 'QUADRUPOLE', 'MULLIKEN_CHARGES')
f=open( 'psi4out.xyz', 'w' )
f.write( "10  " )
f.write( str(ee) + "\n" )
f.write( MOL.save_string_xyz() )
f.close()
--------------------------------------------------------------------------

    Molecular point group: c1
  Charge       = 0
  Multiplicity = 1
  Basis Set: CC-PVTZ
  Basis Set:
  @DF-RHF Final Energy:  -229.01987069939386
    Total Energy =                       -229.0198706993939481
    Molecular point group: c1
  Basis Set: CC-PVTZ
  Basis Set:
  Basis Set: CC-PVTZ
  Basis Set:
  @DF-RHF Final Energy:  -229.02095628535429
    Total Energy =                       -229.0209562853543162
  Basis Set: CC-PVTZ
  Basis Set:
  Basis Set: CC-PVTZ
  Basis Set:
  @DF-RHF Final Energy:  -229.02132358293304
    Total Energy =                       -229.0213235829327800
  Basis Set: CC-PVTZ
  Basis Set:
  Basis Set: CC-PVTZ
  Basis Set:
  @DF-RHF Final Energy:  -229.02134895690068
    Total Energy =                       -229.0213489569006242
  Basis Set: CC-PVTZ
  Basis Set:
  Basis Set: CC-PVTZ
  Basis Set:
  @DF-RHF Final Energy:  -229.02134999953287
    Total Energy =                       -229.0213499995328448
  Basis Set: CC-PVTZ
  Basis Set:
  Charge       = 0
  Multiplicity = 1
  Basis Set: CC-PVTZ
  Basis Set:

    Orbital Energies (a.u.)
    -----------------------

    Doubly Occupied:

       1A    -20.553820     2A    -20.548732     3A    -11.270857
       4A    -11.267378     5A     -1.376548     6A     -1.360743
       7A     -0.998235     8A     -0.846770     9A     -0.728233
      10A     -0.673056    11A     -0.654143    12A     -0.608822
      13A     -0.575807    14A     -0.527081    15A     -0.494017
      16A     -0.452492    17A     -0.436510

  @DF-RHF Final Energy:  -229.02135007284448

   => Energetics <=

    Nuclear Repulsion Energy =            131.8408389501560691
    One-Electron Energy =                -574.9778878424524464
    Two-Electron Energy =                 214.1156988194519499
    DFT Exchange-Correlation Energy =       0.0000000000000000
    Empirical Dispersion Energy =           0.0000000000000000
    PCM Polarization Energy =               0.0000000000000000
    EFP Energy =                            0.0000000000000000
    Total Energy =                       -229.0213500728444274
    Molecular point group: c1
  Basis Set: CC-PVTZ
  Basis Set:

  -Total Gradient:
     Atom            X                  Y                   Z
    ------   -----------------  -----------------  -----------------
       1       -0.000008926148     0.000004852982    -0.000000150821
       2       -0.000000340269    -0.000002477630     0.000003443327
       3       -0.001749139742     0.004245783852    -0.004431238234
       4        0.001642004697    -0.003227348028     0.004226396299
       5        0.001142343303    -0.002908249124     0.002829213195
       6       -0.000001934268    -0.000003244511    -0.000005545867
       7       -0.001020338917     0.001884299807    -0.002626811084
       8       -0.000002252972    -0.000005812023    -0.000000339427
       9       -0.000002510124     0.000007521721     0.000004279973
      10        0.000001094440     0.000004672954     0.000000752636

  **** Optimization is complete! (in 6 steps) ****
    Final optimized geometry and variables:
    Molecular point group: c1

    Geometry (in Angstrom), charge = 0, multiplicity = 1:

    H            2.421033310779     0.105706320109     0.359362428034
    O            1.529943200883     0.096882943036     0.656917853911
    C            0.661355879910     0.413471110247    -0.405307528272
    C           -0.775897864749     0.347978722998     0.107958410546
    H            0.775504593573    -0.315315662697    -1.200538192518
    H            0.886208261145     1.401508228797    -0.793695057176
    O           -1.496064997532    -0.745181025871    -0.392056183785
    H           -1.323061830575     1.222481627039    -0.215274047160
    H           -0.754026385798     0.349440507259     1.191491115107
    H           -1.179497830532    -1.541312703276    -0.004408152560

  Mulliken Charges: (a.u.)
   Center  Symbol    Alpha    Beta     Spin     Total
       1     H     0.39305  0.39305  0.00000  0.21389
       2     O     4.20191  4.20191  0.00000 -0.40383
       3     C     2.97666  2.97666  0.00000  0.04669
       4     C     2.96931  2.96931  0.00000  0.06139
       5     H     0.46992  0.46992  0.00000  0.06016
       6     H     0.47257  0.47257  0.00000  0.05485
       7     O     4.20336  4.20336  0.00000 -0.40671
       8     H     0.45913  0.45913  0.00000  0.08173
       9     H     0.46285  0.46285  0.00000  0.07429
      10     H     0.39123  0.39123  0.00000  0.21754

   Total alpha = 17.00000, Total beta = 17.00000, Total charge = -0.00000
