  ==> Input File <==

--------------------------------------------------------------------------
set {
	reference rhf
	basis 6-31G*
}

set_num_threads( 4 )
memory 2 gb

molecule MOL {
0 1

H	 2.465338	 -2.224223	 0.000000
O	 2.784187	 -1.332015	 0.000000
C	 1.765313	 -0.449364	 0.000000
C	 0.877909	 -0.498355	 1.070540
C	 1.584081	 0.477600	 -1.007981
H	 1.040277	 -1.227880	 1.841441
C	 -0.185166	 0.378956	 1.127659
H	 2.252249	 0.537624	 -1.844328
C	 0.506071	 1.343506	 -0.918993
H	 -0.865421	 0.334158	 1.957782
C	 -0.388828	 1.319744	 0.127018
N	 0.318941	 2.322166	 -1.987962
H	 -1.208780	 2.006884	 0.157372
O	 1.108693	 2.322219	 -2.883687
O	 -0.611273	 3.063703	 -1.903774

	symmetry c1
}
set optking {
	frozen_dihedral = ("
		4 3 2 1
	")
}

ee = optimize('scf')
oeprop('DIPOLE', 'QUADRUPOLE', 'MULLIKEN_CHARGES')
f=open( 'psi4out.xyz', 'w' )
f.write( "15  " )
f.write( str(ee) + "\n" )
f.write( MOL.save_string_xyz() )
f.close()
--------------------------------------------------------------------------

    Molecular point group: c1
  Charge       = 0
  Multiplicity = 1
  Basis Set: 6-31G*
  Basis Set:
  @DF-RHF Final Energy:  -509.02242518107010
    Total Energy =                       -509.0224251810699343
    Molecular point group: c1
  Basis Set: 6-31G*
  Basis Set:
  Basis Set: 6-31G*
  Basis Set:
  @DF-RHF Final Energy:  -509.02391521000499
    Total Energy =                       -509.0239152100043611
  Basis Set: 6-31G*
  Basis Set:
  Basis Set: 6-31G*
  Basis Set:
  @DF-RHF Final Energy:  -508.99856710343124
    Total Energy =                       -508.9985671034315828
  Basis Set: 6-31G*
  Basis Set:
  Basis Set: 6-31G*
  Basis Set:
  @DF-RHF Final Energy:  -509.02255750767250
    Total Energy =                       -509.0225575076727864
  Basis Set: 6-31G*
  Basis Set:
  Basis Set: 6-31G*
  Basis Set:
  @DF-RHF Final Energy:  -509.02410074905703
    Total Energy =                       -509.0241007490570837
  Basis Set: 6-31G*
  Basis Set:
  Basis Set: 6-31G*
  Basis Set:
  @DF-RHF Final Energy:  -509.02411196214354
    Total Energy =                       -509.0241119621435928
  Basis Set: 6-31G*
  Basis Set:
  Charge       = 0
  Multiplicity = 1
  Basis Set: 6-31G*
  Basis Set:

    Orbital Energies (a.u.)
    -----------------------

    Doubly Occupied:

       1A    -20.604951     2A    -20.602783     3A    -20.602422
       4A    -15.857415     5A    -11.323541     6A    -11.308909
       7A    -11.268148     8A    -11.267101     9A    -11.266074
      10A    -11.265811    11A     -1.636249    12A     -1.423053
      13A     -1.419473    14A     -1.200336    15A     -1.094372
      16A     -1.046931    17A     -0.963935    18A     -0.864996
      19A     -0.838968    20A     -0.793575    21A     -0.735313
      22A     -0.732504    23A     -0.718552    24A     -0.710894
      25A     -0.680158    26A     -0.641541    27A     -0.624655
      28A     -0.570047    29A     -0.560665    30A     -0.530150
      31A     -0.512877    32A     -0.489296    33A     -0.486275
      34A     -0.452679    35A     -0.377657    36A     -0.353450

  @DF-RHF Final Energy:  -509.02411462926779

   => Energetics <=

    Nuclear Repulsion Energy =            502.9055233447464275
    One-Electron Energy =               -1692.2077679115766387
    Two-Electron Energy =                 680.2781299375625395
    DFT Exchange-Correlation Energy =       0.0000000000000000
    Empirical Dispersion Energy =           0.0000000000000000
    PCM Polarization Energy =               0.0000000000000000
    EFP Energy =                            0.0000000000000000
    Total Energy =                       -509.0241146292677286
    Molecular point group: c1
  Basis Set: 6-31G*
  Basis Set:

  -Total Gradient:
     Atom            X                  Y                   Z
    ------   -----------------  -----------------  -----------------
       1       -0.000099908063     0.000024670891    -0.001667538880
       2        0.000520993700     0.000398282960     0.002406294492
       3       -0.001041178259    -0.001147164423    -0.001576368012
       4        0.000547371148     0.000887586022     0.000702509120
       5        0.000124864604    -0.000167786983     0.000089505799
       6       -0.000003664960     0.000023009924    -0.000027369306
       7        0.000069519151    -0.000127707449     0.000072513106
       8        0.000014140616    -0.000015759288     0.000002460409
       9       -0.000176819961     0.000081781817     0.000095997173
      10       -0.000032524924     0.000032491678     0.000001999610
      11        0.000073724131     0.000035600881    -0.000118486315
      12        0.000049680251    -0.000028924842     0.000007200761
      13       -0.000004464867    -0.000029904532     0.000041800488
      14       -0.000119131931     0.000037013400     0.000071484153
      15        0.000077399366    -0.000003190057    -0.000102002590

  **** Optimization is complete! (in 7 steps) ****
    Final optimized geometry and variables:
    Molecular point group: c1

    Geometry (in Angstrom), charge = 0, multiplicity = 1:

    H            1.745317193711    -3.127693476688     0.665131969131
    O            2.018318207417    -2.220047905084     0.651590894103
    C            0.941556339972    -1.388891227016     0.707674163323
    C            0.063020263267    -1.418893094860     1.780953643191
    C            0.775431891332    -0.459497650127    -0.301987667291
    H            0.220799521731    -2.131514644442     2.570490491845
    C           -0.999952839927    -0.533475559707     1.835522385495
    H            1.458302054729    -0.425984241147    -1.125495418895
    C           -0.287253255970     0.420402056327    -0.213932611606
    H           -1.679026051950    -0.565371827063     2.667172017142
    C           -1.187253112073     0.403322622155     0.834067574640
    N           -0.467080521826     1.402757520109    -1.280291481831
    H           -1.998618197187     1.100904728622     0.861928973049
    O            0.317535294700     1.395748888062    -2.178893580488
    O           -1.389979203291     2.154186239991    -1.189992759792

  Mulliken Charges: (a.u.)
   Center  Symbol    Alpha    Beta     Spin     Total
       1     H     0.26860  0.26860  0.00000  0.46281
       2     O     4.38142  4.38142  0.00000 -0.76283
       3     C     2.81429  2.81429  0.00000  0.37142
       4     C     3.11130  3.11130  0.00000 -0.22259
       5     C     3.10791  3.10791  0.00000 -0.21581
       6     H     0.38765  0.38765  0.00000  0.22469
       7     C     3.10394  3.10394  0.00000 -0.20788
       8     H     0.35811  0.35811  0.00000  0.28378
       9     C     2.91664  2.91664  0.00000  0.16671
      10     H     0.38673  0.38673  0.00000  0.22653
      11     C     3.09215  3.09215  0.00000 -0.18430
      12     N     3.24095  3.24095  0.00000  0.51811
      13     H     0.36433  0.36433  0.00000  0.27134
      14     O     4.23226  4.23226  0.00000 -0.46452
      15     O     4.23372  4.23372  0.00000 -0.46744

   Total alpha = 36.00000, Total beta = 36.00000, Total charge = -0.00000
