  ==> Input File <==

--------------------------------------------------------------------------
set {
	reference rhf
	basis 6-31G*
}

set_num_threads( 1 )
memory 2 gb

molecule MOL {
0 1

H	 -2.499100	 -0.730091	 -0.745082
O	 -2.347518	 -0.290803	 0.079804
C	 -1.184022	 0.487508	 -0.006784
C	 0.062599	 -0.378592	 0.031606
H	 -1.176523	 1.099369	 -0.904519
H	 -1.187323	 1.153111	 0.844927
O	 1.171513	 0.459272	 -0.058250
H	 0.050699	 -1.089204	 -0.797170
H	 0.078739	 -0.954914	 0.954740
C	 1.520181	 1.085528	 1.135641
H	 1.773160	 0.359931	 1.906447
H	 2.384862	 1.704245	 0.939634
H	 0.712553	 1.714086	 1.505024

	symmetry c1
}
set optking {
	frozen_dihedral = ("
		8 4 3 5,
		1 2 3 5,
		4 7 10 13
	")
}

ee = energy('scf')
oeprop('DIPOLE', 'QUADRUPOLE', 'MULLIKEN_CHARGES')
f=open( 'psi4out.xyz', 'w' )
f.write( "13  " )
f.write( str(ee) + "\n" )
f.write( MOL.save_string_xyz() )
f.close()
--------------------------------------------------------------------------

    Molecular point group: c1

    Geometry (in Angstrom), charge = 0, multiplicity = 1:

       Center              X                  Y                   Z               Mass
    ------------   -----------------  -----------------  -----------------  -----------------
           H         -2.316504071039    -0.997143491037    -0.981804159117     1.007825032070
           O         -2.164922071039    -0.557855491037    -0.156918159117    15.994914619560
           C         -1.001426071039     0.220455508963    -0.243506159117    12.000000000000
           C          0.245194928961    -0.645644491037    -0.205116159117    12.000000000000
           H         -0.993927071039     0.832316508963    -1.141241159117     1.007825032070
           H         -1.004727071039     0.886058508963     0.608204840883     1.007825032070
           O          1.354108928961     0.192219508963    -0.294972159117    15.994914619560
           H          0.233294928961    -1.356256491037    -1.033892159117     1.007825032070
           H          0.261334928961    -1.221966491037     0.718017840883     1.007825032070
           C          1.702776928961     0.818475508963     0.898918840883    12.000000000000
           H          1.955755928961     0.092878508963     1.669724840883     1.007825032070
           H          2.567457928961     1.437192508963     0.702911840883     1.007825032070
           H          0.895148928961     1.447033508963     1.268301840883     1.007825032070

  Charge       = 0
  Multiplicity = 1
  Basis Set: 6-31G*
  Basis Set:

    Orbital Energies (a.u.)
    -----------------------

    Doubly Occupied:

       1A    -20.561388     2A    -20.559990     3A    -11.271329
       4A    -11.270485     5A    -11.268389     6A     -1.389995
       7A     -1.365183     8A     -1.013751     9A     -0.928102
      10A     -0.835383    11A     -0.710817    12A     -0.679864
      13A     -0.654308    14A     -0.642470    15A     -0.591844
      16A     -0.572509    17A     -0.532514    18A     -0.517465
      19A     -0.465432    20A     -0.463004    21A     -0.404265

  @DF-RHF Final Energy:  -267.94558310636847

   => Energetics <=

    Nuclear Repulsion Energy =            193.4878358147755648
    One-Electron Energy =                -749.4698387742336081
    Two-Electron Energy =                 288.0364198530905924
    DFT Exchange-Correlation Energy =       0.0000000000000000
    Empirical Dispersion Energy =           0.0000000000000000
    PCM Polarization Energy =               0.0000000000000000
    EFP Energy =                            0.0000000000000000
    Total Energy =                       -267.9455831063673941

  Mulliken Charges: (a.u.)
   Center  Symbol    Alpha    Beta     Spin     Total
       1     H     0.28105  0.28105  0.00000  0.43789
       2     O     4.37209  4.37209  0.00000 -0.74418
       3     C     3.00604  3.00604  0.00000 -0.01207
       4     C     3.00809  3.00809  0.00000 -0.01618
       5     H     0.42186  0.42186  0.00000  0.15629
       6     H     0.41491  0.41491  0.00000  0.17019
       7     O     4.30456  4.30456  0.00000 -0.60912
       8     H     0.41945  0.41945  0.00000  0.16109
       9     H     0.42252  0.42252  0.00000  0.15495
      10     C     3.08424  3.08424  0.00000 -0.16849
      11     H     0.42638  0.42638  0.00000  0.14725
      12     H     0.40955  0.40955  0.00000  0.18090
      13     H     0.42926  0.42926  0.00000  0.14148

   Total alpha = 21.00000, Total beta = 21.00000, Total charge = -0.00000
