                              Psi4 1.0.54 Driver

  ==> Input File <==

--------------------------------------------------------------------------
set {
	reference rhf
	basis cc-pvtz
}

set_num_threads( 4 )
memory 2 gb

molecule MOL {
0 1

H	 -0.005843	 -6.115392	 -0.424046
C	 0.327854	 -5.096301	 -0.268459
C	 -0.842023	 -4.120498	 -0.330492
H	 0.821408	 -5.054980	 0.696806
H	 1.069629	 -4.872629	 -1.027905
C	 -0.417585	 -2.674999	 -0.117529
H	 -1.582891	 -4.378487	 0.418054
H	 -1.334172	 -4.209719	 -1.296104
N	 -1.551883	 -1.777555	 -0.158726
H	 0.051909	 -2.579280	 0.856936
H	 0.345928	 -2.409236	 -0.854754
C	 -1.215959	 -0.382435	 0.027143
H	 -2.042658	 -1.894072	 -1.020632
C	 -2.451944	 0.502410	 -0.038737
H	 -0.750355	 -0.275548	 1.002318
H	 -0.481331	 -0.033722	 -0.704839
C	 -3.752217	 -0.292550	 0.005776
H	 -2.407325	 1.093801	 -0.946480
H	 -2.431979	 1.206234	 0.790023
H	 -3.817783	 -0.982946	 -0.828547
H	 -4.612613	 0.364348	 -0.042306
H	 -3.830160	 -0.871666	 0.919868

	symmetry c1
}
set optking {
	frozen_dihedral = ("
		15 12 14 18
	")
}

ee,wfn = optimize('scf', return_wfn=True)
oeprop( wfn, 'DIPOLE', 'QUADRUPOLE', 'MULLIKEN_CHARGES')
f=open( 'psi4out.xyz', 'w' )
f.write( "22  " )
f.write( str(ee) + "\n" )
f.write( MOL.save_string_xyz() )
f.close()
--------------------------------------------------------------------------

    Molecular point group: c1
  Charge       = 0
  Multiplicity = 1
  Basis Set: CC-PVTZ
  Basis Set:
  @DF-RHF Final Energy:  -290.47832837510674
    Total Energy =                       -290.4783283751064573
    Molecular point group: c1
  Basis Set: CC-PVTZ
  Basis Set:
  Basis Set: CC-PVTZ
  Basis Set:
  @DF-RHF Final Energy:  -290.47534217101531
    Total Energy =                       -290.4753421710153702
  Basis Set: CC-PVTZ
  Basis Set:
  Basis Set: CC-PVTZ
  Basis Set:
  @DF-RHF Final Energy:  -290.48141498845388
    Total Energy =                       -290.4814149884542189
  Basis Set: CC-PVTZ
  Basis Set:
  Basis Set: CC-PVTZ
  Basis Set:
  @DF-RHF Final Energy:  -290.48168980320060
    Total Energy =                       -290.4816898032006520
  Basis Set: CC-PVTZ
  Basis Set:
  Basis Set: CC-PVTZ
  Basis Set:
  @DF-RHF Final Energy:  -290.48171445818048
    Total Energy =                       -290.4817144581803632
  Basis Set: CC-PVTZ
  Basis Set:
  Basis Set: CC-PVTZ
  Basis Set:
  @DF-RHF Final Energy:  -290.48171995576359
    Total Energy =                       -290.4817199557636513
  Basis Set: CC-PVTZ
  Basis Set:
  Charge       = 0
  Multiplicity = 1
  Basis Set: CC-PVTZ
  Basis Set:

    Orbital Energies (a.u.)
    -----------------------

    Doubly Occupied:

       1A    -15.528826     2A    -11.236964     3A    -11.236608
       4A    -11.212191     5A    -11.212062     6A    -11.207843
       7A    -11.201497     8A     -1.207670     9A     -1.057005
      10A     -1.021818    11A     -0.927457    12A     -0.880947
      13A     -0.805799    14A     -0.787345    15A     -0.665804
      16A     -0.629843    17A     -0.619592    18A     -0.604524
      19A     -0.574975    20A     -0.566670    21A     -0.531850
      22A     -0.531092    23A     -0.505143    24A     -0.487640
      25A     -0.484782    26A     -0.470970    27A     -0.458208
      28A     -0.450888    29A     -0.359802

  @DF-RHF Final Energy:  -290.48172037213931

   => Energetics <=

    Nuclear Repulsion Energy =            318.3476277891293194
    One-Electron Energy =               -1022.7270725559428683
    Two-Electron Energy =                 413.8977243946742419
    DFT Exchange-Correlation Energy =       0.0000000000000000
    Empirical Dispersion Energy =           0.0000000000000000
    PCM Polarization Energy =               0.0000000000000000
    EFP Energy =                            0.0000000000000000
    Total Energy =                       -290.4817203721393071
    Molecular point group: c1
  Basis Set: CC-PVTZ
  Basis Set:

  -Total Gradient:
     Atom            X                  Y                   Z
    ------   -----------------  -----------------  -----------------
       1       -0.000000046666     0.000004712786     0.000000287279
       2        0.000000761389     0.000002062164     0.000005604643
       3       -0.000011968624     0.000002283796    -0.000005234940
       4        0.000000392380    -0.000001086408    -0.000001927365
       5       -0.000003182118    -0.000000250591     0.000000553587
       6        0.000022300191     0.000003088143     0.000023635530
       7        0.000001001370    -0.000005072608    -0.000002822028
       8       -0.000000851040    -0.000000904416     0.000001644235
       9       -0.000001920455     0.000002833744    -0.000042636869
      10        0.000008324769    -0.000003746326     0.000001133275
      11       -0.000007656550     0.000006172235     0.000000719221
      12       -0.003599782387    -0.003788594778     0.002341209833
      13       -0.000017488512    -0.000008846836    -0.000017731733
      14       -0.002424693822    -0.003285201133    -0.004033449038
      15        0.003438626416     0.003733030385    -0.001286697219
      16       -0.000009606348    -0.000015392027    -0.000003138437
      17       -0.000011069735     0.000000094693    -0.000005698220
      18        0.002602509242     0.003366838395     0.003032682047
      19        0.000013475014    -0.000007172454    -0.000003730905
      20       -0.000006224690     0.000004942989     0.000017543151
      21        0.000009265561    -0.000022909085    -0.000008136895
      22       -0.000002165384     0.000013117333    -0.000013809151

  **** Optimization is complete! (in 7 steps) ****
    Final optimized geometry and variables:
    Molecular point group: c1

    Geometry (in Angstrom), charge = 0, multiplicity = 1:

    H            1.321940275980    -4.198173260672    -0.416472480778
    C            1.651371898934    -3.207868145748    -0.125131205073
    C            0.538840945932    -2.182414376963    -0.313074748221
    H            1.967150441402    -3.257349694946     0.911619472749
    H            2.521801952235    -2.960487847309    -0.723581564201
    C            0.959422242287    -0.775544524943     0.085507567192
    H           -0.329970007463    -2.463953949838     0.271422945893
    H            0.223972676214    -2.180135025900    -1.353958282743
    N           -0.124506006351     0.168713409830    -0.080285309935
    H            1.251980149623    -0.771199977165     1.131177742343
    H            1.848125341292    -0.487821420328    -0.484208045629
    C            0.229905660831     1.528566628795     0.264146323312
    H           -0.456245346594     0.131140068500    -1.021202144676
    C           -0.924367302460     2.545291029179     0.126952751847
    H            0.600836294693     1.540711676558     1.282935517534
    H            1.070185574682     1.884610475969    -0.337912959597
    C           -2.335814848255     1.968766361944     0.079843429222
    H           -0.746525258273     3.182153405219    -0.733564496227
    H           -0.864592953895     3.220048180573     0.975317376904
    H           -2.499002696890     1.354490921647    -0.796948337061
    H           -3.061724797440     2.773876203237     0.055326934195
    H           -2.539183952417     1.354884377885     0.947648079717

  Mulliken Charges: (a.u.)
   Center  Symbol    Alpha    Beta     Spin     Total
       1     H     0.44762  0.44762  0.00000  0.10477
       2     C     3.15377  3.15377  0.00000 -0.30753
       3     C     3.08088  3.08088  0.00000 -0.16177
       4     H     0.45469  0.45469  0.00000  0.09061
       5     H     0.45610  0.45610  0.00000  0.08781
       6     C     3.02122  3.02122  0.00000 -0.04245
       7     H     0.44889  0.44889  0.00000  0.10222
       8     H     0.45988  0.45988  0.00000  0.08025
       9     N     3.63816  3.63816  0.00000 -0.27632
      10     H     0.45916  0.45916  0.00000  0.08167
      11     H     0.47496  0.47496  0.00000  0.05008
      12     C     3.03551  3.03551  0.00000 -0.07102
      13     H     0.44281  0.44281  0.00000  0.11438
      14     C     3.09845  3.09845  0.00000 -0.19691
      15     H     0.45726  0.45726  0.00000  0.08549
      16     H     0.46733  0.46733  0.00000  0.06535
      17     C     3.14047  3.14047  0.00000 -0.28093
      18     H     0.45094  0.45094  0.00000  0.09812
      19     H     0.45260  0.45260  0.00000  0.09481
      20     H     0.45905  0.45905  0.00000  0.08191
      21     H     0.45076  0.45076  0.00000  0.09847
      22     H     0.44950  0.44950  0.00000  0.10099

   Total alpha = 29.00000, Total beta = 29.00000, Total charge = -0.00000

*** Psi4 exiting successfully. Buy a developer a beer!
