  ==> Input File <==

--------------------------------------------------------------------------
set {
	reference rhf
	basis 6-31G*
}

set_num_threads( 1 )
memory 2 gb

molecule MOL {
0 1

H	 2.591676	 2.013956	 0.335017
O	 3.341076	 1.666752	 -0.126416
C	 3.569581	 0.339145	 0.272707
C	 2.539767	 -0.640285	 -0.279495
H	 4.553106	 0.084646	 -0.100901
H	 3.608576	 0.269204	 1.359154
C	 1.115811	 -0.397273	 0.226630
H	 2.556196	 -0.582511	 -1.364741
H	 2.852081	 -1.648031	 -0.010655
C	 0.393973	 0.709435	 -0.547298
H	 1.150958	 -0.138826	 1.281303
H	 0.541392	 -1.320491	 0.148838
C	 -1.065802	 0.935241	 -0.136923
H	 0.946482	 1.640998	 -0.438798
H	 0.419626	 0.464001	 -1.606923
C	 -1.259886	 1.478023	 1.281596
H	 -1.514158	 1.634258	 -0.839894
H	 -1.617885	 0.002856	 -0.245093
C	 -2.722977	 1.786149	 1.606961
H	 -0.667345	 2.383620	 1.403663
H	 -0.880827	 0.765396	 2.010142
C	 -2.920285	 2.322055	 3.024543
H	 -3.106036	 2.510332	 0.891201
H	 -3.318188	 0.884764	 1.476139
H	 -2.363013	 3.242076	 3.176966
H	 -3.966520	 2.532537	 3.223854
H	 -2.580518	 1.604536	 3.766222

	symmetry c1
}
set optking {
	frozen_dihedral = ("
		14 10 7 4,
		14 10 13 16,
		8 4 3 2,
		10 13 16 20,
		20 16 19 22,
		4 3 2 1
	")
}

ee = energy('scf')
oeprop('DIPOLE', 'QUADRUPOLE', 'MULLIKEN_CHARGES')
f=open( 'psi4out.xyz', 'w' )
f.write( "27  " )
f.write( str(ee) + "\n" )
f.write( MOL.save_string_xyz() )
f.close()
--------------------------------------------------------------------------

    Molecular point group: c1

    Geometry (in Angstrom), charge = 0, multiplicity = 1:

       Center              X                  Y                   Z               Mass
    ------------   -----------------  -----------------  -----------------  -----------------
           H          2.219435547099     1.080157026604    -0.263906176192     1.007825032070
           O          2.968835547099     0.732953026604    -0.725339176192    15.994914619560
           C          3.197340547099    -0.594653973396    -0.326216176192    12.000000000000
           C          2.167526547099    -1.574083973396    -0.878418176192    12.000000000000
           H          4.180865547099    -0.849152973396    -0.699824176192     1.007825032070
           H          3.236335547099    -0.664594973396     0.760230823808     1.007825032070
           C          0.743570547099    -1.331071973396    -0.372293176192    12.000000000000
           H          2.183955547099    -1.516309973396    -1.963664176192     1.007825032070
           H          2.479840547099    -2.581829973396    -0.609578176192     1.007825032070
           C          0.021732547099    -0.224363973396    -1.146221176192    12.000000000000
           H          0.778717547099    -1.072624973396     0.682379823808     1.007825032070
           H          0.169151547099    -2.254289973396    -0.450085176192     1.007825032070
           C         -1.438042452901     0.001442026604    -0.735846176192    12.000000000000
           H          0.574241547099     0.707199026604    -1.037721176192     1.007825032070
           H          0.047385547099    -0.469797973396    -2.205846176192     1.007825032070
           C         -1.632126452901     0.544224026604     0.682672823808    12.000000000000
           H         -1.886398452901     0.700459026604    -1.438817176192     1.007825032070
           H         -1.990125452901    -0.930942973396    -0.844016176192     1.007825032070
           C         -3.095217452901     0.852350026604     1.008037823808    12.000000000000
           H         -1.039585452901     1.449821026604     0.804739823808     1.007825032070
           H         -1.253067452901    -0.168402973396     1.411218823808     1.007825032070
           C         -3.292525452901     1.388256026604     2.425619823808    12.000000000000
           H         -3.478276452901     1.576533026604     0.292277823808     1.007825032070
           H         -3.690428452901    -0.049034973396     0.877215823808     1.007825032070
           H         -2.735253452901     2.308277026604     2.578042823808     1.007825032070
           H         -4.338760452901     1.598738026604     2.624930823808     1.007825032070
           H         -2.952758452901     0.670737026604     3.167298823808     1.007825032070

  Charge       = 0
  Multiplicity = 1
  Basis Set: 6-31G*
  Basis Set:

    Orbital Energies (a.u.)
    -----------------------

    Doubly Occupied:

       1A    -20.552151     2A    -11.267177     3A    -11.219150
       4A    -11.217134     5A    -11.216683     6A    -11.216241
       7A    -11.215347     8A    -11.214952     9A    -11.210313
      10A     -1.360353    11A     -1.095939    12A     -1.062195
      13A     -1.012377    14A     -0.949403    15A     -0.888558
      16A     -0.821597    17A     -0.802154    18A     -0.778093
      19A     -0.700801    20A     -0.648122    21A     -0.638279
      22A     -0.617692    23A     -0.594592    24A     -0.583478
      25A     -0.573872    26A     -0.556853    27A     -0.545974
      28A     -0.530057    29A     -0.517262    30A     -0.496015
      31A     -0.491968    32A     -0.474289    33A     -0.468027
      34A     -0.458110    35A     -0.448884    36A     -0.440456
      37A     -0.420493

  @DF-RHF Final Energy:  -388.27609557344010

   => Energetics <=

    Nuclear Repulsion Energy =            470.3341451722122883
    One-Electron Energy =               -1458.6102371661252164
    Two-Electron Energy =                 599.9999964204730531
    DFT Exchange-Correlation Energy =       0.0000000000000000
    Empirical Dispersion Energy =           0.0000000000000000
    PCM Polarization Energy =               0.0000000000000000
    EFP Energy =                            0.0000000000000000
    Total Energy =                       -388.2760955734398749

  Mulliken Charges: (a.u.)
   Center  Symbol    Alpha    Beta     Spin     Total
       1     H     0.27716  0.27716  0.00000  0.44567
       2     O     4.37010  4.37010  0.00000 -0.74021
       3     C     2.99856  2.99856  0.00000  0.00289
       4     C     3.16409  3.16409  0.00000 -0.32819
       5     H     0.41479  0.41479  0.00000  0.17043
       6     H     0.43159  0.43159  0.00000  0.13682
       7     C     3.16655  3.16655  0.00000 -0.33309
       8     H     0.41484  0.41484  0.00000  0.17031
       9     H     0.42137  0.42137  0.00000  0.15726
      10     C     3.15202  3.15202  0.00000 -0.30404
      11     H     0.42381  0.42381  0.00000  0.15238
      12     H     0.41795  0.41795  0.00000  0.16411
      13     C     3.15294  3.15294  0.00000 -0.30588
      14     H     0.43078  0.43078  0.00000  0.13845
      15     H     0.41750  0.41750  0.00000  0.16499
      16     C     3.15337  3.15337  0.00000 -0.30674
      17     H     0.42069  0.42069  0.00000  0.15862
      18     H     0.42365  0.42365  0.00000  0.15271
      19     C     3.15099  3.15099  0.00000 -0.30198
      20     H     0.42775  0.42775  0.00000  0.14450
      21     H     0.42240  0.42240  0.00000  0.15519
      22     C     3.23936  3.23936  0.00000 -0.47872
      23     H     0.42242  0.42242  0.00000  0.15515
      24     H     0.42251  0.42251  0.00000  0.15498
      25     H     0.42188  0.42188  0.00000  0.15625
      26     H     0.41884  0.41884  0.00000  0.16231
      27     H     0.42209  0.42209  0.00000  0.15582

   Total alpha = 37.00000, Total beta = 37.00000, Total charge =  0.00000
