  ==> Input File <==

--------------------------------------------------------------------------
set {
	reference rhf
	basis 6-31G*
}

set_num_threads( 1 )
memory 2 gb

molecule MOL {
0 1

H	 -2.931332	 1.041296	 -1.194882
O	 -3.452007	 0.283848	 -0.965577
C	 -3.181085	 -0.079926	 0.364119
C	 -1.765924	 0.277073	 0.805136
H	 -3.327791	 -1.152017	 0.410903
H	 -3.905698	 0.375695	 1.036898
C	 -0.677594	 -0.417312	 -0.014550
H	 -1.637766	 1.358238	 0.744969
H	 -1.659588	 0.017670	 1.857098
C	 0.738335	 -0.034840	 0.421385
H	 -0.814977	 -0.178223	 -1.064632
H	 -0.802730	 -1.495410	 0.071702
C	 1.822265	 -0.738362	 -0.399735
H	 0.853533	 1.043532	 0.342250
H	 0.871597	 -0.279636	 1.474438
C	 3.258060	 -0.455774	 0.057203
H	 1.718003	 -0.459167	 -1.447053
H	 1.651028	 -1.811884	 -0.354513
C	 3.709143	 0.994797	 -0.123830
H	 3.930637	 -1.101717	 -0.501982
H	 3.365259	 -0.739518	 1.102287
H	 3.601178	 1.310569	 -1.158127
H	 4.753787	 1.110486	 0.148516
H	 3.135362	 1.678896	 0.492569

	symmetry c1
}
set optking {
	frozen_dihedral = ("
		20 16 13 17,
		17 13 10 7,
		13 10 7 11,
		11 7 4 3,
		7 4 3 2
	")
}

ee = energy('scf')
oeprop('DIPOLE', 'QUADRUPOLE', 'MULLIKEN_CHARGES')
f=open( 'psi4out.xyz', 'w' )
f.write( "24  " )
f.write( str(ee) + "\n" )
f.write( MOL.save_string_xyz() )
f.close()
--------------------------------------------------------------------------

    Molecular point group: c1

    Geometry (in Angstrom), charge = 0, multiplicity = 1:

       Center              X                  Y                   Z               Mass
    ------------   -----------------  -----------------  -----------------  -----------------
           H         -2.935579403464     1.042911299499    -1.193574697129     1.007825032070
           O         -3.456254403464     0.285463299499    -0.964269697129    15.994914619560
           C         -3.185332403464    -0.078310700501     0.365426302871    12.000000000000
           C         -1.770171403464     0.278688299499     0.806443302871    12.000000000000
           H         -3.332038403464    -1.150401700501     0.412210302871     1.007825032070
           H         -3.909945403464     0.377310299499     1.038205302871     1.007825032070
           C         -0.681841403464    -0.415696700501    -0.013242697129    12.000000000000
           H         -1.642013403464     1.359853299499     0.746276302871     1.007825032070
           H         -1.663835403464     0.019285299499     1.858405302871     1.007825032070
           C          0.734087596536    -0.033224700501     0.422692302871    12.000000000000
           H         -0.819224403464    -0.176607700501    -1.063324697129     1.007825032070
           H         -0.806977403464    -1.493794700501     0.073009302871     1.007825032070
           C          1.818017596536    -0.736746700501    -0.398427697129    12.000000000000
           H          0.849285596536     1.045147299499     0.343557302871     1.007825032070
           H          0.867349596536    -0.278020700501     1.475745302871     1.007825032070
           C          3.253812596536    -0.454158700501     0.058510302871    12.000000000000
           H          1.713755596536    -0.457551700501    -1.445745697129     1.007825032070
           H          1.646780596536    -1.810268700501    -0.353205697129     1.007825032070
           C          3.704895596536     0.996412299499    -0.122522697129    12.000000000000
           H          3.926389596536    -1.100101700501    -0.500674697129     1.007825032070
           H          3.361011596536    -0.737902700501     1.103594302871     1.007825032070
           H          3.596930596536     1.312184299499    -1.156819697129     1.007825032070
           H          4.749539596536     1.112101299499     0.149823302871     1.007825032070
           H          3.131114596536     1.680511299499     0.493876302871     1.007825032070

  Charge       = 0
  Multiplicity = 1
  Basis Set: 6-31G*
  Basis Set:

    Orbital Energies (a.u.)
    -----------------------

    Doubly Occupied:

       1A    -20.551408     2A    -11.266697     3A    -11.223217
       4A    -11.218123     5A    -11.216798     6A    -11.216693
       7A    -11.215093     8A    -11.209671     9A     -1.358975
      10A     -1.092935    11A     -1.051683    12A     -0.988158
      13A     -0.918151    14A     -0.854809    15A     -0.805038
      16A     -0.779883    17A     -0.664355    18A     -0.657850
      19A     -0.635090    20A     -0.624361    21A     -0.604048
      22A     -0.587868    23A     -0.560106    24A     -0.541657
      25A     -0.519168    26A     -0.514419    27A     -0.498933
      28A     -0.476665    29A     -0.471966    30A     -0.463621
      31A     -0.455714    32A     -0.450775    33A     -0.422132

  @DF-RHF Final Energy:  -349.24577750160694

   => Energetics <=

    Nuclear Repulsion Energy =            385.0320110372001068
    One-Electron Energy =               -1236.3232638933395720
    Two-Electron Energy =                 502.0454753545313338
    DFT Exchange-Correlation Energy =       0.0000000000000000
    Empirical Dispersion Energy =           0.0000000000000000
    PCM Polarization Energy =               0.0000000000000000
    EFP Energy =                            0.0000000000000000
    Total Energy =                       -349.2457775016080745

  Mulliken Charges: (a.u.)
   Center  Symbol    Alpha    Beta     Spin     Total
       1     H     0.28192  0.28192  0.00000  0.43615
       2     O     4.37284  4.37284  0.00000 -0.74569
       3     C     2.98162  2.98162  0.00000  0.03676
       4     C     3.18539  3.18539  0.00000 -0.37077
       5     H     0.41998  0.41998  0.00000  0.16003
       6     H     0.42671  0.42671  0.00000  0.14657
       7     C     3.15115  3.15115  0.00000 -0.30229
       8     H     0.42547  0.42547  0.00000  0.14905
       9     H     0.41791  0.41791  0.00000  0.16419
      10     C     3.15351  3.15351  0.00000 -0.30702
      11     H     0.41924  0.41924  0.00000  0.16153
      12     H     0.42045  0.42045  0.00000  0.15911
      13     C     3.15243  3.15243  0.00000 -0.30486
      14     H     0.42272  0.42272  0.00000  0.15456
      15     H     0.42400  0.42400  0.00000  0.15200
      16     C     3.15252  3.15252  0.00000 -0.30505
      17     H     0.42380  0.42380  0.00000  0.15239
      18     H     0.42148  0.42148  0.00000  0.15703
      19     C     3.24124  3.24124  0.00000 -0.48249
      20     H     0.42050  0.42050  0.00000  0.15900
      21     H     0.42335  0.42335  0.00000  0.15329
      22     H     0.42227  0.42227  0.00000  0.15546
      23     H     0.41893  0.41893  0.00000  0.16214
      24     H     0.42055  0.42055  0.00000  0.15890

   Total alpha = 33.00000, Total beta = 33.00000, Total charge =  0.00000
