                              Psi4 1.0.54 Driver

  ==> Input File <==

--------------------------------------------------------------------------
set {
	reference rhf
	basis cc-pvtz
}

set_num_threads( 4 )
memory 2 gb

molecule MOL {
0 1

H	 2.095469	 -0.720919	 -0.466551
O	 1.268626	 -0.643524	 -0.028390
C	 0.700177	 0.619554	 -0.266242
C	 -0.713111	 0.588314	 0.266177
H	 0.682318	 0.837438	 -1.329789
H	 1.263170	 1.400056	 0.238965
O	 -1.421673	 -0.521378	 -0.196983
H	 -1.244794	 1.469161	 -0.069059
H	 -0.685100	 0.604721	 1.352683
H	 -0.933408	 -1.297830	 0.014544

	symmetry c1
}
set optking {
	frozen_dihedral = ("
		5 3 4 7
	")
}

ee,wfn = optimize('scf', return_wfn=True)
oeprop( wfn, 'DIPOLE', 'QUADRUPOLE', 'MULLIKEN_CHARGES')
f=open( 'psi4out.xyz', 'w' )
f.write( "10  " )
f.write( str(ee) + "\n" )
f.write( MOL.save_string_xyz() )
f.close()
--------------------------------------------------------------------------

    Molecular point group: c1
  Charge       = 0
  Multiplicity = 1
  Basis Set: CC-PVTZ
  Basis Set:
  @DF-RHF Final Energy:  -229.02782753467037
    Total Energy =                       -229.0278275346703083
    Molecular point group: c1
  Basis Set: CC-PVTZ
  Basis Set:
  Basis Set: CC-PVTZ
  Basis Set:
  @DF-RHF Final Energy:  -229.02800999314422
    Total Energy =                       -229.0280099931441953
  Basis Set: CC-PVTZ
  Basis Set:
  Basis Set: CC-PVTZ
  Basis Set:
  @DF-RHF Final Energy:  -229.02812994260157
    Total Energy =                       -229.0281299426014812
  Basis Set: CC-PVTZ
  Basis Set:
  Charge       = 0
  Multiplicity = 1
  Basis Set: CC-PVTZ
  Basis Set:

    Orbital Energies (a.u.)
    -----------------------

    Doubly Occupied:

       1A    -20.563515     2A    -20.540308     3A    -11.275453
       4A    -11.266901     5A     -1.388142     6A     -1.354678
       7A     -1.003669     8A     -0.845461     9A     -0.731200
      10A     -0.682499    11A     -0.653237    12A     -0.604481
      13A     -0.579533    14A     -0.537300    15A     -0.492301
      16A     -0.456257    17A     -0.434077

  @DF-RHF Final Energy:  -229.02813108810886

   => Energetics <=

    Nuclear Repulsion Energy =            134.8881060647418622
    One-Electron Energy =                -581.0144519238135672
    Two-Electron Energy =                 217.0982147709628975
    DFT Exchange-Correlation Energy =       0.0000000000000000
    Empirical Dispersion Energy =           0.0000000000000000
    PCM Polarization Energy =               0.0000000000000000
    EFP Energy =                            0.0000000000000000
    Total Energy =                       -229.0281310881088075
    Molecular point group: c1
  Basis Set: CC-PVTZ
  Basis Set:

  -Total Gradient:
     Atom            X                  Y                   Z
    ------   -----------------  -----------------  -----------------
       1        0.000047208248    -0.000043338667    -0.000008878141
       2        0.000126579542    -0.000094533262    -0.000028074632
       3       -0.000096474740    -0.005091224488    -0.000106356857
       4       -0.001214571441     0.003094317264    -0.002963682314
       5        0.000251660598     0.003687670387     0.000780340441
       6        0.000002685295    -0.000017863322    -0.000009137728
       7        0.000966903572    -0.001626877933     0.002351776021
       8       -0.000059837756    -0.000052716390    -0.000009983555
       9        0.000000586209    -0.000002938284    -0.000009590328
      10       -0.000024739523     0.000147504693     0.000003587092

  **** Optimization is complete! (in 4 steps) ****
    Final optimized geometry and variables:
    Molecular point group: c1

    Geometry (in Angstrom), charge = 0, multiplicity = 1:

    H            2.143899128580    -0.664183152442    -0.383733319244
    O            1.309655777890    -0.599446531829     0.042179936043
    C            0.715712282884     0.644425316183    -0.219006790241
    C           -0.695708384790     0.609407239835     0.329407564599
    H            0.698887391175     0.864462085813    -1.282415333957
    H            1.264236066885     1.445019875404     0.271693264891
    O           -1.409709882946    -0.498059159107    -0.126777086873
    H           -1.228785170438     1.497081559873     0.015840270745
    H           -0.653168151983     0.610597461203     1.416136251597
    H           -0.875320997123    -1.263935516993    -0.009426066544

  Mulliken Charges: (a.u.)
   Center  Symbol    Alpha    Beta     Spin     Total
       1     H     0.39040  0.39040  0.00000  0.21919
       2     O     4.20635  4.20635  0.00000 -0.41270
       3     C     2.97064  2.97064  0.00000  0.05871
       4     C     2.96221  2.96221  0.00000  0.07557
       5     H     0.47140  0.47140  0.00000  0.05721
       6     H     0.47297  0.47297  0.00000  0.05407
       7     O     4.20990  4.20990  0.00000 -0.41980
       8     H     0.45926  0.45926  0.00000  0.08147
       9     H     0.47274  0.47274  0.00000  0.05451
      10     H     0.38412  0.38412  0.00000  0.23176

   Total alpha = 17.00000, Total beta = 17.00000, Total charge = -0.00000

*** Psi4 exiting successfully. Buy a developer a beer!
