  ==> Input File <==

--------------------------------------------------------------------------
set {
	reference rhf
	basis 6-31G*
}

set_num_threads( 4 )
memory 2 gb

molecule MOL {
0 1

H	 2.792027	 -0.683946	 1.225606
O	 3.496748	 -0.706234	 0.594778
C	 3.311021	 -1.786030	 -0.284767
C	 2.176930	 -1.563129	 -1.279191
H	 4.247177	 -1.896629	 -0.816796
H	 3.145296	 -2.707297	 0.272531
C	 0.795799	 -1.440633	 -0.630855
H	 2.392166	 -0.664854	 -1.852027
H	 2.174026	 -2.394573	 -1.982085
C	 -0.326930	 -1.271955	 -1.658399
H	 0.794754	 -0.593964	 0.049965
H	 0.598519	 -2.327656	 -0.028682
C	 -1.740545	 -1.230086	 -1.066555
H	 -0.151261	 -0.365602	 -2.235038
H	 -0.274561	 -2.096177	 -2.366648
C	 -2.037799	 -0.007733	 -0.193645
H	 -2.455162	 -1.252382	 -1.886702
H	 -1.915496	 -2.136742	 -0.489316
C	 -3.489788	 0.042957	 0.286558
H	 -1.814628	 0.897834	 -0.756008
H	 -1.380966	 0.002066	 0.672829
C	 -4.216917	 1.317354	 -0.141063
H	 -4.025645	 -0.823308	 -0.095450
H	 -3.513059	 -0.038752	 1.371301
H	 -4.239342	 1.411634	 -1.223113
H	 -5.243387	 1.322503	 0.212445
H	 -3.726170	 2.201406	 0.256408

	symmetry c1
}
set optking {
	frozen_dihedral = ("
		20 16 19 22
	")
}

ee = optimize('scf')
oeprop('DIPOLE', 'QUADRUPOLE', 'MULLIKEN_CHARGES')
f=open( 'psi4out.xyz', 'w' )
f.write( "27  " )
f.write( str(ee) + "\n" )
f.write( MOL.save_string_xyz() )
f.close()
--------------------------------------------------------------------------

    Molecular point group: c1
  Charge       = 0
  Multiplicity = 1
  Basis Set: 6-31G*
  Basis Set:
  @DF-RHF Final Energy:  -388.27583822372105
    Total Energy =                       -388.2758382237207115
    Molecular point group: c1
  Basis Set: 6-31G*
  Basis Set:
  Basis Set: 6-31G*
  Basis Set:
  @DF-RHF Final Energy:  -388.27606903990028
    Total Energy =                       -388.2760690398996530
  Basis Set: 6-31G*
  Basis Set:
  Basis Set: 6-31G*
  Basis Set:
  @DF-RHF Final Energy:  -388.27614140641811
    Total Energy =                       -388.2761414064182190
  Basis Set: 6-31G*
  Basis Set:
  Basis Set: 6-31G*
  Basis Set:
  @DF-RHF Final Energy:  -388.27606635989889
    Total Energy =                       -388.2760663598992323
  Basis Set: 6-31G*
  Basis Set:
  Basis Set: 6-31G*
  Basis Set:
  @DF-RHF Final Energy:  -388.27615148722913
    Total Energy =                       -388.2761514872286170
  Basis Set: 6-31G*
  Basis Set:
  Charge       = 0
  Multiplicity = 1
  Basis Set: 6-31G*
  Basis Set:

    Orbital Energies (a.u.)
    -----------------------

    Doubly Occupied:

       1A    -20.552348     2A    -11.267084     3A    -11.219871
       4A    -11.217144     5A    -11.216138     6A    -11.215741
       7A    -11.215247     8A    -11.214003     9A    -11.209509
      10A     -1.359101    11A     -1.094285    12A     -1.059773
      13A     -1.010925    14A     -0.947999    15A     -0.888354
      16A     -0.821763    17A     -0.800976    18A     -0.778213
      19A     -0.693777    20A     -0.647563    21A     -0.635739
      22A     -0.614895    23A     -0.597618    24A     -0.590569
      25A     -0.580108    26A     -0.553732    27A     -0.540584
      28A     -0.527744    29A     -0.509988    30A     -0.490344
      31A     -0.483999    32A     -0.477098    33A     -0.468421
      34A     -0.459432    35A     -0.449482    36A     -0.440473
      37A     -0.422712

  @DF-RHF Final Energy:  -388.27615156692775

   => Energetics <=

    Nuclear Repulsion Energy =            459.2443674072861768
    One-Electron Energy =               -1436.4955360701778773
    Two-Electron Energy =                 588.9750170959632669
    DFT Exchange-Correlation Energy =       0.0000000000000000
    Empirical Dispersion Energy =           0.0000000000000000
    PCM Polarization Energy =               0.0000000000000000
    EFP Energy =                            0.0000000000000000
    Total Energy =                       -388.2761515669284336
    Molecular point group: c1
  Basis Set: 6-31G*
  Basis Set:

  -Total Gradient:
     Atom            X                  Y                   Z
    ------   -----------------  -----------------  -----------------
       1       -0.000003712208     0.000001457625     0.000000294553
       2       -0.000002361169    -0.000002394142     0.000000466908
       3        0.000002664584     0.000005449445    -0.000003779343
       4       -0.000001588558    -0.000008018835    -0.000004102949
       5       -0.000000011098    -0.000000313508    -0.000001380990
       6       -0.000001113160     0.000000468568    -0.000000775099
       7       -0.000003539620     0.000010646174    -0.000006634062
       8        0.000000360716    -0.000001779290    -0.000000489345
       9        0.000003481836    -0.000002510750    -0.000000312468
      10        0.000010029192    -0.000023933243     0.000020961734
      11        0.000002389180     0.000003432011     0.000003230190
      12       -0.000008619500    -0.000000432917     0.000000850887
      13       -0.000004797289     0.000018996818    -0.000002444854
      14       -0.000006339329     0.000005393991     0.000018208991
      15       -0.000001720423    -0.000002247628    -0.000011138523
      16       -0.000263208023    -0.000364211493    -0.000668037345
      17        0.000012994611    -0.000000927967    -0.000010809474
      18        0.000000458477     0.000004021994     0.000003677822
      19        0.000215806767     0.000297602946     0.000538272835
      20        0.000146940027     0.000246233693     0.000423816536
      21       -0.000001382548    -0.000003461767     0.000006287795
      22       -0.000104329216    -0.000179892766    -0.000312222911
      23        0.000000124571    -0.000003793035    -0.000000247422
      24        0.000004325198     0.000008759733     0.000001308681
      25        0.000005981893    -0.000001697791     0.000002910344
      26       -0.000003446608    -0.000004198270     0.000000139639
      27        0.000000611680    -0.000002649598     0.000001947869

  **** Optimization is complete! (in 6 steps) ****
    Final optimized geometry and variables:
    Molecular point group: c1

    Geometry (in Angstrom), charge = 0, multiplicity = 1:

    H            2.973760948982     0.030175398493     1.690336128347
    O            3.679110433651     0.008784832985     1.060175819509
    C            3.492411373460    -1.067996327921     0.177172896518
    C            2.360678821847    -0.839403261212    -0.818634311736
    H            4.429278453119    -1.179024862318    -0.353478273978
    H            3.323653875427    -1.990556713917     0.731404683791
    C            0.978884828980    -0.714264426448    -0.172261894632
    H            2.579482561313     0.059529634116    -1.389071422177
    H            2.356466681915    -1.669218806574    -1.523428510476
    C           -0.141375061050    -0.537844128369    -1.201386575550
    H            0.980151092562     0.129705827234     0.511846540321
    H            0.777245506027    -1.602839265465     0.426141462163
    C           -1.555848590783    -0.493478245165    -0.612997743274
    H            0.038605439999     0.369931533223    -1.774605026680
    H           -0.090152708426    -1.359810572301    -1.912405026293
    C           -1.857677404171     0.734692719876     0.251626476941
    H           -2.270084707580    -0.520121255560    -1.433633750963
    H           -1.732773862558    -1.396354509907    -0.030356134782
    C           -3.318808890128     0.781464708108     0.755433881222
    H           -1.640984449528     1.631308168709    -0.325518790781
    H           -1.181205151527     0.760583409379     1.100290453840
    C           -4.069544611399     2.042626295230     0.326354107381
    H           -3.859078837958    -0.087653841036     0.388617418374
    H           -3.340398419697     0.707507865367     1.838923704785
    H           -4.104148793520     2.125893613319    -0.756463451329
    H           -5.092081681394     2.036683185361     0.691622206031
    H           -3.585587320744     2.936494521847     0.709707874907

  Mulliken Charges: (a.u.)
   Center  Symbol    Alpha    Beta     Spin     Total
       1     H     0.27991  0.27991  0.00000  0.44017
       2     O     4.37093  4.37093  0.00000 -0.74185
       3     C     2.99741  2.99741  0.00000  0.00518
       4     C     3.16086  3.16086  0.00000 -0.32171
       5     H     0.41443  0.41443  0.00000  0.17114
       6     H     0.43203  0.43203  0.00000  0.13593
       7     C     3.16317  3.16317  0.00000 -0.32633
       8     H     0.41497  0.41497  0.00000  0.17007
       9     H     0.42433  0.42433  0.00000  0.15135
      10     C     3.15284  3.15284  0.00000 -0.30567
      11     H     0.42311  0.42311  0.00000  0.15377
      12     H     0.42537  0.42537  0.00000  0.14926
      13     C     3.15548  3.15548  0.00000 -0.31096
      14     H     0.42156  0.42156  0.00000  0.15687
      15     H     0.42145  0.42145  0.00000  0.15711
      16     C     3.15651  3.15651  0.00000 -0.31303
      17     H     0.42114  0.42114  0.00000  0.15772
      18     H     0.42378  0.42378  0.00000  0.15244
      19     C     3.15510  3.15510  0.00000 -0.31020
      20     H     0.42058  0.42058  0.00000  0.15883
      21     H     0.42098  0.42098  0.00000  0.15803
      22     C     3.23964  3.23964  0.00000 -0.47929
      23     H     0.42011  0.42011  0.00000  0.15977
      24     H     0.42051  0.42051  0.00000  0.15898
      25     H     0.42194  0.42194  0.00000  0.15611
      26     H     0.42054  0.42054  0.00000  0.15893
      27     H     0.42132  0.42132  0.00000  0.15737

   Total alpha = 37.00000, Total beta = 37.00000, Total charge = -0.00000
