  ==> Input File <==

--------------------------------------------------------------------------
set {
	reference rhf
	basis 6-31G*
}

set_num_threads( 4 )
memory 2 gb

molecule MOL {
0 1

H	 -2.399413	 -0.626140	 2.219532
C	 -2.326230	 -1.530380	 1.618586
O	 -1.123787	 -1.581817	 0.920858
H	 -2.360060	 -2.389821	 2.273840
H	 -3.181916	 -1.567574	 0.945648
C	 -0.939545	 -0.532492	 0.024075
C	 0.437584	 -0.635026	 -0.588467
H	 -1.688271	 -0.576089	 -0.767888
H	 -1.037987	 0.427743	 0.526332
O	 1.392611	 -0.295398	 0.366430
H	 0.594834	 -1.649408	 -0.949450
H	 0.500878	 0.039676	 -1.443140
C	 2.706965	 -0.449871	 -0.062409
H	 2.756559	 -0.644779	 -1.131878
H	 3.305899	 0.433456	 0.155466
H	 3.125548	 -1.294566	 0.467107

	symmetry c1
}
set optking {
	frozen_dihedral = ("
		7 10 13 14
	")
}

ee = optimize('scf')
oeprop('DIPOLE', 'QUADRUPOLE', 'MULLIKEN_CHARGES')
f=open( 'psi4out.xyz', 'w' )
f.write( "16  " )
f.write( str(ee) + "\n" )
f.write( MOL.save_string_xyz() )
f.close()
--------------------------------------------------------------------------

    Molecular point group: c1
  Charge       = 0
  Multiplicity = 1
  Basis Set: 6-31G*
  Basis Set:
  @DF-RHF Final Energy:  -306.97332561286299
    Total Energy =                       -306.9733256128630501
    Molecular point group: c1
  Basis Set: 6-31G*
  Basis Set:
  Basis Set: 6-31G*
  Basis Set:
  @DF-RHF Final Energy:  -306.97387221846566
    Total Energy =                       -306.9738722184657718
  Basis Set: 6-31G*
  Basis Set:
  Basis Set: 6-31G*
  Basis Set:
  @DF-RHF Final Energy:  -306.97401429264647
    Total Energy =                       -306.9740142926464159
  Basis Set: 6-31G*
  Basis Set:
  Charge       = 0
  Multiplicity = 1
  Basis Set: 6-31G*
  Basis Set:

    Orbital Energies (a.u.)
    -----------------------

    Doubly Occupied:

       1A    -20.553123     2A    -20.549618     3A    -11.269270
       4A    -11.268033     5A    -11.263205     6A    -11.262987
       7A     -1.385865     8A     -1.367408     9A     -1.030395
      10A     -0.936064    11A     -0.891949    12A     -0.823547
      13A     -0.682465    14A     -0.678768    15A     -0.656037
      16A     -0.633393    17A     -0.628226    18A     -0.595811
      19A     -0.553964    20A     -0.537805    21A     -0.507865
      22A     -0.476889    23A     -0.461599    24A     -0.417247
      25A     -0.406852

  @DF-RHF Final Energy:  -306.97401514105735

   => Energetics <=

    Nuclear Repulsion Energy =            258.5395009535828308
    One-Electron Energy =                -931.3502627270752328
    Two-Electron Energy =                 365.8367466324350517
    DFT Exchange-Correlation Energy =       0.0000000000000000
    Empirical Dispersion Energy =           0.0000000000000000
    PCM Polarization Energy =               0.0000000000000000
    EFP Energy =                            0.0000000000000000
    Total Energy =                       -306.9740151410574072
    Molecular point group: c1
  Basis Set: 6-31G*
  Basis Set:

  -Total Gradient:
     Atom            X                  Y                   Z
    ------   -----------------  -----------------  -----------------
       1       -0.000000459260     0.000000249491    -0.000000366773
       2       -0.000001292123    -0.000001381290     0.000004508383
       3       -0.000003058025     0.000011773337     0.000021416329
       4       -0.000000790933    -0.000000144351     0.000001496597
       5        0.000004500002     0.000001107500    -0.000002140074
       6       -0.000023903500    -0.000046200567    -0.000033185862
       7       -0.000030134583     0.001265294407    -0.000461427300
       8       -0.000040079557     0.000002689621    -0.000004833046
       9        0.000023471422    -0.000027736526    -0.000010227286
      10        0.000125577580    -0.002122609511     0.000633934225
      11        0.000015166313     0.000024572704     0.000044990501
      12        0.000003872162    -0.000018481470    -0.000010778543
      13        0.000097873181     0.002382959843    -0.000427338304
      14       -0.000149353481    -0.001488156759     0.000246549329
      15       -0.000041567958     0.000020485634    -0.000003260583
      16        0.000020178758    -0.000004422065     0.000000662410

  **** Optimization is complete! (in 4 steps) ****
    Final optimized geometry and variables:
    Molecular point group: c1

    Geometry (in Angstrom), charge = 0, multiplicity = 1:

    H           -2.410564407818     0.220148957971     1.846965785164
    C           -2.349123251810    -0.682289468520     1.242005551402
    O           -1.153712806254    -0.739329386045     0.532754452537
    H           -2.382964675472    -1.543951179868     1.894346065805
    H           -3.211036261690    -0.710882330604     0.576698547112
    C           -0.970782058113     0.312041118416    -0.361986724425
    C            0.400512411857     0.204596784562    -0.986571194973
    H           -1.726455261832     0.275505516924    -1.147859134352
    H           -1.059529972959     1.270877520732     0.144491429492
    O            1.362720934840     0.534124590156    -0.033769774338
    H            0.544899158714    -0.808804344168    -1.353806713422
    H            0.459133998411     0.883960597433    -1.837033575733
    C            2.692884677766     0.386277950320    -0.434178880624
    H            2.777832713520     0.196668310427    -1.500318247750
    H            3.238493204502     1.291988632520    -0.196720711915
    H            3.150075405042    -0.445723223820     0.092381949558

  Mulliken Charges: (a.u.)
   Center  Symbol    Alpha    Beta     Spin     Total
       1     H     0.42808  0.42808  0.00000  0.14383
       2     C     3.07941  3.07941  0.00000 -0.15883
       3     O     4.30085  4.30085  0.00000 -0.60169
       4     H     0.41140  0.41140  0.00000  0.17721
       5     H     0.43199  0.43199  0.00000  0.13602
       6     C     2.99350  2.99350  0.00000  0.01300
       7     C     2.99326  2.99326  0.00000  0.01347
       8     H     0.43250  0.43250  0.00000  0.13500
       9     H     0.42282  0.42282  0.00000  0.15436
      10     O     4.30565  4.30565  0.00000 -0.61131
      11     H     0.42257  0.42257  0.00000  0.15486
      12     H     0.43206  0.43206  0.00000  0.13588
      13     C     3.07602  3.07602  0.00000 -0.15205
      14     H     0.43069  0.43069  0.00000  0.13862
      15     H     0.41889  0.41889  0.00000  0.16223
      16     H     0.42030  0.42030  0.00000  0.15940

   Total alpha = 25.00000, Total beta = 25.00000, Total charge =  0.00000
