  ==> Input File <==

--------------------------------------------------------------------------
set {
	reference rhf
	basis cc-pvtz
}

set_num_threads( 4 )
memory 2 gb

molecule MOL {
0 1

H	 -3.421045	 -0.856178	 0.497368
O	 -3.111620	 -0.160824	 -0.054985
C	 -1.774486	 -0.064349	 -0.015462
C	 -0.995994	 -0.912689	 0.762166
C	 -1.180904	 0.922197	 -0.785249
H	 -1.463804	 -1.675647	 1.356705
C	 0.371256	 -0.770196	 0.765999
H	 -1.799495	 1.565853	 -1.377762
C	 0.189509	 1.051690	 -0.770287
H	 0.982973	 -1.418355	 1.361652
C	 0.981121	 0.213562	 0.000000
H	 0.651079	 1.816719	 -1.367113
C	 2.447402	 0.371303	 0.000000
O	 3.227427	 -0.521847	 0.000000
H	 2.796538	 1.409525	 0.000000

	symmetry c1
}
set optking {
	frozen_dihedral = ("
		7 11 13 14
	")
}

ee = optimize('scf')
oeprop('DIPOLE', 'QUADRUPOLE', 'MULLIKEN_CHARGES')
f=open( 'psi4out.xyz', 'w' )
f.write( "15  " )
f.write( str(ee) + "\n" )
f.write( MOL.save_string_xyz() )
f.close()
--------------------------------------------------------------------------

    Molecular point group: c1
  Charge       = 0
  Multiplicity = 1
  Basis Set: CC-PVTZ
  Basis Set:
  @DF-RHF Final Energy:  -418.43635212600554
    Total Energy =                       -418.4363521260056586
    Molecular point group: c1
  Basis Set: CC-PVTZ
  Basis Set:
  Basis Set: CC-PVTZ
  Basis Set:
  @DF-RHF Final Energy:  -418.43510051009537
    Total Energy =                       -418.4351005100952534
  Basis Set: CC-PVTZ
  Basis Set:
  Basis Set: CC-PVTZ
  Basis Set:
  @DF-RHF Final Energy:  -418.43691383331219
    Total Energy =                       -418.4369138333117917
  Basis Set: CC-PVTZ
  Basis Set:
  Basis Set: CC-PVTZ
  Basis Set:
  @DF-RHF Final Energy:  -418.43708322605215
    Total Energy =                       -418.4370832260523230
  Basis Set: CC-PVTZ
  Basis Set:
  @DF-RHF Final Energy:  -418.43708610846534
    Total Energy =                       -418.4370861084654507
  Basis Set: CC-PVTZ
  Basis Set:
  @DF-RHF Final Energy:  -418.43708810065965
    Total Energy =                       -418.4370881006591389
  Basis Set: CC-PVTZ
  Basis Set:
  Basis Set: CC-PVTZ
  Basis Set:
  @DF-RHF Final Energy:  -418.43671810859666
    Total Energy =                       -418.4367181085968923
  Basis Set: CC-PVTZ
  Basis Set:
  Basis Set: CC-PVTZ
  Basis Set:
  @DF-RHF Final Energy:  -418.43678513029772
    Total Energy =                       -418.4367851302973804
  Basis Set: CC-PVTZ
  Basis Set:
  Charge       = 0
  Multiplicity = 1
  Basis Set: CC-PVTZ
  Basis Set:

    Orbital Energies (a.u.)
    -----------------------

    Doubly Occupied:

       1A    -20.602105     2A    -20.551027     3A    -11.325298
       4A    -11.318936     5A    -11.256075     6A    -11.254504
       7A    -11.241374     8A    -11.238873     9A    -11.236568
      10A     -1.434817    11A     -1.406323    12A     -1.174634
      13A     -1.043508    14A     -1.041884    15A     -0.891226
      16A     -0.869398    17A     -0.798896    18A     -0.760545
      19A     -0.716695    20A     -0.673000    21A     -0.650827
      22A     -0.631703    23A     -0.612924    24A     -0.609939
      25A     -0.591290    26A     -0.565307    27A     -0.545188
      28A     -0.508354    29A     -0.492930    30A     -0.423385
      31A     -0.360991    32A     -0.330482

  @DF-RHF Final Energy:  -418.43708820035533

   => Energetics <=

    Nuclear Repulsion Energy =            401.8456899002162572
    One-Electron Energy =               -1366.2475432940623250
    Two-Electron Energy =                 545.9647651934900523
    DFT Exchange-Correlation Energy =       0.0000000000000000
    Empirical Dispersion Energy =           0.0000000000000000
    PCM Polarization Energy =               0.0000000000000000
    EFP Energy =                            0.0000000000000000
    Total Energy =                       -418.4370882003560155
    Molecular point group: c1
  Basis Set: CC-PVTZ
  Basis Set:

  -Total Gradient:
     Atom            X                  Y                   Z
    ------   -----------------  -----------------  -----------------
       1        0.000002666102     0.000003349919     0.000000423862
       2       -0.000005815249     0.000013368374     0.000028875483
       3       -0.000004171203     0.000009494735    -0.000104921990
       4        0.000062625417     0.000030399250     0.000081343937
       5       -0.000059858563    -0.000015478543     0.000060686944
       6       -0.000003696714    -0.000006007029    -0.000008673422
       7       -0.000750227681     0.004119793951     0.004631634361
       8        0.000007700089    -0.000001744013    -0.000009636901
       9        0.000076951915    -0.000095608873    -0.000061921976
      10        0.000000961238     0.000028086179     0.000039978762
      11        0.001117974603    -0.006263719091    -0.010468171302
      12       -0.000005772019     0.000029555408     0.000025187101
      13       -0.000714480717     0.002423004983     0.013602644775
      14        0.000263647553    -0.000275062548    -0.007819636118
      15        0.000011495231     0.000000567295     0.000002186489

  **** Optimization is complete! (in 9 steps) ****
    Final optimized geometry and variables:
    Molecular point group: c1

    Geometry (in Angstrom), charge = 0, multiplicity = 1:

    H           -3.428644264856    -0.849923280914     0.497465165957
    O           -3.118157335246    -0.151289279257    -0.050178291122
    C           -1.778581195943    -0.064354283184    -0.015760730867
    C           -1.001587793870    -0.909118682415     0.761548288852
    C           -1.181762856986     0.922855051976    -0.783685536277
    H           -1.468708265526    -1.659686405736     1.372286236383
    C            0.370146931182    -0.779469752896     0.749695069923
    H           -1.799290280120     1.574485863764    -1.368873018283
    C            0.187496743293     1.057268369632    -0.763886724976
    H            0.976715808989    -1.435442092996     1.343127694448
    C            0.981357647084     0.187892959329    -0.030300255936
    H            0.645541158324     1.842045956608    -1.337647927655
    C            2.450282673387     0.378584678130     0.014309124771
    O            3.241876048665    -0.500192277988     0.073853757320
    H            2.785202738660     1.418051146693    -0.071478980607

  Mulliken Charges: (a.u.)
   Center  Symbol    Alpha    Beta     Spin     Total
       1     H     0.38572  0.38572  0.00000  0.22856
       2     O     4.16776  4.16776  0.00000 -0.33552
       3     C     2.84927  2.84927  0.00000  0.30147
       4     C     3.12846  3.12846  0.00000 -0.25692
       5     C     3.10420  3.10420  0.00000 -0.20840
       6     H     0.43152  0.43152  0.00000  0.13696
       7     C     3.07874  3.07874  0.00000 -0.15749
       8     H     0.41665  0.41665  0.00000  0.16669
       9     C     3.07256  3.07256  0.00000 -0.14512
      10     H     0.41089  0.41089  0.00000  0.17822
      11     C     2.97807  2.97807  0.00000  0.04387
      12     H     0.42215  0.42215  0.00000  0.15569
      13     C     2.92055  2.92055  0.00000  0.15891
      14     O     4.17201  4.17201  0.00000 -0.34401
      15     H     0.46146  0.46146  0.00000  0.07709

   Total alpha = 32.00000, Total beta = 32.00000, Total charge =  0.00000
