                              Psi4 1.0.54 Driver

  ==> Input File <==

--------------------------------------------------------------------------
set {
	reference rhf
	basis cc-pvtz
}

set_num_threads( 4 )
memory 2 gb

molecule MOL {
0 1

O	 -1.482231	 1.235834	 -0.134389
C	 -1.081510	 0.147522	 0.122720
C	 0.327029	 -0.064006	 0.641890
C	 -1.940871	 -1.079119	 -0.069947
C	 1.349460	 -0.017068	 -0.500215
H	 0.399029	 -1.014606	 1.159950
H	 0.538021	 0.726928	 1.350471
C	 2.779782	 -0.209014	 -0.009215
H	 1.115007	 -0.782959	 -1.233891
H	 1.259071	 0.936707	 -1.006644
H	 3.481860	 -0.160270	 -0.833072
H	 2.903471	 -1.171535	 0.475559
H	 3.052569	 0.559584	 0.705428
H	 -1.407240	 -1.835353	 -0.634840
H	 -2.856436	 -0.815828	 -0.576816
H	 -2.173490	 -1.508075	 0.899454

	symmetry c1
}
set optking {
	frozen_dihedral = ("
		4 2 3 5
	")
}

ee,wfn = optimize('scf', return_wfn=True)
oeprop( wfn, 'DIPOLE', 'QUADRUPOLE', 'MULLIKEN_CHARGES')
f=open( 'psi4out.xyz', 'w' )
f.write( "16  " )
f.write( str(ee) + "\n" )
f.write( MOL.save_string_xyz() )
f.close()
--------------------------------------------------------------------------

    Molecular point group: c1
  Charge       = 0
  Multiplicity = 1
  Basis Set: CC-PVTZ
  Basis Set:
  @DF-RHF Final Energy:  -270.12942818935312
    Total Energy =                       -270.1294281893531206
    Molecular point group: c1
  Basis Set: CC-PVTZ
  Basis Set:
  Basis Set: CC-PVTZ
  Basis Set:
  @DF-RHF Final Energy:  -270.12940182730142
    Total Energy =                       -270.1294018273015922
  Basis Set: CC-PVTZ
  Basis Set:
  Basis Set: CC-PVTZ
  Basis Set:
  @DF-RHF Final Energy:  -270.12943090842850
    Total Energy =                       -270.1294309084285601
  Basis Set: CC-PVTZ
  Basis Set:
  Basis Set: CC-PVTZ
  Basis Set:
  @DF-RHF Final Energy:  -270.12943302494671
    Total Energy =                       -270.1294330249469340
  Basis Set: CC-PVTZ
  Basis Set:
  Basis Set: CC-PVTZ
  Basis Set:
  @DF-RHF Final Energy:  -270.12942983616608
    Total Energy =                       -270.1294298361661390
  Basis Set: CC-PVTZ
  Basis Set:
  Basis Set: CC-PVTZ
  Basis Set:
  @DF-RHF Final Energy:  -270.12943334386102
    Total Energy =                       -270.1294333438612512
  Basis Set: CC-PVTZ
  Basis Set:
  Charge       = 0
  Multiplicity = 1
  Basis Set: CC-PVTZ
  Basis Set:

    Orbital Energies (a.u.)
    -----------------------

    Doubly Occupied:

       1A    -20.537317     2A    -11.319967     3A    -11.230638
       4A    -11.228443     5A    -11.227532     6A    -11.217096
       7A     -1.397596     8A     -1.083217     9A     -1.014568
      10A     -0.950306    11A     -0.828942    12A     -0.736474
      13A     -0.661081    14A     -0.651048    15A     -0.614083
      16A     -0.608995    17A     -0.576337    18A     -0.560297
      19A     -0.539052    20A     -0.518775    21A     -0.504032
      22A     -0.484577    23A     -0.474080    24A     -0.400571

  @DF-RHF Final Energy:  -270.12943339382832

   => Energetics <=

    Nuclear Repulsion Energy =            237.5175375459323561
    One-Electron Energy =                -836.5639000359735746
    Two-Electron Energy =                 328.9169290962126979
    DFT Exchange-Correlation Energy =       0.0000000000000000
    Empirical Dispersion Energy =           0.0000000000000000
    PCM Polarization Energy =               0.0000000000000000
    EFP Energy =                            0.0000000000000000
    Total Energy =                       -270.1294333938285490
    Molecular point group: c1
  Basis Set: CC-PVTZ
  Basis Set:

  -Total Gradient:
     Atom            X                  Y                   Z
    ------   -----------------  -----------------  -----------------
       1       -0.000000276270    -0.000000369094     0.000001636682
       2        0.000073600800     0.000027748388    -0.000196684706
       3       -0.000038670820    -0.000185167689     0.000039676946
       4       -0.000040669676     0.000012392364     0.000120749792
       5        0.000012292315     0.000140168700     0.000024332957
       6       -0.000000081604    -0.000000432317     0.000000840834
       7       -0.000001583765     0.000001151514    -0.000000113766
       8        0.000000294143     0.000000432421    -0.000008988997
       9        0.000001352133    -0.000001704442    -0.000001634163
      10        0.000003230274     0.000002546244     0.000000599046
      11       -0.000000357475    -0.000000101201     0.000000506890
      12       -0.000001763186    -0.000001156490     0.000001155897
      13       -0.000001184959     0.000000855371     0.000001536088
      14       -0.000003610058    -0.000000143567     0.000006482372
      15       -0.000000654193     0.000000173681     0.000003145671
      16       -0.000001917658     0.000003606116     0.000006758457

  **** Optimization is complete! (in 7 steps) ****
    Final optimized geometry and variables:
    Molecular point group: c1

    Geometry (in Angstrom), charge = 0, multiplicity = 1:

    O           -1.481015413985     1.234145177688    -0.138157426058
    C           -1.080271322403     0.145429552249     0.117091664162
    C            0.328281310966    -0.064716511875     0.638162898113
    C           -1.938445622372    -1.081259597343    -0.077415331688
    C            1.350945835443    -0.015936267911    -0.503256268569
    H            0.402092835209    -1.013021658959     1.159625647756
    H            0.537426286388     0.728409276430     1.345402589817
    C            2.781689188587    -0.204132546909    -0.012257886851
    H            1.117758934103    -0.783565759811    -1.235815562010
    H            1.257056722525     0.936635010667    -1.010694609124
    H            3.483095585490    -0.159725609012    -0.836933512815
    H            2.906716700662    -1.163654756347     0.478134553099
    H            3.054519335140     0.568942319974     0.697603008673
    H           -1.407693495667    -1.829112617438    -0.656373577323
    H           -2.860725535175    -0.816412596876    -0.571135998380
    H           -2.157479069414    -1.521615055048     0.890069209159

  Mulliken Charges: (a.u.)
   Center  Symbol    Alpha    Beta     Spin     Total
       1     O     4.17725  4.17725  0.00000 -0.35450
       2     C     2.85760  2.85760  0.00000  0.28481
       3     C     3.09888  3.09888  0.00000 -0.19776
       4     C     3.15462  3.15462  0.00000 -0.30924
       5     C     3.09043  3.09043  0.00000 -0.18086
       6     H     0.44988  0.44988  0.00000  0.10025
       7     H     0.43977  0.43977  0.00000  0.12046
       8     C     3.14901  3.14901  0.00000 -0.29802
       9     H     0.45308  0.45308  0.00000  0.09384
      10     H     0.44066  0.44066  0.00000  0.11869
      11     H     0.44619  0.44619  0.00000  0.10763
      12     H     0.45518  0.45518  0.00000  0.08964
      13     H     0.45201  0.45201  0.00000  0.09598
      14     H     0.45083  0.45083  0.00000  0.09834
      15     H     0.43618  0.43618  0.00000  0.12764
      16     H     0.44844  0.44844  0.00000  0.10311

   Total alpha = 24.00000, Total beta = 24.00000, Total charge =  0.00000

*** Psi4 exiting successfully. Buy a developer a beer!
