  ==> Input File <==

--------------------------------------------------------------------------
set {
	reference rhf
	basis 6-31G*
}

set_num_threads( 1 )
memory 2 gb

molecule MOL {
0 1

O	 -0.682937	 1.318834	 -0.186099
C	 -0.860635	 0.152188	 -0.042321
C	 -2.173363	 -0.477127	 0.338347
O	 0.083258	 -0.765189	 -0.202595
H	 -2.477673	 -1.180929	 -0.427595
H	 -2.923125	 0.290956	 0.455536
H	 -2.058825	 -1.029004	 1.264191
C	 -0.105693	 -2.044651	 0.397464
C	 -0.951672	 -2.950410	 -0.478075
H	 -0.548745	 -1.916930	 1.373442
H	 0.893229	 -2.440123	 0.512600
H	 -1.014166	 -3.938293	 -0.032082
H	 -1.956197	 -2.559529	 -0.580589
H	 -0.510150	 -3.048944	 -1.463856

	symmetry c1
}
set optking {
	frozen_dihedral = ("
		10 8 4 2
	")
}

ee = energy('scf')
oeprop('DIPOLE', 'QUADRUPOLE', 'MULLIKEN_CHARGES')
f=open( 'psi4out.xyz', 'w' )
f.write( "14  " )
f.write( str(ee) + "\n" )
f.write( MOL.save_string_xyz() )
f.close()
--------------------------------------------------------------------------

    Molecular point group: c1

    Geometry (in Angstrom), charge = 0, multiplicity = 1:

       Center              X                  Y                   Z               Mass
    ------------   -----------------  -----------------  -----------------  -----------------
           O          0.104851981158     2.124389346830    -0.157458337448    15.994914619560
           C         -0.072846018842     0.957743346830    -0.013680337448    12.000000000000
           C         -1.385574018842     0.328428346830     0.366987662552    12.000000000000
           O          0.871046981158     0.040366346830    -0.173954337448    15.994914619560
           H         -1.689884018842    -0.375373653170    -0.398954337448     1.007825032070
           H         -2.135336018842     1.096511346830     0.484176662552     1.007825032070
           H         -1.271036018842    -0.223448653170     1.292831662552     1.007825032070
           C          0.682095981158    -1.239095653170     0.426104662552    12.000000000000
           C         -0.163883018842    -2.144854653170    -0.449434337448    12.000000000000
           H          0.239043981158    -1.111374653170     1.402082662552     1.007825032070
           H          1.681017981158    -1.634567653170     0.541240662552     1.007825032070
           H         -0.226377018842    -3.132737653170    -0.003441337448     1.007825032070
           H         -1.168408018842    -1.753973653170    -0.551948337448     1.007825032070
           H          0.277638981158    -2.243388653170    -1.435215337448     1.007825032070

  Charge       = 0
  Multiplicity = 1
  Basis Set: 6-31G*
  Basis Set:

    Orbital Energies (a.u.)
    -----------------------

    Doubly Occupied:

       1A    -20.604001     2A    -20.543909     3A    -11.377397
       4A    -11.304058     5A    -11.235731     6A    -11.234036
       7A     -1.466458     8A     -1.368634     9A     -1.056896
      10A     -1.025764    11A     -0.900094    12A     -0.779751
      13A     -0.708927    14A     -0.695020    15A     -0.661649
      16A     -0.634147    17A     -0.599727    18A     -0.588102
      19A     -0.559742    20A     -0.538884    21A     -0.529966
      22A     -0.493109    23A     -0.448551    24A     -0.434176

  @DF-RHF Final Energy:  -305.83320514663410

   => Energetics <=

    Nuclear Repulsion Energy =            252.9130593159768239
    One-Electron Energy =                -917.9150498104189637
    Two-Electron Energy =                 359.1687853478084662
    DFT Exchange-Correlation Energy =       0.0000000000000000
    Empirical Dispersion Energy =           0.0000000000000000
    PCM Polarization Energy =               0.0000000000000000
    EFP Energy =                            0.0000000000000000
    Total Energy =                       -305.8332051466336452

  Mulliken Charges: (a.u.)
   Center  Symbol    Alpha    Beta     Spin     Total
       1     O     4.26959  4.26959  0.00000 -0.53918
       2     C     2.60601  2.60601  0.00000  0.78799
       3     C     3.32025  3.32025  0.00000 -0.64049
       4     O     4.30021  4.30021  0.00000 -0.60042
       5     H     0.39815  0.39815  0.00000  0.20369
       6     H     0.38931  0.38931  0.00000  0.22138
       7     H     0.40414  0.40414  0.00000  0.19172
       8     C     3.01702  3.01702  0.00000 -0.03404
       9     C     3.25382  3.25382  0.00000 -0.50763
      10     H     0.41343  0.41343  0.00000  0.17314
      11     H     0.39565  0.39565  0.00000  0.20870
      12     H     0.41412  0.41412  0.00000  0.17176
      13     H     0.41421  0.41421  0.00000  0.17159
      14     H     0.40409  0.40409  0.00000  0.19181

   Total alpha = 24.00000, Total beta = 24.00000, Total charge =  0.00000
