  ==> Input File <==

--------------------------------------------------------------------------
set {
	reference rhf
	basis 6-31G*
}

set_num_threads( 4 )
memory 2 gb

molecule MOL {
0 1

O	 -2.821601	 1.309235	 -0.001213
C	 -2.668563	 0.129746	 -0.000350
C	 -3.801572	 -0.864014	 -0.000442
O	 -1.481751	 -0.454642	 0.000584
H	 -4.417280	 -0.689587	 -0.874708
H	 -3.443784	 -1.883046	 -0.000565
H	 -4.417179	 -0.689832	 0.873954
C	 -0.334255	 0.388708	 0.000906
C	 0.891947	 -0.504646	 0.000751
H	 -0.365390	 1.025305	 -0.873475
H	 -0.365484	 1.024911	 0.875569
C	 1.480229	 -0.675417	 1.402619
H	 1.636562	 -0.078764	 -0.666041
H	 0.620592	 -1.473363	 -0.409633
C	 2.718816	 -1.573068	 1.423836
H	 1.738613	 0.300443	 1.810076
H	 0.724559	 -1.092676	 2.065898
C	 3.307141	 -1.742515	 2.823846
H	 3.475119	 -1.157371	 0.761810
H	 2.461846	 -2.549413	 1.019131
H	 3.605448	 -0.785536	 3.242437
H	 4.183193	 -2.383189	 2.806417
H	 2.584704	 -2.188338	 3.501590

	symmetry c1
}
set optking {
	frozen_dihedral = ("
		13 9 8 10
	")
}

ee = optimize('scf')
oeprop('DIPOLE', 'QUADRUPOLE', 'MULLIKEN_CHARGES')
f=open( 'psi4out.xyz', 'w' )
f.write( "23  " )
f.write( str(ee) + "\n" )
f.write( MOL.save_string_xyz() )
f.close()
--------------------------------------------------------------------------

    Molecular point group: c1
  Charge       = 0
  Multiplicity = 1
  Basis Set: 6-31G*
  Basis Set:
  @DF-RHF Final Energy:  -422.97528552119735
    Total Energy =                       -422.9752855211968381
    Molecular point group: c1
  Basis Set: 6-31G*
  Basis Set:
  Basis Set: 6-31G*
  Basis Set:
  @DF-RHF Final Energy:  -422.97572236213102
    Total Energy =                       -422.9757223621312505
  Basis Set: 6-31G*
  Basis Set:
  Basis Set: 6-31G*
  Basis Set:
  @DF-RHF Final Energy:  -422.97581032462995
    Total Energy =                       -422.9758103246301744
  Basis Set: 6-31G*
  Basis Set:
  Basis Set: 6-31G*
  Basis Set:
  @DF-RHF Final Energy:  -422.97560461935325
    Total Energy =                       -422.9756046193532484
  Basis Set: 6-31G*
  Basis Set:
  Basis Set: 6-31G*
  Basis Set:
  @DF-RHF Final Energy:  -422.97584943540659
    Total Energy =                       -422.9758494354061895
  Basis Set: 6-31G*
  Basis Set:
  Charge       = 0
  Multiplicity = 1
  Basis Set: 6-31G*
  Basis Set:

    Orbital Energies (a.u.)
    -----------------------

    Doubly Occupied:

       1A    -20.603860     2A    -20.540983     3A    -11.374409
       4A    -11.281624     5A    -11.232804     6A    -11.224277
       7A    -11.221037     8A    -11.219989     9A    -11.212075
      10A     -1.468388    11A     -1.361182    12A     -1.091697
      13A     -1.041224    14A     -1.002711    15A     -0.930878
      16A     -0.842887    17A     -0.799675    18A     -0.781669
      19A     -0.688186    20A     -0.680449    21A     -0.667150
      22A     -0.643912    23A     -0.607931    24A     -0.583118
      25A     -0.577920    26A     -0.573940    27A     -0.558833
      28A     -0.534547    29A     -0.527849    30A     -0.502929
      31A     -0.498348    32A     -0.474175    33A     -0.470414
      34A     -0.463488    35A     -0.444768    36A     -0.436463

  @DF-RHF Final Energy:  -422.97584967673583

   => Energetics <=

    Nuclear Repulsion Energy =            454.4834456019667641
    One-Electron Energy =               -1476.5870147815035125
    Two-Electron Energy =                 599.1277195028012557
    DFT Exchange-Correlation Energy =       0.0000000000000000
    Empirical Dispersion Energy =           0.0000000000000000
    PCM Polarization Energy =               0.0000000000000000
    EFP Energy =                            0.0000000000000000
    Total Energy =                       -422.9758496767354927
    Molecular point group: c1
  Basis Set: 6-31G*
  Basis Set:

  -Total Gradient:
     Atom            X                  Y                   Z
    ------   -----------------  -----------------  -----------------
       1       -0.000017882475     0.000021264975    -0.000023687876
       2        0.000042474864    -0.000033520014     0.000035623351
       3       -0.000009123391     0.000005961782    -0.000006439813
       4       -0.000051221397    -0.000005690168    -0.000052871793
       5       -0.000000217550     0.000001290459     0.000000256894
       6        0.000001450246    -0.000001297059    -0.000000209925
       7        0.000001723757    -0.000000156852     0.000001231859
       8       -0.003153471634    -0.004903146394    -0.003620952425
       9        0.002562607512     0.004034299644     0.004884165695
      10        0.002245022713     0.003393280793     0.002285231732
      11       -0.000017618361    -0.000009172842    -0.000002036735
      12       -0.000013862311     0.000050816776    -0.000013107138
      13       -0.001609632676    -0.002502290680    -0.003471897409
      14        0.000018651295    -0.000027699785    -0.000000384286
      15       -0.000029158815    -0.000028043644    -0.000015547527
      16        0.000014452325    -0.000004946500    -0.000008503504
      17        0.000006314446     0.000022719716    -0.000004948490
      18        0.000012501722    -0.000003889442     0.000003446866
      19       -0.000007993375    -0.000003219625     0.000012054951
      20        0.000002828166    -0.000003669355    -0.000004814882
      21       -0.000007724036     0.000000004185     0.000000373115
      22        0.000006981276     0.000002880017     0.000006489827
      23        0.000002897709    -0.000005775987    -0.000003472485

  **** Optimization is complete! (in 6 steps) ****
    Final optimized geometry and variables:
    Molecular point group: c1

    Geometry (in Angstrom), charge = 0, multiplicity = 1:

    O           -2.517378822367     1.732780697052    -0.649267005423
    C           -2.344943256428     0.556237703622    -0.624990273875
    C           -3.461508286732    -0.454974429013    -0.579251070466
    O           -1.149075424104    -0.009603193736    -0.636683390342
    H           -4.097423481306    -0.310427544385    -1.444436488073
    H           -3.087534405750    -1.468080598673    -0.563636169121
    H           -4.062069395988    -0.270358766849     0.303424909585
    C           -0.015755405811     0.851741114577    -0.676068582571
    C            1.243853826260    -0.009311055214    -0.635365432519
    H           -0.057826239937     1.473692047047    -1.559508960775
    H           -0.064318807059     1.521220860276     0.173100126558
    C            1.807501744266    -0.214600659122     0.770438813722
    H            1.991666715546     0.422481306667    -1.295360777082
    H            0.998832374236    -0.972557292004    -1.073742341703
    C            3.022847475502    -1.141946053353     0.800464786538
    H            2.080135624039     0.750138677127     1.194727955003
    H            1.025825633529    -0.621098121360     1.409173504032
    C            3.587710107611    -1.338948738186     2.206691769714
    H            3.798936922137    -0.739277096302     0.152842906159
    H            2.747957891746    -2.108049144646     0.382917788769
    H            3.903240511567    -0.393509397828     2.638710018786
    H            4.448109972851    -2.000672440829     2.195358159845
    H            2.845032281465    -1.773172253823     2.869929961946

  Mulliken Charges: (a.u.)
   Center  Symbol    Alpha    Beta     Spin     Total
       1     O     4.28382  4.28382  0.00000 -0.56763
       2     C     2.61495  2.61495  0.00000  0.77010
       3     C     3.28761  3.28761  0.00000 -0.57521
       4     O     4.31006  4.31006  0.00000 -0.62012
       5     H     0.39733  0.39733  0.00000  0.20533
       6     H     0.40016  0.40016  0.00000  0.19969
       7     H     0.39745  0.39745  0.00000  0.20509
       8     C     3.00534  3.00534  0.00000 -0.01068
       9     C     3.16899  3.16899  0.00000 -0.33798
      10     H     0.40794  0.40794  0.00000  0.18413
      11     H     0.40901  0.40901  0.00000  0.18198
      12     C     3.15548  3.15548  0.00000 -0.31097
      13     H     0.41667  0.41667  0.00000  0.16666
      14     H     0.40859  0.40859  0.00000  0.18282
      15     C     3.15286  3.15286  0.00000 -0.30573
      16     H     0.42211  0.42211  0.00000  0.15579
      17     H     0.41778  0.41778  0.00000  0.16445
      18     C     3.23960  3.23960  0.00000 -0.47920
      19     H     0.42245  0.42245  0.00000  0.15511
      20     H     0.42140  0.42140  0.00000  0.15720
      21     H     0.42110  0.42110  0.00000  0.15779
      22     H     0.41840  0.41840  0.00000  0.16321
      23     H     0.42091  0.42091  0.00000  0.15818

   Total alpha = 36.00000, Total beta = 36.00000, Total charge = -0.00000
