  ==> Input File <==

--------------------------------------------------------------------------
set {
	reference rhf
	basis 6-31G*
}

set_num_threads( 4 )
memory 2 gb

molecule MOL {
0 1

H	 -2.698709	 -0.000305	 0.034435
C	 -1.693833	 0.000034	 0.434417
O	 -0.828952	 -0.000968	 -0.659236
H	 -1.574200	 0.882896	 1.055746
H	 -1.574147	 -0.881698	 1.057355
C	 0.559449	 -0.000018	 -0.420814
C	 1.031262	 1.269950	 0.284517
C	 1.032656	 -1.267621	 0.287859
H	 0.980758	 -0.001103	 -1.419077
H	 0.635654	 2.147255	 -0.215861
H	 2.115097	 1.325443	 0.263120
H	 0.723756	 1.300610	 1.325029
H	 0.637440	 -2.146634	 -0.209732
H	 2.116621	 -1.322405	 0.265837
H	 0.725981	 -1.295540	 1.328537

	symmetry c1
}
set optking {
	frozen_dihedral = ("
		9 6 3 2
	")
}

ee = optimize('scf')
oeprop('DIPOLE', 'QUADRUPOLE', 'MULLIKEN_CHARGES')
f=open( 'psi4out.xyz', 'w' )
f.write( "15  " )
f.write( str(ee) + "\n" )
f.write( MOL.save_string_xyz() )
f.close()
--------------------------------------------------------------------------

    Molecular point group: c1
  Charge       = 0
  Multiplicity = 1
  Basis Set: 6-31G*
  Basis Set:
  @DF-RHF Final Energy:  -232.13777400835554
    Total Energy =                       -232.1377740083556205
    Molecular point group: c1
  Basis Set: 6-31G*
  Basis Set:
  Charge       = 0
  Multiplicity = 1
  Basis Set: 6-31G*
  Basis Set:

    Orbital Energies (a.u.)
    -----------------------

    Doubly Occupied:

       1A    -20.548481     2A    -11.274309     3A    -11.260997
       4A    -11.210549     5A    -11.210529     6A     -1.370505
       7A     -1.050504     8A     -0.939555     9A     -0.931328
      10A     -0.781259    11A     -0.674148    12A     -0.640298
      13A     -0.633563    14A     -0.572861    15A     -0.565650
      16A     -0.552706    17A     -0.533862    18A     -0.497193
      19A     -0.496860    20A     -0.443098    21A     -0.406758

  @DF-RHF Final Energy:  -232.13777380233000

   => Energetics <=

    Nuclear Repulsion Energy =            198.7652207766922174
    One-Electron Energy =                -708.6159660170251300
    Two-Electron Energy =                 277.7129714380030236
    DFT Exchange-Correlation Energy =       0.0000000000000000
    Empirical Dispersion Energy =           0.0000000000000000
    PCM Polarization Energy =               0.0000000000000000
    EFP Energy =                            0.0000000000000000
    Total Energy =                       -232.1377738023298889
    Molecular point group: c1
  Basis Set: 6-31G*
  Basis Set:

  -Total Gradient:
     Atom            X                  Y                   Z
    ------   -----------------  -----------------  -----------------
       1       -0.000001787430     0.000000105985    -0.000001020847
       2        0.000026330625     0.000011823235    -0.000018082635
       3       -0.000038523935    -0.000007627529    -0.000003625512
       4        0.000006669192     0.000006000289     0.000006873194
       5        0.000019741402    -0.000016733114     0.000007637611
       6       -0.000030524741    -0.000001356298     0.000006877225
       7        0.000021292977     0.000005879572    -0.000007435048
       8        0.000003354846    -0.000005783047     0.000007650734
       9       -0.000022656174     0.000007547122    -0.000000686069
      10        0.000015368315    -0.000004900644    -0.000012379225
      11        0.000011127039     0.000003440183     0.000015763440
      12       -0.000013531060     0.000002651772    -0.000003790736
      13        0.000022487091     0.000003214002    -0.000022150041
      14        0.000006993937     0.000002489864     0.000012584535
      15       -0.000026342082    -0.000006751393     0.000011783377

  **** Optimization is complete! (in 2 steps) ****
    Final optimized geometry and variables:
    Molecular point group: c1

    Geometry (in Angstrom), charge = 0, multiplicity = 1:

    H           -2.698768194801    -0.001268818075     0.036209523521
    C           -1.693586867088    -0.000190597339     0.435535890398
    O           -0.829485665363    -0.001222524385    -0.658745069208
    H           -1.573935620117     0.883035476890     1.056355637860
    H           -1.572959248446    -0.881638115271     1.058704153911
    C            0.559036166825    -0.000300391760    -0.421068297215
    C            1.031766702740     1.269686521616     0.283793305983
    C            1.032739019975    -1.268023235995     0.287188141229
    H            0.979715128558    -0.001404460810    -1.419550705676
    H            0.639259560980     2.147090754809    -0.218729774890
    H            2.115878679118     1.322952606392     0.265024025508
    H            0.721846049948     1.302360995282     1.323438686205
    H            0.642096349576    -2.147114212703    -0.213848181343
    H            2.116944443010    -1.319761323607     0.269761305785
    H            0.721647168544    -1.298808887607     1.326556189958

  Mulliken Charges: (a.u.)
   Center  Symbol    Alpha    Beta     Spin     Total
       1     H     0.41258  0.41258  0.00000  0.17484
       2     C     3.08202  3.08202  0.00000 -0.16404
       3     O     4.31177  4.31177  0.00000 -0.62354
       4     H     0.42929  0.42929  0.00000  0.14141
       5     H     0.42930  0.42930  0.00000  0.14141
       6     C     2.90868  2.90868  0.00000  0.18264
       7     C     3.25346  3.25346  0.00000 -0.50691
       8     C     3.25344  3.25344  0.00000 -0.50687
       9     H     0.41513  0.41513  0.00000  0.16974
      10     H     0.41145  0.41145  0.00000  0.17711
      11     H     0.41934  0.41934  0.00000  0.16132
      12     H     0.42138  0.42138  0.00000  0.15724
      13     H     0.41145  0.41145  0.00000  0.17709
      14     H     0.41935  0.41935  0.00000  0.16131
      15     H     0.42137  0.42137  0.00000  0.15725

   Total alpha = 21.00000, Total beta = 21.00000, Total charge =  0.00000
