  ==> Input File <==

--------------------------------------------------------------------------
set {
	reference rhf
	basis 6-31G*
}

set_num_threads( 4 )
memory 2 gb

molecule MOL {
0 1

O	 -1.777448	 -1.982990	 -1.147590
C	 -0.789221	 -1.599750	 -0.608816
C	 0.509782	 -2.364855	 -0.522381
O	 -0.698257	 -0.426125	 0.001050
C	 0.450433	 -3.722616	 -1.210805
H	 0.758111	 -2.465764	 0.529948
H	 1.285609	 -1.737687	 -0.951353
H	 -0.313469	 -4.350677	 -0.768812
H	 1.405004	 -4.229938	 -1.120063
H	 0.219104	 -3.616027	 -2.263635
C	 -1.853104	 0.406779	 0.000512
C	 -3.066105	 -0.499277	 -0.000959
H	 -1.828410	 1.043074	 -0.873618
H	 -1.829857	 1.042383	 0.875188
H	 -3.071820	 -1.133106	 -0.880383
H	 -3.972708	 0.097145	 -0.001528
H	 -3.073405	 -1.133813	 0.877999

	symmetry c1
}
set optking {
	frozen_dihedral = ("
		2 4 11 13
	")
}

ee = optimize('scf')
oeprop('DIPOLE', 'QUADRUPOLE', 'MULLIKEN_CHARGES')
f=open( 'psi4out.xyz', 'w' )
f.write( "17  " )
f.write( str(ee) + "\n" )
f.write( MOL.save_string_xyz() )
f.close()
--------------------------------------------------------------------------

    Molecular point group: c1
  Charge       = 0
  Multiplicity = 1
  Basis Set: 6-31G*
  Basis Set:
  @DF-RHF Final Energy:  -344.85788154269085
    Total Energy =                       -344.8578815426913025
    Molecular point group: c1
  Basis Set: 6-31G*
  Basis Set:
  Basis Set: 6-31G*
  Basis Set:
  @DF-RHF Final Energy:  -344.89272048535423
    Total Energy =                       -344.8927204853545163
  Basis Set: 6-31G*
  Basis Set:
  Basis Set: 6-31G*
  Basis Set:
  @DF-RHF Final Energy:  -344.90045117175850
    Total Energy =                       -344.9004511717582204
  Basis Set: 6-31G*
  Basis Set:
  Basis Set: 6-31G*
  Basis Set:
  @DF-RHF Final Energy:  -344.90063727570538
    Total Energy =                       -344.9006372757053214
  Basis Set: 6-31G*
  Basis Set:
  @DF-RHF Final Energy:  -344.90275682039709
    Total Energy =                       -344.9027568203974852
  @DF-RHF Final Energy:  -344.90373414100083
    Total Energy =                       -344.9037341410004274
  Basis Set: 6-31G*
  Basis Set:
  @DF-RHF Final Energy:  -344.90399643893767
    Total Energy =                       -344.9039964389375541
  Basis Set: 6-31G*
  Basis Set:
  Basis Set: 6-31G*
  Basis Set:
  @DF-RHF Final Energy:  -344.90401976918452
    Total Energy =                       -344.9040197691846288
  Basis Set: 6-31G*
  Basis Set:
  Basis Set: 6-31G*
  Basis Set:
  @DF-RHF Final Energy:  -344.90402470218737
    Total Energy =                       -344.9040247021871437
  Basis Set: 6-31G*
  Basis Set:
  Charge       = 0
  Multiplicity = 1
  Basis Set: 6-31G*
  Basis Set:

    Orbital Energies (a.u.)
    -----------------------

    Doubly Occupied:

       1A    -20.598877     2A    -20.542433     3A    -11.372194
       4A    -11.289604     5A    -11.235813     6A    -11.216637
       7A    -11.214544     8A     -1.462592     9A     -1.361763
      10A     -1.067862    11A     -1.028101    12A     -0.919073
      13A     -0.857967    14A     -0.745333    15A     -0.697180
      16A     -0.679594    17A     -0.664476    18A     -0.627337
      19A     -0.606814    20A     -0.566111    21A     -0.546268
      22A     -0.529789    23A     -0.520994    24A     -0.516951
      25A     -0.494139    26A     -0.490852    27A     -0.447918
      28A     -0.429101

  @DF-RHF Final Energy:  -344.90402534033058

   => Energetics <=

    Nuclear Repulsion Energy =            319.1321526357089624
    One-Electron Energy =               -1102.6117177790347341
    Two-Electron Energy =                 438.5755398029950811
    DFT Exchange-Correlation Energy =       0.0000000000000000
    Empirical Dispersion Energy =           0.0000000000000000
    PCM Polarization Energy =               0.0000000000000000
    EFP Energy =                            0.0000000000000000
    Total Energy =                       -344.9040253403306906
    Molecular point group: c1
  Basis Set: 6-31G*
  Basis Set:

  -Total Gradient:
     Atom            X                  Y                   Z
    ------   -----------------  -----------------  -----------------
       1        0.000007714161    -0.000014700370    -0.000027233785
       2       -0.001452473582    -0.002486557593     0.004936452533
       3       -0.000028208036    -0.000039855279     0.000064430582
       4        0.002953325478     0.004841225762    -0.006780082753
       5        0.000022521210     0.000003873541    -0.000016370499
       6        0.000031494257     0.000006591371    -0.000006342812
       7       -0.000010119794     0.000003031304    -0.000021564774
       8        0.000000846344    -0.000003100004     0.000001999376
       9        0.000002116593    -0.000011262547     0.000000183739
      10       -0.000004329426     0.000001556648     0.000012445895
      11       -0.004840416067    -0.006525733146    -0.001302551483
      12       -0.000004802121    -0.000011332504     0.000071072811
      13        0.003351053112     0.004236428373     0.003105597459
      14        0.000006091483    -0.000024251845    -0.000014383100
      15       -0.000005814353    -0.000004285133    -0.000028253802
      16       -0.000013061160     0.000024404877     0.000010511851
      17       -0.000015938100     0.000003966542    -0.000005911236

  **** Optimization is complete! (in 10 steps) ****
    Final optimized geometry and variables:
    Molecular point group: c1

    Geometry (in Angstrom), charge = 0, multiplicity = 1:

    O           -0.604579744352    -0.606750317958    -0.868668757760
    C            0.279880931297    -0.191431699569    -0.191764306132
    C            1.570087202812    -0.928470257124     0.086050793839
    O            0.283562495310     0.992241200200     0.402902021242
    C            1.660489291509    -2.268618664049    -0.632713495580
    H            1.647510386727    -1.052149843234     1.162323145975
    H            2.387590813762    -0.272159933094    -0.196007638863
    H            0.852098545362    -2.925656319464    -0.336043307932
    H            2.601024742307    -2.755948577191    -0.398425031969
    H            1.601291239704    -2.139740216449    -1.706681961469
    C           -0.870990546055     1.830186657438     0.480073742462
    C           -2.206472507615     1.147202986776     0.722817302257
    H           -0.878378414668     2.473368290993    -0.391210073647
    H           -0.643114408741     2.466983554469     1.324111092271
    H           -2.564142354868     0.609955850179    -0.140240068980
    H           -2.928095049275     1.915115302146     0.986459659897
    H           -2.136598609333     0.457477950687     1.557476575390

  Mulliken Charges: (a.u.)
   Center  Symbol    Alpha    Beta     Spin     Total
       1     O     4.28644  4.28644  0.00000 -0.57288
       2     C     2.60337  2.60337  0.00000  0.79326
       3     C     3.20451  3.20451  0.00000 -0.40902
       4     O     4.32012  4.32012  0.00000 -0.64024
       5     C     3.23863  3.23863  0.00000 -0.47727
       6     H     0.40213  0.40213  0.00000  0.19573
       7     H     0.40050  0.40050  0.00000  0.19901
       8     H     0.41022  0.41022  0.00000  0.17955
       9     H     0.41864  0.41864  0.00000  0.16273
      10     H     0.41049  0.41049  0.00000  0.17902
      11     C     2.99436  2.99436  0.00000  0.01129
      12     C     3.26128  3.26128  0.00000 -0.52256
      13     H     0.41326  0.41326  0.00000  0.17349
      14     H     0.41093  0.41093  0.00000  0.17815
      15     H     0.39041  0.39041  0.00000  0.21917
      16     H     0.41895  0.41895  0.00000  0.16209
      17     H     0.41576  0.41576  0.00000  0.16847

   Total alpha = 28.00000, Total beta = 28.00000, Total charge =  0.00000
