  ==> Input File <==

--------------------------------------------------------------------------
set {
	reference rhf
	basis 6-31G*
}

set_num_threads( 4 )
memory 2 gb

molecule MOL {
0 1

O	 0.749854	 1.307668	 -0.000040
C	 0.576249	 0.131685	 -0.000108
C	 -0.766779	 -0.556801	 -0.000461
O	 1.568443	 -0.749345	 -0.000005
C	 -1.945214	 0.412366	 0.000161
H	 -0.796911	 -1.211249	 -0.867467
H	 -0.796854	 -1.212390	 0.865687
C	 -3.005486	 0.026869	 -1.030268
H	 -1.583726	 1.415640	 -0.198256
H	 -2.385241	 0.440197	 0.991209
H	 -2.596176	 0.022552	 -2.036697
H	 -3.833589	 0.727861	 -1.014261
H	 -3.407370	 -0.963186	 -0.833404
C	 2.886820	 -0.232538	 0.000322
H	 3.059106	 0.369571	 -0.880203
H	 3.540187	 -1.091012	 0.000050
H	 3.059019	 0.368956	 0.881266

	symmetry c1
}
set optking {
	frozen_dihedral = ("
		9 5 3 6
	")
}

ee = optimize('scf')
oeprop('DIPOLE', 'QUADRUPOLE', 'MULLIKEN_CHARGES')
f=open( 'psi4out.xyz', 'w' )
f.write( "17  " )
f.write( str(ee) + "\n" )
f.write( MOL.save_string_xyz() )
f.close()
--------------------------------------------------------------------------

    Molecular point group: c1
  Charge       = 0
  Multiplicity = 1
  Basis Set: 6-31G*
  Basis Set:
  @DF-RHF Final Energy:  -344.90223090573693
    Total Energy =                       -344.9022309057367579
    Molecular point group: c1
  Basis Set: 6-31G*
  Basis Set:
  Basis Set: 6-31G*
  Basis Set:
  @DF-RHF Final Energy:  -344.90252106646403
    Total Energy =                       -344.9025210664643737
  Basis Set: 6-31G*
  Basis Set:
  Basis Set: 6-31G*
  Basis Set:
  @DF-RHF Final Energy:  -344.90251430815101
    Total Energy =                       -344.9025143081508418
  Basis Set: 6-31G*
  Basis Set:
  Basis Set: 6-31G*
  Basis Set:
  @DF-RHF Final Energy:  -344.90260764863308
    Total Energy =                       -344.9026076486328520
  Basis Set: 6-31G*
  Basis Set:
  Basis Set: 6-31G*
  Basis Set:
  @DF-RHF Final Energy:  -344.90262308507300
    Total Energy =                       -344.9026230850731167
  Basis Set: 6-31G*
  Basis Set:
  Basis Set: 6-31G*
  Basis Set:
  @DF-RHF Final Energy:  -344.90262499722695
    Total Energy =                       -344.9026249972269511
  Basis Set: 6-31G*
  Basis Set:
  Charge       = 0
  Multiplicity = 1
  Basis Set: 6-31G*
  Basis Set:

    Orbital Energies (a.u.)
    -----------------------

    Doubly Occupied:

       1A    -20.604275     2A    -20.546597     3A    -11.373667
       4A    -11.281302     5A    -11.235784     6A    -11.220226
       7A    -11.213908     8A     -1.470303     9A     -1.363670
      10A     -1.077565    11A     -1.001688    12A     -0.939268
      13A     -0.828402    14A     -0.767141    15A     -0.702221
      16A     -0.682101    17A     -0.672889    18A     -0.629460
      19A     -0.599896    20A     -0.572227    21A     -0.569926
      22A     -0.530461    23A     -0.524093    24A     -0.491741
      25A     -0.486562    26A     -0.473349    27A     -0.457658
      28A     -0.440174

  @DF-RHF Final Energy:  -344.90262503592857

   => Energetics <=

    Nuclear Repulsion Energy =            312.7101541696687832
    One-Electron Energy =               -1089.7124496746887417
    Two-Electron Energy =                 432.0996704690910519
    DFT Exchange-Correlation Energy =       0.0000000000000000
    Empirical Dispersion Energy =           0.0000000000000000
    PCM Polarization Energy =               0.0000000000000000
    EFP Energy =                            0.0000000000000000
    Total Energy =                       -344.9026250359288497
    Molecular point group: c1
  Basis Set: 6-31G*
  Basis Set:

  -Total Gradient:
     Atom            X                  Y                   Z
    ------   -----------------  -----------------  -----------------
       1        0.000012092542     0.000010614967     0.000023300754
       2        0.000019160192    -0.000016443199    -0.000039327194
       3        0.001784818314     0.002236396371    -0.001111345995
       4       -0.000005119969     0.000002617082     0.000009705629
       5       -0.000759129709    -0.000889718043    -0.002686420449
       6       -0.001336398089    -0.001707342674     0.001333432382
       7        0.000001348429     0.000001459111    -0.000001123657
       8       -0.000012762589     0.000002603565     0.000002748568
       9        0.000306927782     0.000364586517     0.002473852013
      10       -0.000005325749     0.000002007120     0.000000095754
      11        0.000006772125    -0.000009386205     0.000000397391
      12        0.000001275373     0.000001827077    -0.000009393254
      13       -0.000012340439     0.000000953690     0.000004260657
      14       -0.000000625408     0.000000046041    -0.000003946092
      15       -0.000000450812    -0.000000516496     0.000001888860
      16        0.000001249165    -0.000000028436     0.000001206251
      17       -0.000001491161     0.000000323509     0.000000668381

  **** Optimization is complete! (in 7 steps) ****
    Final optimized geometry and variables:
    Molecular point group: c1

    Geometry (in Angstrom), charge = 0, multiplicity = 1:

    O            0.738942239609     1.265528904972     0.144826291777
    C            0.547545616657     0.092407039651     0.144034539615
    C           -0.799946965872    -0.590254895030     0.124826791355
    O            1.528357200006    -0.801195650032     0.160697626760
    C           -2.004185964249     0.364307674174     0.133598241925
    H           -0.817534602119    -1.246887965409    -0.740436228070
    H           -0.820833297053    -1.261596173732     0.978008663037
    C           -3.091449357484    -0.037770947283    -0.861753902456
    H           -1.662757324228     1.371911498601    -0.065219945633
    H           -2.428193446982     0.390568211462     1.133010106981
    H           -2.714486767355    -0.021586104699    -1.880423360253
    H           -3.935157604753     0.642736097739    -0.810061491757
    H           -3.462189944398    -1.039342285783    -0.661633462050
    C            2.853287710123    -0.301676384788     0.177994444750
    H            3.045992282259     0.295112841209    -0.701868580112
    H            3.495154651010    -1.168741558219     0.189665212672
    H            3.020867093626     0.300301014696     1.059462321938

  Mulliken Charges: (a.u.)
   Center  Symbol    Alpha    Beta     Spin     Total
       1     O     4.28471  4.28471  0.00000 -0.56943
       2     C     2.61251  2.61251  0.00000  0.77498
       3     C     3.20924  3.20924  0.00000 -0.41847
       4     O     4.30502  4.30502  0.00000 -0.61004
       5     C     3.16038  3.16038  0.00000 -0.32076
       6     H     0.39830  0.39830  0.00000  0.20340
       7     H     0.39792  0.39792  0.00000  0.20415
       8     C     3.24292  3.24292  0.00000 -0.48584
       9     H     0.39465  0.39465  0.00000  0.21071
      10     H     0.41767  0.41767  0.00000  0.16466
      11     H     0.41982  0.41982  0.00000  0.16035
      12     H     0.41653  0.41653  0.00000  0.16694
      13     H     0.42189  0.42189  0.00000  0.15622
      14     C     3.09211  3.09211  0.00000 -0.18422
      15     H     0.40901  0.40901  0.00000  0.18198
      16     H     0.40839  0.40839  0.00000  0.18322
      17     H     0.40892  0.40892  0.00000  0.18215

   Total alpha = 28.00000, Total beta = 28.00000, Total charge = -0.00000
