  ==> Input File <==

--------------------------------------------------------------------------
set {
	reference rhf
	basis cc-pvtz
}

set_num_threads( 4 )
memory 2 gb

molecule MOL {
0 1

H	 -1.427489	 -0.396655	 -1.058127
N	 -1.173824	 -0.310545	 -0.096857
C	 -0.022588	 0.563366	 0.065815
H	 -1.968380	 0.053706	 0.386478
C	 1.270420	 -0.230572	 -0.014245
H	 -0.045354	 1.293678	 -0.735129
H	 -0.043155	 1.123061	 1.001180
H	 1.336273	 -0.754933	 -0.959364
H	 2.130728	 0.422015	 0.082222
H	 1.323344	 -0.967006	 0.781773

	symmetry c1
}
set optking {
	frozen_dihedral = ("
		1 2 3 6
	")
}

ee = optimize('scf')
oeprop('DIPOLE', 'QUADRUPOLE', 'MULLIKEN_CHARGES')
f=open( 'psi4out.xyz', 'w' )
f.write( "10  " )
f.write( str(ee) + "\n" )
f.write( MOL.save_string_xyz() )
f.close()
--------------------------------------------------------------------------

    Molecular point group: c1
  Charge       = 0
  Multiplicity = 1
  Basis Set: CC-PVTZ
  Basis Set:
  @DF-RHF Final Energy:  -134.30167518442073
    Total Energy =                       -134.3016751844207306
    Molecular point group: c1
  Basis Set: CC-PVTZ
  Basis Set:
  Basis Set: CC-PVTZ
  Basis Set:
  @DF-RHF Final Energy:  -134.30296085427074
    Total Energy =                       -134.3029608542707365
  Basis Set: CC-PVTZ
  Basis Set:
  Basis Set: CC-PVTZ
  Basis Set:
  @DF-RHF Final Energy:  -134.30318059918977
    Total Energy =                       -134.3031805991898295
  Basis Set: CC-PVTZ
  Basis Set:
  Basis Set: CC-PVTZ
  Basis Set:
  @DF-RHF Final Energy:  -134.30318352731965
    Total Energy =                       -134.3031835273196180
  Basis Set: CC-PVTZ
  Basis Set:
  Charge       = 0
  Multiplicity = 1
  Basis Set: CC-PVTZ
  Basis Set:

    Orbital Energies (a.u.)
    -----------------------

    Doubly Occupied:

       1A    -15.527334     2A    -11.241632     3A    -11.200658
       4A     -1.176881     5A     -0.987622     6A     -0.821411
       7A     -0.669992     8A     -0.627137     9A     -0.574096
      10A     -0.520196    11A     -0.511606    12A     -0.481226
      13A     -0.385888

  @DF-RHF Final Energy:  -134.30318383514486

   => Energetics <=

    Nuclear Repulsion Energy =             83.2455282972789661
    One-Electron Energy =                -345.6460683693049418
    Two-Electron Energy =                 128.0973562368811542
    DFT Exchange-Correlation Energy =       0.0000000000000000
    Empirical Dispersion Energy =           0.0000000000000000
    PCM Polarization Energy =               0.0000000000000000
    EFP Energy =                            0.0000000000000000
    Total Energy =                       -134.3031838351448357
    Molecular point group: c1
  Basis Set: CC-PVTZ
  Basis Set:

  -Total Gradient:
     Atom            X                  Y                   Z
    ------   -----------------  -----------------  -----------------
       1       -0.001719049286     0.002230286421     0.000302704168
       2        0.002537521548    -0.003189389118    -0.000813009907
       3       -0.002205721758     0.002540284228     0.002033861088
       4       -0.000016318092    -0.000014013778     0.000005270209
       5        0.000001749567     0.000036259815     0.000008794233
       6        0.001395486122    -0.001620342360    -0.001536192201
       7        0.000013039955     0.000008753365     0.000007432820
       8       -0.000005472482     0.000003340574    -0.000001574333
       9        0.000007672141    -0.000001785770    -0.000002178680
      10       -0.000008907716     0.000006606622    -0.000005107399

  **** Optimization is complete! (in 5 steps) ****
    Final optimized geometry and variables:
    Molecular point group: c1

    Geometry (in Angstrom), charge = 0, multiplicity = 1:

    H           -1.454467962022    -0.416706481067    -1.008301464607
    N           -1.175802590842    -0.324500950319    -0.054450032510
    C           -0.018337442555     0.555762398942     0.071716595665
    H           -1.962055731307     0.052848029267     0.429752260298
    C            1.279352853218    -0.236564285921     0.014680583378
    H            0.005911372723     1.316308067111    -0.706522594182
    H           -0.081533896635     1.072979556640     1.021548576254
    H            1.363636605676    -0.767088210603    -0.927897416493
    H            2.139123059850     0.418986833761     0.107938627437
    H            1.311705133023    -0.969235176873     0.811313425481

  Mulliken Charges: (a.u.)
   Center  Symbol    Alpha    Beta     Spin     Total
       1     H     0.43043  0.43043  0.00000  0.13913
       2     N     3.69048  3.69048  0.00000 -0.38097
       3     C     3.02975  3.02975  0.00000 -0.05951
       4     H     0.42767  0.42767  0.00000  0.14466
       5     C     3.12743  3.12743  0.00000 -0.25485
       6     H     0.46506  0.46506  0.00000  0.06987
       7     H     0.45710  0.45710  0.00000  0.08581
       8     H     0.45925  0.45925  0.00000  0.08150
       9     H     0.45980  0.45980  0.00000  0.08039
      10     H     0.45302  0.45302  0.00000  0.09396

   Total alpha = 13.00000, Total beta = 13.00000, Total charge = -0.00000
