                              Psi4 1.0.54 Driver

  ==> Input File <==

--------------------------------------------------------------------------
set {
	reference rhf
	basis cc-pvtz
}

set_num_threads( 4 )
memory 2 gb

molecule MOL {
0 1

H	 3.273419	 0.176595	 -0.102789
N	 2.433987	 -0.362316	 -0.080024
C	 1.263552	 0.494993	 0.021953
H	 2.497638	 -0.973615	 0.707122
C	 -0.016533	 -0.325589	 -0.026925
H	 1.280915	 1.180773	 -0.818522
H	 1.263064	 1.106893	 0.925038
C	 -1.280353	 0.525521	 0.047747
H	 -0.016686	 -0.912532	 -0.939714
H	 -0.014099	 -1.037598	 0.796369
C	 -1.134001	 1.731389	 0.969948
H	 -2.107661	 -0.089909	 0.390926
H	 -1.547879	 0.866338	 -0.948821
H	 -0.899389	 1.422327	 1.982947
H	 -2.048103	 2.312906	 1.004646
H	 -0.337660	 2.386887	 0.633279

	symmetry c1
}
set optking {
	frozen_dihedral = ("
		12 8 5 9
	")
}

ee,wfn = optimize('scf', return_wfn=True)
oeprop( wfn, 'DIPOLE', 'QUADRUPOLE', 'MULLIKEN_CHARGES')
f=open( 'psi4out.xyz', 'w' )
f.write( "16  " )
f.write( str(ee) + "\n" )
f.write( MOL.save_string_xyz() )
f.close()
--------------------------------------------------------------------------

    Molecular point group: c1
  Charge       = 0
  Multiplicity = 1
  Basis Set: CC-PVTZ
  Basis Set:
  @DF-RHF Final Energy:  -212.39308802691392
    Total Energy =                       -212.3930880269136310
    Molecular point group: c1
  Basis Set: CC-PVTZ
  Basis Set:
  Basis Set: CC-PVTZ
  Basis Set:
  @DF-RHF Final Energy:  -212.38962486541706
    Total Energy =                       -212.3896248654168915
  Basis Set: CC-PVTZ
  Basis Set:
  Basis Set: CC-PVTZ
  Basis Set:
  @DF-RHF Final Energy:  -212.39527276313979
    Total Energy =                       -212.3952727631399284
  Basis Set: CC-PVTZ
  Basis Set:
  Basis Set: CC-PVTZ
  Basis Set:
  @DF-RHF Final Energy:  -212.39557424539890
    Total Energy =                       -212.3955742453990752
  Basis Set: CC-PVTZ
  Basis Set:
  Basis Set: CC-PVTZ
  Basis Set:
  @DF-RHF Final Energy:  -212.39559879375710
    Total Energy =                       -212.3955987937572445
  Basis Set: CC-PVTZ
  Basis Set:
  Basis Set: CC-PVTZ
  Basis Set:
  @DF-RHF Final Energy:  -212.39561132671901
    Total Energy =                       -212.3956113267188925
  Basis Set: CC-PVTZ
  Basis Set:
  Basis Set: CC-PVTZ
  Basis Set:
  @DF-RHF Final Energy:  -212.39561255435186
    Total Energy =                       -212.3956125543517146
  Basis Set: CC-PVTZ
  Basis Set:
  Charge       = 0
  Multiplicity = 1
  Basis Set: CC-PVTZ
  Basis Set:

    Orbital Energies (a.u.)
    -----------------------

    Doubly Occupied:

       1A    -15.526059     2A    -11.237099     3A    -11.213730
       4A    -11.208492     5A    -11.206475     6A     -1.177857
       7A     -1.058399     8A     -0.955058     9A     -0.862003
      10A     -0.776319    11A     -0.655802    12A     -0.642219
      13A     -0.622712    14A     -0.571111    15A     -0.553397
      16A     -0.535781    17A     -0.508875    18A     -0.467168
      19A     -0.463542    20A     -0.456468    21A     -0.383315

  @DF-RHF Final Energy:  -212.39561266192212

   => Energetics <=

    Nuclear Repulsion Energy =            189.4155322757598867
    One-Electron Energy =                -661.4585303215790191
    Two-Electron Energy =                 259.6473853838970172
    DFT Exchange-Correlation Energy =       0.0000000000000000
    Empirical Dispersion Energy =           0.0000000000000000
    PCM Polarization Energy =               0.0000000000000000
    EFP Energy =                            0.0000000000000000
    Total Energy =                       -212.3956126619220868
    Molecular point group: c1
  Basis Set: CC-PVTZ
  Basis Set:

  -Total Gradient:
     Atom            X                  Y                   Z
    ------   -----------------  -----------------  -----------------
       1        0.000001758242     0.000001704519    -0.000002605426
       2       -0.000003494672     0.000001591751     0.000000651969
       3        0.000005712260     0.000003643334    -0.000004143135
       4        0.000000427344    -0.000000959783     0.000001399688
       5       -0.002272779728    -0.005143955459     0.004043981812
       6        0.000005428124     0.000000165315    -0.000000998368
       7       -0.000003071912    -0.000000283076    -0.000000595829
       8       -0.000854093480    -0.000364989022    -0.006780073162
       9        0.002038108486     0.004382684553    -0.002376708476
      10       -0.000002503868    -0.000005356412     0.000002363296
      11        0.000001123421     0.000003489373     0.000001006147
      12        0.001087478969     0.001122986086     0.005118372119
      13        0.000000840760     0.000001416203    -0.000003036531
      14       -0.000001598198     0.000001437942    -0.000004712521
      15        0.000001158023    -0.000000213903     0.000002084411
      16       -0.000004493771    -0.000003361422     0.000003014008

  **** Optimization is complete! (in 8 steps) ****
    Final optimized geometry and variables:
    Molecular point group: c1

    Geometry (in Angstrom), charge = 0, multiplicity = 1:

    H            3.005113499492     0.034974229519    -0.548753329214
    N            2.205279209427    -0.561535917457    -0.529075117614
    C            1.001980749107     0.189542509596    -0.201373483645
    H            2.381950813703    -1.265331115334     0.157463944538
    C           -0.211298077946    -0.734950308067    -0.203388971899
    H            0.872581116254     0.953977886882    -0.961297100651
    H            1.079939822000     0.704817333804     0.753582999149
    C           -1.569347168764    -0.031387664018    -0.069254100817
    H           -0.180004869829    -1.262228688315    -1.149966569113
    H           -0.095262232459    -1.470142015835     0.588765623391
    C           -1.622272409715     1.108591670068     0.949483058555
    H           -2.300099203711    -0.768193878885     0.248093409349
    H           -1.884166526046     0.342431881746    -1.037758392613
    H           -1.302576387851     0.775041905137     1.931658900283
    H           -2.635979931885     1.480843754266     1.044381626800
    H           -0.994873439126     1.943979094120     0.663685704029

  Mulliken Charges: (a.u.)
   Center  Symbol    Alpha    Beta     Spin     Total
       1     H     0.43009  0.43009  0.00000  0.13982
       2     N     3.69142  3.69142  0.00000 -0.38284
       3     C     3.02686  3.02686  0.00000 -0.05373
       4     H     0.43097  0.43097  0.00000  0.13805
       5     C     3.09130  3.09130  0.00000 -0.18259
       6     H     0.45628  0.45628  0.00000  0.08744
       7     H     0.46479  0.46479  0.00000  0.07042
       8     C     3.09216  3.09216  0.00000 -0.18432
       9     H     0.44545  0.44545  0.00000  0.10909
      10     H     0.45768  0.45768  0.00000  0.08465
      11     C     3.15817  3.15817  0.00000 -0.31633
      12     H     0.45075  0.45075  0.00000  0.09851
      13     H     0.45103  0.45103  0.00000  0.09794
      14     H     0.45443  0.45443  0.00000  0.09115
      15     H     0.44539  0.44539  0.00000  0.10923
      16     H     0.45324  0.45324  0.00000  0.09352

   Total alpha = 21.00000, Total beta = 21.00000, Total charge =  0.00000

*** Psi4 exiting successfully. Buy a developer a beer!
