  ==> Input File <==

--------------------------------------------------------------------------
set {
	reference rhf
	basis 6-31G*
}

set_num_threads( 4 )
memory 2 gb

molecule MOL {
0 1

H	 -3.958884	 -1.078408	 0.908974
C	 -2.892354	 -0.942773	 0.938998
C	 -2.291340	 -0.440513	 2.083404
C	 -2.123313	 -1.270648	 -0.166447
H	 -2.888924	 -0.186630	 2.940027
C	 -0.919943	 -0.266391	 2.121254
H	 -2.590965	 -1.659860	 -1.052687
C	 -0.750354	 -1.097188	 -0.130833
H	 -0.437815	 0.121020	 2.998258
C	 -0.144973	 -0.594018	 1.014635
H	 -0.151366	 -1.349585	 -0.983962
C	 1.327992	 -0.387652	 1.106529
O	 1.970282	 -0.730723	 0.000018
O	 1.881146	 0.040891	 2.070494
C	 3.377318	 -0.566646	 -0.000065
H	 3.695437	 -0.028981	 -0.881264
H	 3.789299	 -1.563704	 0.000236
H	 3.695516	 -0.028316	 0.880770

	symmetry c1
}
set optking {
	frozen_dihedral = ("
		12 13 15 16
	")
}

ee = optimize('scf')
oeprop('DIPOLE', 'QUADRUPOLE', 'MULLIKEN_CHARGES')
f=open( 'psi4out.xyz', 'w' )
f.write( "18  " )
f.write( str(ee) + "\n" )
f.write( MOL.save_string_xyz() )
f.close()
--------------------------------------------------------------------------

    Molecular point group: c1
  Charge       = 0
  Multiplicity = 1
  Basis Set: 6-31G*
  Basis Set:
  @DF-RHF Final Energy:  -457.34738260709747
    Total Energy =                       -457.3473826070974155
    Molecular point group: c1
  Basis Set: 6-31G*
  Basis Set:
  Basis Set: 6-31G*
  Basis Set:
  @DF-RHF Final Energy:  -457.34792592750040
    Total Energy =                       -457.3479259275005688
  Basis Set: 6-31G*
  Basis Set:
  Basis Set: 6-31G*
  Basis Set:
  @DF-RHF Final Energy:  -457.34820974010978
    Total Energy =                       -457.3482097401099509
  Basis Set: 6-31G*
  Basis Set:
  Basis Set: 6-31G*
  Basis Set:
  @DF-RHF Final Energy:  -457.34847134745269
    Total Energy =                       -457.3484713474529144
  Basis Set: 6-31G*
  Basis Set:
  Basis Set: 6-31G*
  Basis Set:
  @DF-RHF Final Energy:  -457.34856367604544
    Total Energy =                       -457.3485636760456146
  Basis Set: 6-31G*
  Basis Set:
  Charge       = 0
  Multiplicity = 1
  Basis Set: 6-31G*
  Basis Set:

    Orbital Energies (a.u.)
    -----------------------

    Doubly Occupied:

       1A    -20.606670     2A    -20.543627     3A    -11.379427
       4A    -11.281513     5A    -11.245046     6A    -11.244879
       7A    -11.243591     8A    -11.241188     9A    -11.236993
      10A    -11.236232    11A     -1.470073    12A     -1.364401
      13A     -1.164730    14A     -1.047756    15A     -1.024310
      16A     -0.979263    17A     -0.859657    18A     -0.833795
      19A     -0.776938    20A     -0.739835    21A     -0.683797
      22A     -0.675151    23A     -0.671461    24A     -0.631210
      25A     -0.623497    26A     -0.597260    27A     -0.584504
      28A     -0.567788    29A     -0.523637    30A     -0.516192
      31A     -0.503829    32A     -0.498092    33A     -0.455416
      34A     -0.444816    35A     -0.344553    36A     -0.340486

  @DF-RHF Final Energy:  -457.34857607416666

   => Energetics <=

    Nuclear Repulsion Energy =            492.5638413110730198
    One-Electron Energy =               -1599.4616089272176396
    Two-Electron Energy =                 649.5491915419777342
    DFT Exchange-Correlation Energy =       0.0000000000000000
    Empirical Dispersion Energy =           0.0000000000000000
    PCM Polarization Energy =               0.0000000000000000
    EFP Energy =                            0.0000000000000000
    Total Energy =                       -457.3485760741668855
    Molecular point group: c1
  Basis Set: 6-31G*
  Basis Set:

  -Total Gradient:
     Atom            X                  Y                   Z
    ------   -----------------  -----------------  -----------------
       1        0.000003892273    -0.000000429139     0.000000191900
       2       -0.000005124018    -0.000000463589     0.000008642761
       3       -0.000018873920     0.000016155090    -0.000004399968
       4        0.000007408941    -0.000002430955     0.000007400016
       5       -0.000002256439    -0.000001078355    -0.000002712396
       6       -0.000003248059    -0.000018086917     0.000005755311
       7       -0.000000769473     0.000002252747     0.000000105789
       8       -0.000004836415    -0.000003669832    -0.000004144591
       9       -0.000000986853    -0.000000442938    -0.000002044202
      10       -0.000017800853     0.000001012267     0.000018361303
      11       -0.000006931231     0.000004783692     0.000004469991
      12       -0.000102449447     0.000563048957    -0.000254794170
      13        0.000043572796    -0.000700620715     0.000413463720
      14        0.000009274599     0.000009847507     0.000007376657
      15        0.000076800153    -0.000479442919    -0.000539812218
      16       -0.000021648497     0.000601608579     0.000369750887
      17        0.000024441172     0.000023451316     0.000003154526
      18        0.000019535261    -0.000015494795    -0.000030765317

  **** Optimization is complete! (in 6 steps) ****
    Final optimized geometry and variables:
    Molecular point group: c1

    Geometry (in Angstrom), charge = 0, multiplicity = 1:

    H           -4.028644234913    -0.461254077953    -0.021270538873
    C           -2.962516497894    -0.325880107367     0.020676645463
    C           -2.373953159210     0.175320666675     1.171983518530
    C           -2.181330378518    -0.653073644719    -1.076350377919
    H           -2.980770380591     0.428691620976     2.022296401958
    C           -1.003037492153     0.348869927424     1.225111970194
    H           -2.639234542183    -1.041490955040    -1.968010650981
    C           -0.808789361099    -0.479908901283    -1.025463926212
    H           -0.530877564243     0.735382545082     2.107796552232
    C           -0.215602364015     0.022241439291     0.126886377264
    H           -0.200905745202    -0.731960540702    -1.872173835170
    C            1.257043890640     0.229394402764     0.236951703408
    O            1.904069890853    -0.118212659815    -0.866351035551
    O            1.790854710429     0.659559619242     1.210803830922
    C            3.313013678162     0.034476285320    -0.922020063682
    H            3.542597525310     0.561511793450    -1.836664764459
    H            3.763040651253    -0.948330781623    -0.943087082018
    H            3.672176441901     0.588173304096    -0.071480416170

  Mulliken Charges: (a.u.)
   Center  Symbol    Alpha    Beta     Spin     Total
       1     H     0.39549  0.39549  0.00000  0.20902
       2     C     3.09001  3.09001  0.00000 -0.18001
       3     C     3.10702  3.10702  0.00000 -0.21403
       4     C     3.10708  3.10708  0.00000 -0.21416
       5     H     0.39549  0.39549  0.00000  0.20902
       6     C     3.08657  3.08657  0.00000 -0.17314
       7     H     0.39641  0.39641  0.00000  0.20719
       8     C     3.08691  3.08691  0.00000 -0.17383
       9     H     0.37594  0.37594  0.00000  0.24813
      10     C     3.07793  3.07793  0.00000 -0.15587
      11     H     0.38064  0.38064  0.00000  0.23873
      12     C     2.57940  2.57940  0.00000  0.84120
      13     O     4.31672  4.31672  0.00000 -0.63345
      14     O     4.29127  4.29127  0.00000 -0.58254
      15     C     3.09829  3.09829  0.00000 -0.19659
      16     H     0.41079  0.41079  0.00000  0.17841
      17     H     0.41174  0.41174  0.00000  0.17652
      18     H     0.39230  0.39230  0.00000  0.21541

   Total alpha = 36.00000, Total beta = 36.00000, Total charge =  0.00000
