                              Psi4 1.0.54 Driver

  ==> Input File <==

--------------------------------------------------------------------------
set {
	reference rhf
	basis cc-pvtz
}

set_num_threads( 4 )
memory 2 gb

molecule MOL {
0 1

H	 3.273419	 0.176595	 -0.102789
N	 2.433987	 -0.362316	 -0.080024
C	 1.263552	 0.494993	 0.021953
H	 2.497638	 -0.973615	 0.707122
C	 -0.016533	 -0.325589	 -0.026925
H	 1.280915	 1.180773	 -0.818522
H	 1.263064	 1.106893	 0.925038
C	 -1.280353	 0.525521	 0.047747
H	 -0.016686	 -0.912532	 -0.939714
H	 -0.014099	 -1.037598	 0.796369
C	 -1.983559	 0.432330	 1.397861
H	 -1.967133	 0.217647	 -0.736162
H	 -1.031578	 1.563468	 -0.156341
H	 -2.275704	 -0.589225	 1.616508
H	 -2.878226	 1.043977	 1.418092
H	 -1.335285	 0.768005	 2.200508

	symmetry c1
}
set optking {
	frozen_dihedral = ("
		12 8 5 9
	")
}

ee,wfn = optimize('scf', return_wfn=True)
oeprop( wfn, 'DIPOLE', 'QUADRUPOLE', 'MULLIKEN_CHARGES')
f=open( 'psi4out.xyz', 'w' )
f.write( "16  " )
f.write( str(ee) + "\n" )
f.write( MOL.save_string_xyz() )
f.close()
--------------------------------------------------------------------------

    Molecular point group: c1
  Charge       = 0
  Multiplicity = 1
  Basis Set: CC-PVTZ
  Basis Set:
  @DF-RHF Final Energy:  -212.39536003956889
    Total Energy =                       -212.3953600395688568
    Molecular point group: c1
  Basis Set: CC-PVTZ
  Basis Set:
  Basis Set: CC-PVTZ
  Basis Set:
  @DF-RHF Final Energy:  -212.39563922040901
    Total Energy =                       -212.3956392204087820
  Basis Set: CC-PVTZ
  Basis Set:
  Basis Set: CC-PVTZ
  Basis Set:
  @DF-RHF Final Energy:  -212.39571338107351
    Total Energy =                       -212.3957133810735627
  Basis Set: CC-PVTZ
  Basis Set:
  Basis Set: CC-PVTZ
  Basis Set:
  @DF-RHF Final Energy:  -212.39571455653473
    Total Energy =                       -212.3957145565346991
  Basis Set: CC-PVTZ
  Basis Set:
  Charge       = 0
  Multiplicity = 1
  Basis Set: CC-PVTZ
  Basis Set:

    Orbital Energies (a.u.)
    -----------------------

    Doubly Occupied:

       1A    -15.526658     2A    -11.238783     3A    -11.212931
       4A    -11.207728     5A    -11.207162     6A     -1.178668
       7A     -1.058733     8A     -0.958791     9A     -0.849410
      10A     -0.790441    11A     -0.661290    12A     -0.637514
      13A     -0.608188    14A     -0.582198    15A     -0.562766
      16A     -0.525479    17A     -0.505977    18A     -0.468819
      19A     -0.461351    20A     -0.460558    21A     -0.383998

  @DF-RHF Final Energy:  -212.39571468095562

   => Energetics <=

    Nuclear Repulsion Energy =            187.6265244566949946
    One-Electron Energy =                -657.8695963264590318
    Two-Electron Energy =                 257.8473571888085871
    DFT Exchange-Correlation Energy =       0.0000000000000000
    Empirical Dispersion Energy =           0.0000000000000000
    PCM Polarization Energy =               0.0000000000000000
    EFP Energy =                            0.0000000000000000
    Total Energy =                       -212.3957146809554501
    Molecular point group: c1
  Basis Set: CC-PVTZ
  Basis Set:

  -Total Gradient:
     Atom            X                  Y                   Z
    ------   -----------------  -----------------  -----------------
       1        0.000010003912    -0.000000743041     0.000003438428
       2        0.000014707542    -0.000004783334    -0.000011704893
       3       -0.000023069109     0.000012104074     0.000006119514
       4       -0.000002135518     0.000000604907     0.000003805242
       5        0.001576327707     0.002737642460    -0.001773419095
       6       -0.000001027657    -0.000004210826     0.000000576205
       7       -0.000001172232    -0.000011296239    -0.000009141273
       8       -0.001416914527    -0.002543798025     0.002137043621
       9       -0.001090485004    -0.001850308876     0.001139088345
      10       -0.000002968847     0.000001759898     0.000005488623
      11        0.000002003647     0.000002073729     0.000002964819
      12        0.000929863339     0.001653691351    -0.001488556300
      13        0.000001141002     0.000003967383     0.000003949648
      14        0.000002404651     0.000007476175    -0.000008782765
      15        0.000001792941     0.000002846847    -0.000000621429
      16       -0.000000471850    -0.000007026483    -0.000010248689

  **** Optimization is complete! (in 5 steps) ****
    Final optimized geometry and variables:
    Molecular point group: c1

    Geometry (in Angstrom), charge = 0, multiplicity = 1:

    H            3.153875774076     0.079026147033    -0.371569925069
    N            2.323529307415    -0.474154687763    -0.359761640921
    C            1.136886692883     0.361277907566    -0.280867119936
    H            2.385162753855    -1.082550947175     0.429754903420
    C           -0.128409717308    -0.481010768422    -0.351429813657
    H            1.155135995789     1.045760767200    -1.122188462029
    H            1.107573039951     0.975706717253     0.620606828345
    C           -1.419880349528     0.347785694780    -0.231367580343
    H           -0.120254074045    -1.052844188608    -1.271496653712
    H           -0.099523794082    -1.218521763998     0.447760421875
    C           -2.088964539976     0.252422774197     1.136154651018
    H           -2.121009067265     0.049690520759    -1.002822305633
    H           -1.195403943158     1.390561464348    -0.439628517120
    H           -2.396414636121    -0.765814045859     1.348990492981
    H           -2.969375926965     0.882886466918     1.189132326049
    H           -1.412243780637     0.563229422693     1.925621762741

  Mulliken Charges: (a.u.)
   Center  Symbol    Alpha    Beta     Spin     Total
       1     H     0.43011  0.43011  0.00000  0.13978
       2     N     3.68996  3.68996  0.00000 -0.37992
       3     C     3.02539  3.02539  0.00000 -0.05078
       4     H     0.43041  0.43041  0.00000  0.13918
       5     C     3.08681  3.08681  0.00000 -0.17361
       6     H     0.45637  0.45637  0.00000  0.08726
       7     H     0.46796  0.46796  0.00000  0.06409
       8     C     3.09619  3.09619  0.00000 -0.19238
       9     H     0.44403  0.44403  0.00000  0.11195
      10     H     0.46163  0.46163  0.00000  0.07674
      11     C     3.14705  3.14705  0.00000 -0.29409
      12     H     0.44747  0.44747  0.00000  0.10505
      13     H     0.45658  0.45658  0.00000  0.08683
      14     H     0.45456  0.45456  0.00000  0.09087
      15     H     0.44941  0.44941  0.00000  0.10119
      16     H     0.45607  0.45607  0.00000  0.08785

   Total alpha = 21.00000, Total beta = 21.00000, Total charge = -0.00000

*** Psi4 exiting successfully. Buy a developer a beer!
