  ==> Input File <==

--------------------------------------------------------------------------
set {
	reference rhf
	basis cc-pvtz
}

set_num_threads( 4 )
memory 2 gb

molecule MOL {
0 1

H	 -2.698799	 -0.000846	 0.036018
C	 -1.694291	 -0.000483	 0.434279
O	 -0.828718	 -0.000608	 -0.655022
H	 -1.576855	 0.881100	 1.056504
H	 -1.576401	 -0.881658	 1.057001
C	 0.557892	 0.000078	 -0.420099
C	 1.200260	 -1.353553	 -0.701735
C	 1.272688	 1.140327	 -1.136443
H	 0.628361	 0.183648	 0.644774
H	 0.646303	 -2.143408	 -0.209476
H	 2.216088	 -1.363946	 -0.323937
H	 1.244246	 -1.573770	 -1.761995
H	 0.769019	 2.079975	 -0.945595
H	 2.291199	 1.220541	 -0.774538
H	 1.318495	 0.986330	 -2.208230

	symmetry c1
}
set optking {
	frozen_dihedral = ("
		9 6 3 2
	")
}

ee = optimize('scf')
oeprop('DIPOLE', 'QUADRUPOLE', 'MULLIKEN_CHARGES')
f=open( 'psi4out.xyz', 'w' )
f.write( "15  " )
f.write( str(ee) + "\n" )
f.write( MOL.save_string_xyz() )
f.close()
--------------------------------------------------------------------------

    Molecular point group: c1
  Charge       = 0
  Multiplicity = 1
  Basis Set: CC-PVTZ
  Basis Set:
  @DF-RHF Final Energy:  -232.22513134780900
    Total Energy =                       -232.2251313478087695
    Molecular point group: c1
  Basis Set: CC-PVTZ
  Basis Set:
  Basis Set: CC-PVTZ
  Basis Set:
  @DF-RHF Final Energy:  -232.22826340585991
    Total Energy =                       -232.2282634058599911
  Basis Set: CC-PVTZ
  Basis Set:
  Basis Set: CC-PVTZ
  Basis Set:
  @DF-RHF Final Energy:  -232.22890430228216
    Total Energy =                       -232.2289043022819328
  Basis Set: CC-PVTZ
  Basis Set:
  Basis Set: CC-PVTZ
  Basis Set:
  @DF-RHF Final Energy:  -232.22893170284448
    Total Energy =                       -232.2289317028444771
  Basis Set: CC-PVTZ
  Basis Set:
  Basis Set: CC-PVTZ
  Basis Set:
  @DF-RHF Final Energy:  -232.22893466815228
    Total Energy =                       -232.2289346681521351
  Basis Set: CC-PVTZ
  Basis Set:
  Charge       = 0
  Multiplicity = 1
  Basis Set: CC-PVTZ
  Basis Set:

    Orbital Energies (a.u.)
    -----------------------

    Doubly Occupied:

       1A    -20.542215     2A    -11.272430     3A    -11.262176
       4A    -11.205676     5A    -11.205281     6A     -1.376726
       7A     -1.053645     8A     -0.937008     9A     -0.918672
      10A     -0.795983    11A     -0.670428    12A     -0.643884
      13A     -0.636861    14A     -0.580403    15A     -0.553887
      16A     -0.540679    17A     -0.537303    18A     -0.497788
      19A     -0.488167    20A     -0.458820    21A     -0.407249

  @DF-RHF Final Energy:  -232.22893481750768

   => Energetics <=

    Nuclear Repulsion Energy =            197.0799370074421688
    One-Electron Energy =                -705.4471830853249230
    Two-Electron Energy =                 276.1383112603750192
    DFT Exchange-Correlation Energy =       0.0000000000000000
    Empirical Dispersion Energy =           0.0000000000000000
    PCM Polarization Energy =               0.0000000000000000
    EFP Energy =                            0.0000000000000000
    Total Energy =                       -232.2289348175077635
    Molecular point group: c1
  Basis Set: CC-PVTZ
  Basis Set:

  -Total Gradient:
     Atom            X                  Y                   Z
    ------   -----------------  -----------------  -----------------
       1        0.000014035985    -0.000000346585    -0.000013177184
       2       -0.000011085622     0.000850003976     0.000027283639
       3        0.000035015823    -0.001484261595     0.000061001240
       4        0.000000893433    -0.000003089765    -0.000006448075
       5        0.000000293102     0.000005093533    -0.000008476262
       6       -0.000001868169     0.001647668243    -0.000225070042
       7        0.000013405041    -0.000004918606     0.000001083950
       8        0.000017437202     0.000004587381    -0.000004601197
       9       -0.000038080235    -0.001018865970     0.000177914215
      10       -0.000001930378    -0.000004892363     0.000004280914
      11       -0.000015596453     0.000006464644    -0.000004172865
      12        0.000002020557     0.000002503316    -0.000002819715
      13        0.000000483817     0.000005604303     0.000002990384
      14       -0.000017814646    -0.000006518663    -0.000002642242
      15        0.000002790543     0.000000968152    -0.000007146759

  **** Optimization is complete! (in 6 steps) ****
    Final optimized geometry and variables:
    Molecular point group: c1

    Geometry (in Angstrom), charge = 0, multiplicity = 1:

    H           -2.771998014409     0.011973052424     0.432368249276
    C           -1.774655011499     0.034674916164     0.848044498060
    O           -0.875918279657     0.040935615691    -0.210953209416
    H           -1.676034720293     0.925890485003     1.463601891079
    H           -1.647224007697    -0.838219467440     1.484582836145
    C            0.488840078196     0.051635944973     0.130985039476
    C            1.099422769785    -1.305693810251    -0.185773894464
    C            1.165888845285     1.182696637123    -0.623840975569
    H            0.587863612290     0.231435249121     1.198939070689
    H            0.589703474181    -2.091399659660     0.359201295873
    H            2.149444338452    -1.331424169136     0.083932033732
    H            1.010263686018    -1.517796267024    -1.244748871393
    H            0.719807730510     2.134452464398    -0.362660559239
    H            2.224375687216     1.223523812765    -0.392480139522
    H            1.052557764078     1.038704204202    -1.691946710710

  Mulliken Charges: (a.u.)
   Center  Symbol    Alpha    Beta     Spin     Total
       1     H     0.44943  0.44943  0.00000  0.10115
       2     C     3.03356  3.03356  0.00000 -0.06712
       3     O     4.18819  4.18819  0.00000 -0.37638
       4     H     0.47000  0.47000  0.00000  0.06000
       5     H     0.47127  0.47127  0.00000  0.05745
       6     C     2.92077  2.92077  0.00000  0.15847
       7     C     3.13908  3.13908  0.00000 -0.27816
       8     C     3.13836  3.13836  0.00000 -0.27673
       9     H     0.46846  0.46846  0.00000  0.06307
      10     H     0.45129  0.45129  0.00000  0.09741
      11     H     0.45630  0.45630  0.00000  0.08741
      12     H     0.45273  0.45273  0.00000  0.09455
      13     H     0.45024  0.45024  0.00000  0.09951
      14     H     0.45800  0.45800  0.00000  0.08400
      15     H     0.45232  0.45232  0.00000  0.09535

   Total alpha = 21.00000, Total beta = 21.00000, Total charge = -0.00000
