  ==> Input File <==

--------------------------------------------------------------------------
set {
	reference rhf
	basis 6-31G*
}

set_num_threads( 4 )
memory 2 gb

molecule MOL {
0 1

O	 1.618700	 1.694621	 -0.482793
C	 1.035757	 1.284923	 -1.434341
C	 -0.273506	 0.534641	 -1.406539
O	 1.472611	 1.443387	 -2.677396
C	 -0.823008	 0.326187	 0.001381
H	 -0.976334	 1.085062	 -2.026042
H	 -0.114745	 -0.414193	 -1.911740
C	 -2.149452	 -0.435131	 -0.000098
H	 -0.951955	 1.291149	 0.481392
H	 -0.090067	 -0.210584	 0.595504
C	 -3.368779	 0.488503	 -0.000883
H	 -2.193746	 -1.087250	 -0.871175
H	 -2.195311	 -1.087803	 0.870418
C	 -4.693822	 -0.272754	 -0.001129
H	 -3.325798	 1.139422	 -0.871284
H	 -3.326423	 1.139959	 0.869145
H	 -4.781274	 -0.907928	 -0.878124
H	 -5.538651	 0.408946	 -0.001420
H	 -4.781694	 -0.907783	 0.875984
C	 2.696042	 2.136215	 -2.845205
H	 2.620624	 3.140735	 -2.454333
H	 2.877603	 2.161243	 -3.908353
H	 3.498616	 1.618065	 -2.340328

	symmetry c1
}
set optking {
	frozen_dihedral = ("
		9 5 8 12
	")
}

ee = optimize('scf')
oeprop('DIPOLE', 'QUADRUPOLE', 'MULLIKEN_CHARGES')
f=open( 'psi4out.xyz', 'w' )
f.write( "23  " )
f.write( str(ee) + "\n" )
f.write( MOL.save_string_xyz() )
f.close()
--------------------------------------------------------------------------

    Molecular point group: c1
  Charge       = 0
  Multiplicity = 1
  Basis Set: 6-31G*
  Basis Set:
  @DF-RHF Final Energy:  -422.97250077103206
    Total Energy =                       -422.9725007710320597
    Molecular point group: c1
  Basis Set: 6-31G*
  Basis Set:
  Basis Set: 6-31G*
  Basis Set:
  @DF-RHF Final Energy:  -422.97263288118256
    Total Energy =                       -422.9726328811817666
  Basis Set: 6-31G*
  Basis Set:
  Basis Set: 6-31G*
  Basis Set:
  @DF-RHF Final Energy:  -422.97156425561167
    Total Energy =                       -422.9715642556116109
  Basis Set: 6-31G*
  Basis Set:
  Basis Set: 6-31G*
  Basis Set:
  @DF-RHF Final Energy:  -422.97277592070986
    Total Energy =                       -422.9727759207104327
  Basis Set: 6-31G*
  Basis Set:
  Basis Set: 6-31G*
  Basis Set:
  @DF-RHF Final Energy:  -422.97279751075268
    Total Energy =                       -422.9727975107525708
  Basis Set: 6-31G*
  Basis Set:
  Charge       = 0
  Multiplicity = 1
  Basis Set: 6-31G*
  Basis Set:

    Orbital Energies (a.u.)
    -----------------------

    Doubly Occupied:

       1A    -20.603586     2A    -20.545454     3A    -11.372084
       4A    -11.280828     5A    -11.235502     6A    -11.219266
       7A    -11.218256     8A    -11.217588     9A    -11.210461
      10A     -1.469266    11A     -1.362718    12A     -1.092931
      13A     -1.042543    14A     -0.986613    15A     -0.931949
      16A     -0.847139    17A     -0.793923    18A     -0.766573
      19A     -0.701026    20A     -0.682340    21A     -0.672403
      22A     -0.632629    23A     -0.626088    24A     -0.598536
      25A     -0.574318    26A     -0.558583    27A     -0.555367
      28A     -0.528286    29A     -0.520545    30A     -0.500958
      31A     -0.494673    32A     -0.469958    33A     -0.464898
      34A     -0.458396    35A     -0.452190    36A     -0.436350

  @DF-RHF Final Energy:  -422.97279782551271

   => Energetics <=

    Nuclear Repulsion Energy =            456.1581903957242616
    One-Electron Energy =               -1480.0135310510572708
    Two-Electron Energy =                 600.8825428298205225
    DFT Exchange-Correlation Energy =       0.0000000000000000
    Empirical Dispersion Energy =           0.0000000000000000
    PCM Polarization Energy =               0.0000000000000000
    EFP Energy =                            0.0000000000000000
    Total Energy =                       -422.9727978255125436
    Molecular point group: c1
  Basis Set: 6-31G*
  Basis Set:

  -Total Gradient:
     Atom            X                  Y                   Z
    ------   -----------------  -----------------  -----------------
       1       -0.000023095209     0.000031313759    -0.000009229221
       2        0.000069410821    -0.000124680719     0.000012483634
       3       -0.000029619100    -0.000036279738    -0.000075289770
       4       -0.000035877261     0.000023218380     0.000016256712
       5        0.000422830814    -0.000906638002     0.003084173729
       6       -0.000003106150    -0.000006215012     0.000008289068
       7        0.000013692172     0.000002363786    -0.000045198655
       8        0.001549827082    -0.002627787536     0.001350656416
       9       -0.000786231116     0.001245832661    -0.002782177879
      10       -0.000060781176    -0.000052108092     0.000026259752
      11        0.000038516763     0.000114351292     0.000124408182
      12       -0.001223813177     0.002327197287    -0.001712774632
      13        0.000052854779     0.000031496996     0.000022334012
      14        0.000036064505    -0.000031012306    -0.000057111251
      15        0.000005319269    -0.000001722110     0.000020736858
      16       -0.000037024791     0.000012672594     0.000027666969
      17       -0.000010033737    -0.000021218523     0.000002470449
      18        0.000020793879     0.000006453853    -0.000019065860
      19       -0.000004510310     0.000012023202     0.000006411555
      20        0.000005649292    -0.000006456517    -0.000001027585
      21       -0.000000586991     0.000001822645     0.000000084312
      22        0.000000476974     0.000003564766     0.000000303784
      23       -0.000000757330     0.000001807330    -0.000000660583

  **** Optimization is complete! (in 6 steps) ****
    Final optimized geometry and variables:
    Molecular point group: c1

    Geometry (in Angstrom), charge = 0, multiplicity = 1:

    O            2.075577425000     0.900966445254     0.512287328421
    C            1.497132636617     0.467152355171    -0.431348547442
    C            0.206216419024    -0.313552484760    -0.387716861586
    O            1.925513519689     0.618613318306    -1.678278931107
    C           -0.326633170264    -0.526655357506     1.028815270342
    H           -0.512570757829     0.215721854452    -1.007183205320
    H            0.384197214531    -1.262056606455    -0.886689603194
    C           -1.676418028729    -1.265036117041     1.040036022018
    H           -0.433407164279     0.444879739972     1.499560696724
    H            0.413255482837    -1.071820546682     1.603338576417
    C           -2.882952139299    -0.320684848988     1.011445566514
    H           -1.741507644483    -1.925443827305     0.177226180704
    H           -1.745039198241    -1.895214847575     1.922311026367
    C           -4.217786508554    -1.061760721427     0.951086877295
    H           -2.804778957379     0.347508671987     0.156028299759
    H           -2.860607226917     0.313159811818     1.894872635607
    H           -4.286546941092    -1.675578787750     0.057293745603
    H           -5.052836218767    -0.368204712704     0.940762294141
    H           -4.341572584546    -1.715584048214     1.809864048311
    C            3.132813335925     1.335757969277    -1.860399255544
    H            3.036982717402     2.343515838146    -1.482558757628
    H            3.309582137414     1.350671722025    -2.924590133463
    H            3.948541324832     0.841989525763    -1.352171709879

  Mulliken Charges: (a.u.)
   Center  Symbol    Alpha    Beta     Spin     Total
       1     O     4.28598  4.28598  0.00000 -0.57196
       2     C     2.60564  2.60564  0.00000  0.78872
       3     C     3.20936  3.20936  0.00000 -0.41871
       4     O     4.30724  4.30724  0.00000 -0.61449
       5     C     3.15512  3.15512  0.00000 -0.31023
       6     H     0.40049  0.40049  0.00000  0.19901
       7     H     0.40043  0.40043  0.00000  0.19914
       8     C     3.15692  3.15692  0.00000 -0.31384
       9     H     0.40974  0.40974  0.00000  0.18053
      10     H     0.40958  0.40958  0.00000  0.18084
      11     C     3.15323  3.15323  0.00000 -0.30647
      12     H     0.42377  0.42377  0.00000  0.15246
      13     H     0.41760  0.41760  0.00000  0.16481
      14     C     3.23969  3.23969  0.00000 -0.47937
      15     H     0.42436  0.42436  0.00000  0.15128
      16     H     0.42024  0.42024  0.00000  0.15952
      17     H     0.42190  0.42190  0.00000  0.15619
      18     H     0.41860  0.41860  0.00000  0.16280
      19     H     0.42105  0.42105  0.00000  0.15789
      20     C     3.09244  3.09244  0.00000 -0.18488
      21     H     0.40909  0.40909  0.00000  0.18183
      22     H     0.40846  0.40846  0.00000  0.18307
      23     H     0.40907  0.40907  0.00000  0.18186

   Total alpha = 36.00000, Total beta = 36.00000, Total charge =  0.00000
