  ==> Input File <==

--------------------------------------------------------------------------
set {
	reference rhf
	basis 6-31G*
}

set_num_threads( 4 )
memory 2 gb

molecule MOL {
0 1

H	 -0.944757	 -0.000069	 1.678017
O	 -0.042387	 -0.000390	 1.388199
C	 -0.001487	 0.000018	 -0.026623
C	 0.505576	 -1.354804	 -0.524602
C	 -1.397154	 0.295723	 -0.579177
C	 0.973666	 1.111921	 -0.396988
H	 0.588629	 -1.373286	 -1.606572
H	 -0.173127	 -2.152652	 -0.231843
H	 1.479842	 -1.570004	 -0.099736
H	 -1.392095	 0.342392	 -1.663560
H	 -2.101125	 -0.479512	 -0.285291
H	 -1.760192	 1.242355	 -0.194511
H	 1.077572	 1.195266	 -1.474022
H	 1.949768	 0.911811	 0.030409
H	 0.623777	 2.061704	 -0.008553

	symmetry c1
}
set optking {
	frozen_dihedral = ("
		4 3 2 1
	")
}

ee = optimize('scf')
oeprop('DIPOLE', 'QUADRUPOLE', 'MULLIKEN_CHARGES')
f=open( 'psi4out.xyz', 'w' )
f.write( "15  " )
f.write( str(ee) + "\n" )
f.write( MOL.save_string_xyz() )
f.close()
--------------------------------------------------------------------------

    Molecular point group: c1
  Charge       = 0
  Multiplicity = 1
  Basis Set: 6-31G*
  Basis Set:
  @DF-RHF Final Energy:  -232.15064878926324
    Total Energy =                       -232.1506487892631867
    Molecular point group: c1
  Basis Set: 6-31G*
  Basis Set:
  Basis Set: 6-31G*
  Basis Set:
  @DF-RHF Final Energy:  -232.15096115439039
    Total Energy =                       -232.1509611543903588
  Basis Set: 6-31G*
  Basis Set:
  Basis Set: 6-31G*
  Basis Set:
  @DF-RHF Final Energy:  -232.15105045641849
    Total Energy =                       -232.1510504564185453
  Basis Set: 6-31G*
  Basis Set:
  Basis Set: 6-31G*
  Basis Set:
  @DF-RHF Final Energy:  -232.15104057925922
    Total Energy =                       -232.1510405792593019
  Basis Set: 6-31G*
  Basis Set:
  Basis Set: 6-31G*
  Basis Set:
  @DF-RHF Final Energy:  -232.15105566794136
    Total Energy =                       -232.1510556679411934
  Basis Set: 6-31G*
  Basis Set:
  Charge       = 0
  Multiplicity = 1
  Basis Set: 6-31G*
  Basis Set:

    Orbital Energies (a.u.)
    -----------------------

    Doubly Occupied:

       1A    -20.546803     2A    -11.282015     3A    -11.218623
       4A    -11.204693     5A    -11.204258     6A     -1.358086
       7A     -1.063807     8A     -0.945787     9A     -0.935140
      10A     -0.775624    11A     -0.669234    12A     -0.622601
      13A     -0.620957    14A     -0.575256    15A     -0.556318
      16A     -0.533236    17A     -0.516719    18A     -0.508715
      19A     -0.501412    20A     -0.456973    21A     -0.422456

  @DF-RHF Final Energy:  -232.15105512383121

   => Energetics <=

    Nuclear Repulsion Energy =            200.2468719705816511
    One-Electron Energy =                -711.7584317239252414
    Two-Electron Energy =                 279.3605046295122634
    DFT Exchange-Correlation Energy =       0.0000000000000000
    Empirical Dispersion Energy =           0.0000000000000000
    PCM Polarization Energy =               0.0000000000000000
    EFP Energy =                            0.0000000000000000
    Total Energy =                       -232.1510551238313269
    Molecular point group: c1
  Basis Set: 6-31G*
  Basis Set:

  -Total Gradient:
     Atom            X                  Y                   Z
    ------   -----------------  -----------------  -----------------
       1       -0.000042657595     0.001235469428     0.000057207242
       2        0.000205216954    -0.001451120386    -0.000000830905
       3       -0.000880660161     0.000007579067     0.000034160884
       4        0.000706493561     0.000292968573    -0.000058907292
       5        0.000005603380    -0.000040794758    -0.000001006211
       6        0.000024762656    -0.000033867629    -0.000005124938
       7       -0.000051451056    -0.000032866731     0.000019700437
       8       -0.000000548390    -0.000037996032     0.000012928302
       9        0.000017597079     0.000069897444    -0.000007353199
      10       -0.000009990329    -0.000013315290    -0.000043829560
      11       -0.000011442077     0.000035419150     0.000008640998
      12        0.000038406683    -0.000021170901    -0.000004118201
      13        0.000002219604     0.000027524656    -0.000017609081
      14        0.000001366536     0.000000037498    -0.000001243892
      15       -0.000004916845    -0.000037764087     0.000007385415

  **** Optimization is complete! (in 6 steps) ****
    Final optimized geometry and variables:
    Molecular point group: c1

    Geometry (in Angstrom), charge = 0, multiplicity = 1:

    H           -0.927726425748    -0.048349949897     1.701304132447
    O           -0.033859737044    -0.042006266585     1.392672966322
    C            0.001349927992    -0.001517109232    -0.026052635732
    C            0.506564291587    -1.356292887812    -0.521435487468
    C           -1.392624980029     0.295170621267    -0.578766774831
    C            0.979082090132     1.108172108775    -0.406495685177
    H            0.595132805541    -1.375816536081    -1.603573025938
    H           -0.171641365408    -2.148286908915    -0.219357782242
    H            1.479422608420    -1.568072934988    -0.092257043057
    H           -1.381871695908     0.344871572727    -1.662054217768
    H           -2.096284483947    -0.482189265952    -0.290472167419
    H           -1.759179901631     1.245968914275    -0.202381970230
    H            1.103014147282     1.173032097564    -1.483262075025
    H            1.948677357540     0.917776742419     0.040032136033
    H            0.624172296997     2.065585751452    -0.040509991096

  Mulliken Charges: (a.u.)
   Center  Symbol    Alpha    Beta     Spin     Total
       1     H     0.27966  0.27966  0.00000  0.44068
       2     O     4.38345  4.38345  0.00000 -0.76689
       3     C     2.84472  2.84472  0.00000  0.31055
       4     C     3.23177  3.23177  0.00000 -0.46353
       5     C     3.26013  3.26013  0.00000 -0.52026
       6     C     3.23177  3.23177  0.00000 -0.46354
       7     H     0.42583  0.42583  0.00000  0.14834
       8     H     0.42170  0.42170  0.00000  0.15660
       9     H     0.41319  0.41319  0.00000  0.17362
      10     H     0.41430  0.41430  0.00000  0.17140
      11     H     0.42026  0.42026  0.00000  0.15947
      12     H     0.41590  0.41590  0.00000  0.16819
      13     H     0.42572  0.42572  0.00000  0.14856
      14     H     0.41302  0.41302  0.00000  0.17396
      15     H     0.41857  0.41857  0.00000  0.16285

   Total alpha = 21.00000, Total beta = 21.00000, Total charge = -0.00000
