  ==> Input File <==

--------------------------------------------------------------------------
set {
	reference rhf
	basis 6-31G*
}

set_num_threads( 4 )
memory 2 gb

molecule MOL {
0 1

H	 -1.836216	 1.387520	 -0.000064
C	 -1.301823	 0.443321	 -0.000031
O	 -0.003969	 0.658512	 0.000451
O	 -1.829879	 -0.616434	 -0.000857
C	 0.510165	 1.570279	 -0.969876
C	 2.008120	 1.649555	 -0.769462
H	 0.034789	 2.531582	 -0.831198
H	 0.255154	 1.209952	 -1.957007
H	 2.244815	 2.004530	 0.227033
H	 2.440046	 2.335848	 -1.490347
H	 2.466404	 0.676564	 -0.904191

	symmetry c1
}
set optking {
	frozen_dihedral = ("
		5 3 2 4
	")
}

ee = optimize('scf')
oeprop('DIPOLE', 'QUADRUPOLE', 'MULLIKEN_CHARGES')
f=open( 'psi4out.xyz', 'w' )
f.write( "11  " )
f.write( str(ee) + "\n" )
f.write( MOL.save_string_xyz() )
f.close()
--------------------------------------------------------------------------

    Molecular point group: c1
  Charge       = 0
  Multiplicity = 1
  Basis Set: 6-31G*
  Basis Set:
  @DF-RHF Final Energy:  -266.81251962867452
    Total Energy =                       -266.8125196286746359
    Molecular point group: c1
  Basis Set: 6-31G*
  Basis Set:
  Basis Set: 6-31G*
  Basis Set:
  @DF-RHF Final Energy:  -266.81336213140059
    Total Energy =                       -266.8133621314004813
  Basis Set: 6-31G*
  Basis Set:
  Basis Set: 6-31G*
  Basis Set:
  @DF-RHF Final Energy:  -266.81360076016267
    Total Energy =                       -266.8136007601627284
  Basis Set: 6-31G*
  Basis Set:
  Basis Set: 6-31G*
  Basis Set:
  @DF-RHF Final Energy:  -266.81380044246214
    Total Energy =                       -266.8138004424619112
  Basis Set: 6-31G*
  Basis Set:
  Basis Set: 6-31G*
  Basis Set:
  @DF-RHF Final Energy:  -266.81381400119454
    Total Energy =                       -266.8138140011944870
  Basis Set: 6-31G*
  Basis Set:
  Basis Set: 6-31G*
  Basis Set:
  @DF-RHF Final Energy:  -266.81381821953715
    Total Energy =                       -266.8138182195371542
  Basis Set: 6-31G*
  Basis Set:
  Charge       = 0
  Multiplicity = 1
  Basis Set: 6-31G*
  Basis Set:

    Orbital Energies (a.u.)
    -----------------------

    Doubly Occupied:

       1A    -20.602867     2A    -20.564480     3A    -11.380834
       4A    -11.305869     5A    -11.232153     6A     -1.470059
       7A     -1.381648     8A     -1.052852     9A     -0.887486
      10A     -0.841762    11A     -0.741028    12A     -0.690883
      13A     -0.658356    14A     -0.625186    15A     -0.568083
      16A     -0.549018    17A     -0.537662    18A     -0.510248
      19A     -0.463209    20A     -0.451852

  @DF-RHF Final Energy:  -266.81381835181634

   => Energetics <=

    Nuclear Repulsion Energy =            176.4275936209590441
    One-Electron Energy =                -713.4517514950009627
    Two-Electron Energy =                 270.2103395222253539
    DFT Exchange-Correlation Energy =       0.0000000000000000
    Empirical Dispersion Energy =           0.0000000000000000
    PCM Polarization Energy =               0.0000000000000000
    EFP Energy =                            0.0000000000000000
    Total Energy =                       -266.8138183518166215
    Molecular point group: c1
  Basis Set: 6-31G*
  Basis Set:

  -Total Gradient:
     Atom            X                  Y                   Z
    ------   -----------------  -----------------  -----------------
       1       -0.000025769673    -0.000005404449    -0.000002415376
       2        0.000709302603    -0.002337922106     0.007065786405
       3       -0.000249922847     0.004911901669     0.001889913184
       4       -0.000462770293     0.000562824014    -0.005760800996
       5        0.000029468164    -0.003132531695    -0.003186148332
       6       -0.000000431297    -0.000006106752    -0.000004110614
       7       -0.000003171445     0.000012480893     0.000001202111
       8        0.000005538169    -0.000006172857     0.000002986648
       9       -0.000006528537    -0.000002151685    -0.000005310643
      10        0.000002048017     0.000001470010    -0.000002601695
      11        0.000002237140     0.000001612960     0.000001499306

  **** Optimization is complete! (in 7 steps) ****
    Final optimized geometry and variables:
    Molecular point group: c1

    Geometry (in Angstrom), charge = 0, multiplicity = 1:

    H           -1.681444502739     0.691617308972     0.507996031108
    C           -1.177749531939    -0.268507043778     0.391647810301
    O            0.146234301066    -0.161609089366     0.297381815885
    O           -1.758989648296    -1.290837077918     0.341564862758
    C            0.649861890445     0.787619273101    -0.630092324975
    C            2.137566913621     0.932193380131    -0.392647385580
    H            0.141032058505     1.738486267100    -0.494209676723
    H            0.447128246019     0.434991940222    -1.634646738247
    H            2.328803046763     1.288999738029     0.612512017311
    H            2.559967328272     1.639127231854    -1.099027811280
    H            2.633936202531    -0.022295056630    -0.518868144420

  Mulliken Charges: (a.u.)
   Center  Symbol    Alpha    Beta     Spin     Total
       1     H     0.42990  0.42990  0.00000  0.14019
       2     C     2.72812  2.72812  0.00000  0.54377
       3     O     4.29185  4.29185  0.00000 -0.58371
       4     O     4.23388  4.23388  0.00000 -0.46776
       5     C     3.00769  3.00769  0.00000 -0.01539
       6     C     3.24687  3.24687  0.00000 -0.49375
       7     H     0.42102  0.42102  0.00000  0.15795
       8     H     0.41127  0.41127  0.00000  0.17746
       9     H     0.40903  0.40903  0.00000  0.18195
      10     H     0.41574  0.41574  0.00000  0.16853
      11     H     0.40463  0.40463  0.00000  0.19075

   Total alpha = 20.00000, Total beta = 20.00000, Total charge = -0.00000
