  ==> Input File <==

--------------------------------------------------------------------------
set {
	reference rhf
	basis 6-31G*
}

set_num_threads( 1 )
memory 2 gb

molecule MOL {
0 1

H	 2.399851	 0.167520	 2.084041
O	 1.701266	 0.713639	 1.753248
C	 1.135793	 0.118896	 0.612333
C	 0.031547	 1.023609	 0.088541
H	 0.714970	 -0.854175	 0.859171
H	 1.894615	 -0.041188	 -0.150337
C	 -1.134819	 0.293262	 -0.585751
H	 0.474374	 1.714721	 -0.623187
H	 -0.338529	 1.620940	 0.920081
C	 -1.917817	 -0.639439	 0.339494
H	 -0.758119	 -0.268455	 -1.433105
H	 -1.813832	 1.041889	 -0.986690
H	 -2.777680	 -1.057197	 -0.174994
H	 -1.310268	 -1.471279	 0.680599
H	 -2.283753	 -0.111424	 1.216626

	symmetry c1
}
set optking {
	frozen_dihedral = ("
		8 4 7 11,
		1 2 3 4
	")
}

ee = energy('scf')
oeprop('DIPOLE', 'QUADRUPOLE', 'MULLIKEN_CHARGES')
f=open( 'psi4out.xyz', 'w' )
f.write( "15  " )
f.write( str(ee) + "\n" )
f.write( MOL.save_string_xyz() )
f.close()
--------------------------------------------------------------------------

    Molecular point group: c1

    Geometry (in Angstrom), charge = 0, multiplicity = 1:

       Center              X                  Y                   Z               Mass
    ------------   -----------------  -----------------  -----------------  -----------------
           H          2.389591427037    -0.125672332134     1.599258418120     1.007825032070
           O          1.691006427037     0.420446667866     1.268465418120    15.994914619560
           C          1.125533427037    -0.174296332134     0.127550418120    12.000000000000
           C          0.021287427037     0.730416667866    -0.396241581880    12.000000000000
           H          0.704710427037    -1.147367332134     0.374388418120     1.007825032070
           H          1.884355427037    -0.334380332134    -0.635119581880     1.007825032070
           C         -1.145078572963     0.000069667866    -1.070533581880    12.000000000000
           H          0.464114427037     1.421528667866    -1.107969581880     1.007825032070
           H         -0.348788572963     1.327747667866     0.435298418120     1.007825032070
           C         -1.928076572963    -0.932631332134    -0.145288581880    12.000000000000
           H         -0.768378572963    -0.561647332134    -1.917887581880     1.007825032070
           H         -1.824091572963     0.748696667866    -1.471472581880     1.007825032070
           H         -2.787939572963    -1.350389332134    -0.659776581880     1.007825032070
           H         -1.320527572963    -1.764471332134     0.195816418120     1.007825032070
           H         -2.294012572963    -0.404616332134     0.731843418120     1.007825032070

  Charge       = 0
  Multiplicity = 1
  Basis Set: 6-31G*
  Basis Set:

    Orbital Energies (a.u.)
    -----------------------

    Doubly Occupied:

       1A    -20.551650     2A    -11.265806     3A    -11.217976
       4A    -11.210455     5A    -11.209494     6A     -1.358060
       7A     -1.069532     8A     -0.970085     9A     -0.869768
      10A     -0.782927    11A     -0.695500    12A     -0.651756
      13A     -0.620407    14A     -0.574772    15A     -0.555780
      16A     -0.539898    17A     -0.506917    18A     -0.475864
      19A     -0.470959    20A     -0.456334    21A     -0.429248

  @DF-RHF Final Energy:  -232.13909830062227

   => Energetics <=

    Nuclear Repulsion Energy =            188.9200702017347453
    One-Electron Energy =                -689.1518340892093875
    Two-Electron Energy =                 268.0926655868523198
    DFT Exchange-Correlation Energy =       0.0000000000000000
    Empirical Dispersion Energy =           0.0000000000000000
    PCM Polarization Energy =               0.0000000000000000
    EFP Energy =                            0.0000000000000000
    Total Energy =                       -232.1390983006223223

  Mulliken Charges: (a.u.)
   Center  Symbol    Alpha    Beta     Spin     Total
       1     H     0.28166  0.28166  0.00000  0.43667
       2     O     4.37117  4.37117  0.00000 -0.74235
       3     C     2.99334  2.99334  0.00000  0.01333
       4     C     3.16394  3.16394  0.00000 -0.32789
       5     H     0.43114  0.43114  0.00000  0.13771
       6     H     0.43110  0.43110  0.00000  0.13781
       7     C     3.15996  3.15996  0.00000 -0.31992
       8     H     0.41777  0.41777  0.00000  0.16446
       9     H     0.40811  0.40811  0.00000  0.18379
      10     C     3.24131  3.24131  0.00000 -0.48262
      11     H     0.42365  0.42365  0.00000  0.15270
      12     H     0.41817  0.41817  0.00000  0.16366
      13     H     0.41863  0.41863  0.00000  0.16273
      14     H     0.42137  0.42137  0.00000  0.15726
      15     H     0.41867  0.41867  0.00000  0.16266

   Total alpha = 21.00000, Total beta = 21.00000, Total charge = -0.00000
