  ==> Input File <==

--------------------------------------------------------------------------
set {
	reference rhf
	basis 6-31G*
}

set_num_threads( 4 )
memory 2 gb

molecule MOL {
0 1

O	 -1.411761	 -2.688520	 -0.088800
C	 -1.011506	 -1.961517	 -0.946528
C	 -0.889235	 -0.467034	 -0.705952
C	 -0.577730	 -2.489057	 -2.295941
C	 0.379448	 -0.143569	 0.099626
H	 -1.763252	 -0.151374	 -0.146705
H	 -0.877956	 0.072263	 -1.648850
C	 1.631333	 -0.777471	 -0.511575
H	 0.482768	 0.934507	 0.149241
H	 0.263088	 -0.495696	 1.123449
C	 2.915987	 -0.544314	 0.291766
H	 1.766672	 -0.399098	 -1.523130
H	 1.471257	 -1.849544	 -0.605828
C	 3.373361	 0.914346	 0.347591
H	 3.708709	 -1.142521	 -0.150311
H	 2.780642	 -0.921148	 1.303579
H	 3.506512	 1.320010	 -0.651625
H	 4.322697	 0.999599	 0.867103
H	 2.660624	 1.545032	 0.868198
H	 -1.253565	 -2.124503	 -3.065104
H	 -0.588417	 -3.570100	 -2.291736
H	 0.416350	 -2.130727	 -2.547354

	symmetry c1
}
set optking {
	frozen_dihedral = ("
		6 3 5 8
	")
}

ee = optimize('scf')
oeprop('DIPOLE', 'QUADRUPOLE', 'MULLIKEN_CHARGES')
f=open( 'psi4out.xyz', 'w' )
f.write( "22  " )
f.write( str(ee) + "\n" )
f.write( MOL.save_string_xyz() )
f.close()
--------------------------------------------------------------------------

    Molecular point group: c1
  Charge       = 0
  Multiplicity = 1
  Basis Set: 6-31G*
  Basis Set:
  @DF-RHF Final Energy:  -348.09373115885165
    Total Energy =                       -348.0937311588516536
    Molecular point group: c1
  Basis Set: 6-31G*
  Basis Set:
  Basis Set: 6-31G*
  Basis Set:
  @DF-RHF Final Energy:  -348.09572322059398
    Total Energy =                       -348.0957232205935838
  Basis Set: 6-31G*
  Basis Set:
  Basis Set: 6-31G*
  Basis Set:
  @DF-RHF Final Energy:  -348.09486702727423
    Total Energy =                       -348.0948670272743470
  Basis Set: 6-31G*
  Basis Set:
  Basis Set: 6-31G*
  Basis Set:
  @DF-RHF Final Energy:  -348.09630080392128
    Total Energy =                       -348.0963008039212809
  Basis Set: 6-31G*
  Basis Set:
  @DF-RHF Final Energy:  -348.09648751495570
    Total Energy =                       -348.0964875149557542
  @DF-RHF Final Energy:  -348.09672029427315
    Total Energy =                       -348.0967202942733252
  @DF-RHF Final Energy:  -348.09689923734180
    Total Energy =                       -348.0968992373418587
  @DF-RHF Final Energy:  -348.09698483054416
    Total Energy =                       -348.0969848305442156
  @DF-RHF Final Energy:  -348.09705532904059
    Total Energy =                       -348.0970553290404155
  @DF-RHF Final Energy:  -348.09726767939145
    Total Energy =                       -348.0972676793912797
  @DF-RHF Final Energy:  -348.09677608620819
    Total Energy =                       -348.0967760862082514
  @DF-RHF Final Energy:  -348.08478896891029
    Total Energy =                       -348.0847889689105159
  @DF-RHF Final Energy:  -348.09090010552592
    Total Energy =                       -348.0909001055258614
  @DF-RHF Final Energy:  -348.09733137809997
    Total Energy =                       -348.0973313780996250
  @DF-RHF Final Energy:  -348.09760182876295
    Total Energy =                       -348.0976018287626630
  @DF-RHF Final Energy:  -348.09759269103370
    Total Energy =                       -348.0975926910333555
  @DF-RHF Final Energy:  -348.09764812953546
    Total Energy =                       -348.0976481295355143
  @DF-RHF Final Energy:  -348.09765379349733
    Total Energy =                       -348.0976537934972725
  @DF-RHF Final Energy:  -348.09765582650954
    Total Energy =                       -348.0976558265099357
  @DF-RHF Final Energy:  -348.09765697244296
    Total Energy =                       -348.0976569724429055
  @DF-RHF Final Energy:  -348.09632768353646
    Total Energy =                       -348.0963276835366855
  @DF-RHF Final Energy:  -348.09599022674985
    Total Energy =                       -348.0959902267494499
  @DF-RHF Final Energy:  -348.09760741988856
    Total Energy =                       -348.0976074198885044
  @DF-RHF Final Energy:  -348.09280409930966
    Total Energy =                       -348.0928040993095465
  @DF-RHF Final Energy:  -348.08201909696243
    Total Energy =                       -348.0820190969619716
  @DF-RHF Final Energy:  -348.09629658278379
    Total Energy =                       -348.0962965827836229
  @DF-RHF Final Energy:  -348.09754393780884
    Total Energy =                       -348.0975439378089504
  @DF-RHF Final Energy:  -348.09762867844290
    Total Energy =                       -348.0976286784430158
  @DF-RHF Final Energy:  -348.09765076701990
    Total Energy =                       -348.0976507670199567
  Basis Set: 6-31G*
  Basis Set:
  @DF-RHF Final Energy:  -348.09765819404561
    Total Energy =                       -348.0976581940453798
  Basis Set: 6-31G*
  Basis Set:
  Basis Set: 6-31G*
  Basis Set:
  @DF-RHF Final Energy:  -348.09766155554905
    Total Energy =                       -348.0976615555487115
  Basis Set: 6-31G*
  Basis Set:
  Basis Set: 6-31G*
  Basis Set:
  @DF-RHF Final Energy:  -348.09766341348114
    Total Energy =                       -348.0976634134810865
  Basis Set: 6-31G*
  Basis Set:
  Charge       = 0
  Multiplicity = 1
  Basis Set: 6-31G*
  Basis Set:

    Orbital Energies (a.u.)
    -----------------------

    Doubly Occupied:

       1A    -20.549316     2A    -11.327066     3A    -11.232791
       4A    -11.228883     5A    -11.219961     6A    -11.213169
       7A    -11.210277     8A    -11.207346     9A     -1.395543
      10A     -1.087598    11A     -1.041787    12A     -1.000169
      13A     -0.933949    14A     -0.854984    15A     -0.782848
      16A     -0.725216    17A     -0.664153    18A     -0.632373
      19A     -0.628029    20A     -0.612018    21A     -0.602393
      22A     -0.582282    23A     -0.559512    24A     -0.548621
      25A     -0.524574    26A     -0.518960    27A     -0.496076
      28A     -0.484047    29A     -0.461363    30A     -0.458736
      31A     -0.449660    32A     -0.397802

  @DF-RHF Final Energy:  -348.09766408078139

   => Energetics <=

    Nuclear Repulsion Energy =            379.4058619553946414
    One-Electron Energy =               -1223.7440504419623721
    Two-Electron Energy =                 496.2405244057863456
    DFT Exchange-Correlation Energy =       0.0000000000000000
    Empirical Dispersion Energy =           0.0000000000000000
    PCM Polarization Energy =               0.0000000000000000
    EFP Energy =                            0.0000000000000000
    Total Energy =                       -348.0976640807814420
    Molecular point group: c1
  Basis Set: 6-31G*
  Basis Set:

  -Total Gradient:
     Atom            X                  Y                   Z
    ------   -----------------  -----------------  -----------------
       1        0.000027399265    -0.000003044259    -0.000006544243
       2       -0.000032898353     0.000002205577     0.000042535408
       3        0.000210457957     0.004592623666    -0.002191401536
       4       -0.000042969428     0.000007152245    -0.000002831408
       5        0.001039779021     0.003516594123    -0.002593883368
       6       -0.000433397595    -0.004840478306     0.002526655814
       7        0.000038274394     0.000020041214     0.000016579442
       8       -0.000807310814    -0.003256323823     0.002235478587
       9       -0.000025552340    -0.000001438178    -0.000042963412
      10        0.000002724918    -0.000045218965    -0.000007558693
      11        0.000023559622     0.000026461695     0.000015703009
      12        0.000000436010    -0.000004558841     0.000014398707
      13       -0.000003743785    -0.000000284541     0.000018546801
      14       -0.000009771348    -0.000004245077    -0.000004370973
      15       -0.000003994418    -0.000000990740    -0.000004865626
      16       -0.000004824427    -0.000004615306     0.000001748884
      17        0.000003292632     0.000004308711    -0.000002447575
      18       -0.000000608159    -0.000007891829     0.000001570340
      19       -0.000003242689     0.000000644861    -0.000002083952
      20        0.000006346861    -0.000003084602    -0.000003750785
      21       -0.000000545508     0.000003430184    -0.000000641984
      22        0.000016588188    -0.000001287811    -0.000009873439

  **** Optimization is complete! (in 33 steps) ****
    Final optimized geometry and variables:
    Molecular point group: c1

    Geometry (in Angstrom), charge = 0, multiplicity = 1:

    O           -1.165926890199    -1.858231870541     0.174686588368
    C           -1.473880147978    -1.060804644608    -0.658042919781
    C           -1.300206624951     0.435400625652    -0.446432129818
    C           -2.113986745405    -1.487587671853    -1.961304098897
    C           -0.180314339106     0.835685594843     0.520369702593
    H           -2.259137891274     0.740846324961    -0.026570050393
    H           -1.195837521438     0.935129990841    -1.404939973168
    C            1.196579588910     0.257903628645     0.176064655581
    H           -0.142416793364     1.920117261117     0.546313221682
    H           -0.451629913387     0.508036039913     1.519208549822
    C            2.312101102212     0.697574638074     1.132129962587
    H            1.469022083590     0.543733914841    -0.840612714626
    H            1.136068914633    -0.822807488632     0.192433022310
    C            2.668739624189     2.183651076924     1.062248409468
    H            3.202684514212     0.116142145967     0.907262824921
    H            2.032244050143     0.438739585010     2.151082339783
    H            2.946197382166     2.471146627494     0.051455277225
    H            3.510018562429     2.408476933574     1.710703668432
    H            1.844011550906     2.817234285935     1.371688982370
    H           -3.014406135845    -0.912865078406    -2.156885512309
    H           -2.350466567284    -2.541993035040    -1.927930182643
    H           -1.427305876255    -1.298859685856    -2.782317210031

  Mulliken Charges: (a.u.)
   Center  Symbol    Alpha    Beta     Spin     Total
       1     O     4.26502  4.26502  0.00000 -0.53004
       2     C     2.73458  2.73458  0.00000  0.53083
       3     C     3.20969  3.20969  0.00000 -0.41937
       4     C     3.28810  3.28810  0.00000 -0.57620
       5     C     3.15010  3.15010  0.00000 -0.30019
       6     H     0.40318  0.40318  0.00000  0.19364
       7     H     0.41310  0.41310  0.00000  0.17380
       8     C     3.16204  3.16204  0.00000 -0.32409
       9     H     0.41807  0.41807  0.00000  0.16385
      10     H     0.41119  0.41119  0.00000  0.17761
      11     C     3.15368  3.15368  0.00000 -0.30737
      12     H     0.43009  0.43009  0.00000  0.13982
      13     H     0.40219  0.40219  0.00000  0.19562
      14     C     3.24118  3.24118  0.00000 -0.48235
      15     H     0.42016  0.42016  0.00000  0.15968
      16     H     0.42083  0.42083  0.00000  0.15834
      17     H     0.42323  0.42323  0.00000  0.15355
      18     H     0.41895  0.41895  0.00000  0.16211
      19     H     0.42145  0.42145  0.00000  0.15710
      20     H     0.40969  0.40969  0.00000  0.18062
      21     H     0.39694  0.39694  0.00000  0.20612
      22     H     0.40654  0.40654  0.00000  0.18691

   Total alpha = 32.00000, Total beta = 32.00000, Total charge =  0.00000
