  ==> Input File <==

--------------------------------------------------------------------------
set {
	reference rhf
	basis cc-pvtz
}

set_num_threads( 4 )
memory 2 gb

molecule MOL {
0 1

H	 3.459101	 0.139266	 -0.762951
C	 2.749156	 -0.051729	 0.031265
C	 1.322304	 0.099773	 -0.484271
H	 2.929445	 -1.053887	 0.403481
H	 2.954281	 0.646699	 0.834672
C	 0.308557	 -0.162619	 0.622645
H	 1.143368	 -0.594400	 -1.295960
H	 1.169532	 1.100095	 -0.870217
N	 -1.069352	 -0.004081	 0.085342
H	 0.371632	 -1.172932	 0.991288
H	 0.400391	 0.548875	 1.426218
O	 -1.175339	 0.286360	 -1.058768
O	 -1.968013	 -0.150306	 0.844268

	symmetry c1
}
set optking {
	frozen_dihedral = ("
		12 9 6 3
	")
}

ee = optimize('scf')
oeprop('DIPOLE', 'QUADRUPOLE', 'MULLIKEN_CHARGES')
f=open( 'psi4out.xyz', 'w' )
f.write( "13  " )
f.write( str(ee) + "\n" )
f.write( MOL.save_string_xyz() )
f.close()
--------------------------------------------------------------------------

    Molecular point group: c1
  Charge       = 0
  Multiplicity = 1
  Basis Set: CC-PVTZ
  Basis Set:
  @DF-RHF Final Energy:  -321.85839046178108
    Total Energy =                       -321.8583904617812550
    Molecular point group: c1
  Basis Set: CC-PVTZ
  Basis Set:
  Basis Set: CC-PVTZ
  Basis Set:
  @DF-RHF Final Energy:  -321.85849733004909
    Total Energy =                       -321.8584973300488628
  Basis Set: CC-PVTZ
  Basis Set:
  Basis Set: CC-PVTZ
  Basis Set:
  @DF-RHF Final Energy:  -321.86013177939503
    Total Energy =                       -321.8601317793949761
  Basis Set: CC-PVTZ
  Basis Set:
  Basis Set: CC-PVTZ
  Basis Set:
  @DF-RHF Final Energy:  -321.85816540079554
    Total Energy =                       -321.8581654007953716
  Basis Set: CC-PVTZ
  Basis Set:
  Basis Set: CC-PVTZ
  Basis Set:
  @DF-RHF Final Energy:  -321.86041351336553
    Total Energy =                       -321.8604135133655291
  Basis Set: CC-PVTZ
  Basis Set:
  Basis Set: CC-PVTZ
  Basis Set:
  @DF-RHF Final Energy:  -321.86050423232609
    Total Energy =                       -321.8605042323263206
  Basis Set: CC-PVTZ
  Basis Set:
  Basis Set: CC-PVTZ
  Basis Set:
  @DF-RHF Final Energy:  -321.86050541382951
    Total Energy =                       -321.8605054138295145
  Basis Set: CC-PVTZ
  Basis Set:
  Charge       = 0
  Multiplicity = 1
  Basis Set: CC-PVTZ
  Basis Set:

    Orbital Energies (a.u.)
    -----------------------

    Doubly Occupied:

       1A    -20.593947     2A    -20.587216     3A    -15.838571
       4A    -11.299170     5A    -11.246812     6A    -11.234874
       7A     -1.637281     8A     -1.421413     9A     -1.131542
      10A     -1.026585    11A     -0.884932    12A     -0.826234
      13A     -0.762612    14A     -0.754013    15A     -0.730963
      16A     -0.656578    17A     -0.607688    18A     -0.574927
      19A     -0.554931    20A     -0.522227    21A     -0.509573
      22A     -0.488789    23A     -0.474486    24A     -0.453325

  @DF-RHF Final Energy:  -321.86050555956854

   => Energetics <=

    Nuclear Repulsion Energy =            247.6281941879196893
    One-Electron Energy =                -929.3400252463092102
    Two-Electron Energy =                 359.8513254988209837
    DFT Exchange-Correlation Energy =       0.0000000000000000
    Empirical Dispersion Energy =           0.0000000000000000
    PCM Polarization Energy =               0.0000000000000000
    EFP Energy =                            0.0000000000000000
    Total Energy =                       -321.8605055595685371
    Molecular point group: c1
  Basis Set: CC-PVTZ
  Basis Set:

  -Total Gradient:
     Atom            X                  Y                   Z
    ------   -----------------  -----------------  -----------------
       1       -0.000005025884    -0.000001744143     0.000000183513
       2        0.000001113001    -0.000010821825     0.000003302686
       3       -0.000003810098     0.000017918071    -0.000003413181
       4        0.000002314102    -0.000002115417     0.000001987699
       5       -0.000001802564     0.000003441925    -0.000001730354
       6        0.000003864429    -0.000003906382     0.000003466220
       7        0.000000352505     0.000000202147    -0.000000013773
       8       -0.000002168097    -0.000003418537     0.000003743314
       9       -0.000006860901     0.000007661890     0.000002320355
      10       -0.000001382895    -0.000000514380     0.000001362089
      11        0.000001117374     0.000001048025    -0.000002356487
      12       -0.000002741430    -0.000004835494    -0.000001127398
      13        0.000015030454    -0.000002915880    -0.000007724684

  **** Optimization is complete! (in 8 steps) ****
    Final optimized geometry and variables:
    Molecular point group: c1

    Geometry (in Angstrom), charge = 0, multiplicity = 1:

    H            3.511772564760     0.120855534717    -0.736721779353
    C            2.774102919771    -0.059594567760     0.034210116020
    C            1.365494493560     0.108725490988    -0.529509208350
    H            2.932516617905    -1.062658636829     0.414851025748
    H            2.964225886619     0.637304193407     0.843099196545
    C            0.330714906084    -0.143620014016     0.546828023651
    H            1.208047902559    -0.576818815934    -1.351183765651
    H            1.239224083257     1.106908386699    -0.926484475110
    N           -1.082588939175    -0.000805789286     0.081791437959
    H            0.382318345346    -1.145217018685     0.947078419742
    H            0.413079737237     0.546518738200     1.373254554611
    O           -1.285687552002     0.287341836986    -1.047474537800
    O           -1.917477771895    -0.192237871123     0.901679174165

  Mulliken Charges: (a.u.)
   Center  Symbol    Alpha    Beta     Spin     Total
       1     H     0.44124  0.44124  0.00000  0.11752
       2     C     3.15275  3.15275  0.00000 -0.30550
       3     C     3.09045  3.09045  0.00000 -0.18090
       4     H     0.45316  0.45316  0.00000  0.09369
       5     H     0.45315  0.45315  0.00000  0.09369
       6     C     3.04726  3.04726  0.00000 -0.09452
       7     H     0.43952  0.43952  0.00000  0.12097
       8     H     0.43952  0.43952  0.00000  0.12095
       9     N     3.27281  3.27281  0.00000  0.45438
      10     H     0.43329  0.43329  0.00000  0.13342
      11     H     0.43329  0.43329  0.00000  0.13343
      12     O     4.16890  4.16890  0.00000 -0.33779
      13     O     4.17467  4.17467  0.00000 -0.34933

   Total alpha = 24.00000, Total beta = 24.00000, Total charge = -0.00000
