  ==> Input File <==

--------------------------------------------------------------------------
set {
	reference rhf
	basis 6-31G*
}

set_num_threads( 4 )
memory 2 gb

molecule MOL {
0 1

O	 -0.620152	 -0.032964	 0.386291
C	 0.486307	 0.169203	 0.000779
C	 1.608116	 -0.841643	 0.000302
O	 0.887990	 1.334479	 -0.487474
C	 2.990107	 -0.200498	 -0.000684
H	 1.468623	 -1.481519	 -0.865924
H	 1.469683	 -1.481289	 0.866878
H	 3.129736	 0.423364	 -0.875135
H	 3.757882	 -0.966877	 -0.001197
H	 3.130964	 0.423383	 0.873533
C	 -0.068433	 2.387616	 -0.547121
C	 0.626148	 3.598817	 -1.132665
H	 -0.440265	 2.582974	 0.449453
H	 -0.903373	 2.071529	 -1.157494
H	 1.463112	 3.899463	 -0.512777
H	 -0.069847	 4.428996	 -1.196248
H	 0.997462	 3.385342	 -2.128561

	symmetry c1
}
set optking {
	frozen_dihedral = ("
		4 2 3 6
	")
}

ee = optimize('scf')
oeprop('DIPOLE', 'QUADRUPOLE', 'MULLIKEN_CHARGES')
f=open( 'psi4out.xyz', 'w' )
f.write( "17  " )
f.write( str(ee) + "\n" )
f.write( MOL.save_string_xyz() )
f.close()
--------------------------------------------------------------------------

    Molecular point group: c1
  Charge       = 0
  Multiplicity = 1
  Basis Set: 6-31G*
  Basis Set:
  @DF-RHF Final Energy:  -344.90867151374340
    Total Energy =                       -344.9086715137434567
    Molecular point group: c1
  Basis Set: 6-31G*
  Basis Set:
  Basis Set: 6-31G*
  Basis Set:
  @DF-RHF Final Energy:  -344.90912882655647
    Total Energy =                       -344.9091288265564117
  Basis Set: 6-31G*
  Basis Set:
  Basis Set: 6-31G*
  Basis Set:
  @DF-RHF Final Energy:  -344.90960406347682
    Total Energy =                       -344.9096040634766496
  Basis Set: 6-31G*
  Basis Set:
  Basis Set: 6-31G*
  Basis Set:
  @DF-RHF Final Energy:  -344.90964942965991
    Total Energy =                       -344.9096494296599076
  Basis Set: 6-31G*
  Basis Set:
  Basis Set: 6-31G*
  Basis Set:
  @DF-RHF Final Energy:  -344.90964776985919
    Total Energy =                       -344.9096477698597027
  Basis Set: 6-31G*
  Basis Set:
  Charge       = 0
  Multiplicity = 1
  Basis Set: 6-31G*
  Basis Set:

    Orbital Energies (a.u.)
    -----------------------

    Doubly Occupied:

       1A    -20.603302     2A    -20.540026     3A    -11.371339
       4A    -11.285483     5A    -11.237687     6A    -11.223022
       7A    -11.220869     8A     -1.468189     9A     -1.360104
      10A     -1.072208    11A     -1.030236    12A     -0.905305
      13A     -0.860656    14A     -0.778301    15A     -0.690524
      16A     -0.678004    17A     -0.671309    18A     -0.628400
      19A     -0.577769    20A     -0.571907    21A     -0.552859
      22A     -0.548287    23A     -0.522868    24A     -0.513795
      25A     -0.506142    26A     -0.490962    27A     -0.450793
      28A     -0.430626

  @DF-RHF Final Energy:  -344.90966556292693

   => Energetics <=

    Nuclear Repulsion Energy =            317.5442526432474892
    One-Electron Energy =               -1099.3258914914631532
    Two-Electron Energy =                 436.8719732852888455
    DFT Exchange-Correlation Energy =       0.0000000000000000
    Empirical Dispersion Energy =           0.0000000000000000
    PCM Polarization Energy =               0.0000000000000000
    EFP Energy =                            0.0000000000000000
    Total Energy =                       -344.9096655629267616
    Molecular point group: c1
  Basis Set: 6-31G*
  Basis Set:

  -Total Gradient:
     Atom            X                  Y                   Z
    ------   -----------------  -----------------  -----------------
       1        0.000013444268    -0.000025223517    -0.000007458792
       2       -0.000335397087    -0.000378760158    -0.000545774830
       3        0.000476147175     0.000563914902    -0.000252210772
       4        0.000158813026     0.000270929378     0.000453155617
       5       -0.000001065236    -0.000012398032     0.000007195955
       6       -0.000358891247    -0.000397183085     0.000348337900
       7        0.000014681714    -0.000002428137    -0.000002826998
       8       -0.000003827199    -0.000003036783     0.000004835497
       9        0.000004896966    -0.000004870149    -0.000001700936
      10       -0.000000059584    -0.000000074883    -0.000005802476
      11        0.000028391691    -0.000022412100     0.000015618326
      12        0.000002484392     0.000005325135    -0.000006102353
      13       -0.000006329104     0.000005320927    -0.000005079513
      14       -0.000001618736     0.000000026138     0.000000224905
      15        0.000003821016     0.000003342167    -0.000000056212
      16        0.000001004867    -0.000006196129     0.000001313783
      17        0.000003503078     0.000003724323    -0.000003669098

  **** Optimization is complete! (in 6 steps) ****
    Final optimized geometry and variables:
    Molecular point group: c1

    Geometry (in Angstrom), charge = 0, multiplicity = 1:

    O           -1.444181692550    -0.968652854017     0.632963028588
    C           -0.336811461212    -0.741350529219     0.261716264059
    C            0.771822951089    -1.770960259079     0.268184833435
    O            0.039896373778     0.430803542947    -0.223983799385
    C            2.197035362329    -1.224089656462     0.264295232632
    H            0.604522898637    -2.400998204584    -0.602079116387
    H            0.594153057848    -2.400876112791     1.131325390564
    H            2.395538738050    -0.641603998237    -0.626056486187
    H            2.905594035165    -2.044759267688     0.299372085188
    H            2.378164643110    -0.589567879076     1.124952497842
    C           -0.944342182212     1.457545802180    -0.299791853915
    C           -0.273876105958     2.687188151198    -0.874816486042
    H           -1.337223703970     1.641473007426     0.690593800001
    H           -1.759762965328     1.117240915980    -0.923127810802
    H            0.544494192644     3.010974711963    -0.241820862748
    H           -0.991474269102     3.497774078863    -0.949690263299
    H            0.118805946526     2.484444489533    -1.864765760254

  Mulliken Charges: (a.u.)
   Center  Symbol    Alpha    Beta     Spin     Total
       1     O     4.28904  4.28904  0.00000 -0.57809
       2     C     2.60566  2.60566  0.00000  0.78867
       3     C     3.20683  3.20683  0.00000 -0.41366
       4     O     4.31046  4.31046  0.00000 -0.62093
       5     C     3.23992  3.23992  0.00000 -0.47984
       6     H     0.39973  0.39973  0.00000  0.20055
       7     H     0.39729  0.39729  0.00000  0.20543
       8     H     0.40918  0.40918  0.00000  0.18164
       9     H     0.41638  0.41638  0.00000  0.16725
      10     H     0.41524  0.41524  0.00000  0.16952
      11     C     3.00257  3.00257  0.00000 -0.00514
      12     C     3.24887  3.24887  0.00000 -0.49774
      13     H     0.40931  0.40931  0.00000  0.18138
      14     H     0.40975  0.40975  0.00000  0.18051
      15     H     0.41177  0.41177  0.00000  0.17646
      16     H     0.41599  0.41599  0.00000  0.16802
      17     H     0.41201  0.41201  0.00000  0.17598

   Total alpha = 28.00000, Total beta = 28.00000, Total charge = -0.00000
