                              Psi4 1.0.54 Driver

  ==> Input File <==

--------------------------------------------------------------------------
set {
	reference rhf
	basis cc-pvtz
}

set_num_threads( 4 )
memory 2 gb

molecule MOL {
0 1

H	 -3.258660	 -0.290394	 1.471450
C	 -3.307964	 -0.275695	 0.374072
C	 -2.653809	 0.914422	 -0.273689
O	 -3.855140	 -1.148880	 -0.205112
C	 -3.524744	 1.550768	 -1.360983
H	 -2.394591	 1.627479	 0.498121
H	 -1.729588	 0.555175	 -0.720971
C	 -4.789956	 2.214817	 -0.822038
H	 -2.929125	 2.286482	 -1.890419
H	 -3.793136	 0.795036	 -2.095169
C	 -5.641798	 2.853761	 -1.915610
H	 -4.510717	 2.970879	 -0.092996
H	 -5.387848	 1.484585	 -0.282859
C	 -6.900381	 3.527547	 -1.372262
H	 -5.037082	 3.575553	 -2.455684
H	 -5.927719	 2.092630	 -2.638262
C	 -7.827821	 4.111512	 -2.439380
H	 -6.614724	 4.314215	 -0.677756
H	 -7.459838	 2.800038	 -0.790848
C	 -7.244121	 5.287623	 -3.218572
H	 -8.743922	 4.435874	 -1.955707
H	 -8.114795	 3.326049	 -3.133643
H	 -6.941812	 6.086551	 -2.549005
H	 -6.377675	 4.999038	 -3.801388
H	 -7.976863	 5.694192	 -3.906144

	symmetry c1
}
set optking {
	frozen_dihedral = ("
		6 3 2 4
	")
}

ee,wfn = optimize('scf', return_wfn=True)
oeprop( wfn, 'DIPOLE', 'QUADRUPOLE', 'MULLIKEN_CHARGES')
f=open( 'psi4out.xyz', 'w' )
f.write( "25  " )
f.write( str(ee) + "\n" )
f.write( MOL.save_string_xyz() )
f.close()
--------------------------------------------------------------------------

    Molecular point group: c1
  Charge       = 0
  Multiplicity = 1
  Basis Set: CC-PVTZ
  Basis Set:
  @DF-RHF Final Energy:  -387.25868086857895
    Total Energy =                       -387.2586808685791766
    Molecular point group: c1
  Basis Set: CC-PVTZ
  Basis Set:
  Basis Set: CC-PVTZ
  Basis Set:
  @DF-RHF Final Energy:  -387.25762402517699
    Total Energy =                       -387.2576240251770514
  Basis Set: CC-PVTZ
  Basis Set:
  Basis Set: CC-PVTZ
  Basis Set:
  @DF-RHF Final Energy:  -387.25906104001126
    Total Energy =                       -387.2590610400116020
  Basis Set: CC-PVTZ
  Basis Set:
  Basis Set: CC-PVTZ
  Basis Set:
  @DF-RHF Final Energy:  -387.25915666664355
    Total Energy =                       -387.2591566666440031
  Basis Set: CC-PVTZ
  Basis Set:
  Basis Set: CC-PVTZ
  Basis Set:
  @DF-RHF Final Energy:  -387.25915879933143
    Total Energy =                       -387.2591587993314306
  Basis Set: CC-PVTZ
  Basis Set:
  Charge       = 0
  Multiplicity = 1
  Basis Set: CC-PVTZ
  Basis Set:

    Orbital Energies (a.u.)
    -----------------------

    Doubly Occupied:

       1A    -20.551859     2A    -11.322538     3A    -11.234290
       4A    -11.223677     5A    -11.217116     6A    -11.213616
       7A    -11.213113     8A    -11.212142     9A    -11.206591
      10A     -1.407633    11A     -1.099650    12A     -1.066486
      13A     -1.011510    14A     -0.942533    15A     -0.877336
      16A     -0.821673    17A     -0.779529    18A     -0.766874
      19A     -0.689580    20A     -0.650925    21A     -0.632178
      22A     -0.625639    23A     -0.602511    24A     -0.593285
      25A     -0.573012    26A     -0.547089    27A     -0.532869
      28A     -0.526638    29A     -0.502814    30A     -0.496120
      31A     -0.486885    32A     -0.475100    33A     -0.461811
      34A     -0.455986    35A     -0.439247    36A     -0.412157

  @DF-RHF Final Energy:  -387.25915968144159

   => Energetics <=

    Nuclear Repulsion Energy =            442.5598017547091558
    One-Electron Energy =               -1401.8939078037799391
    Two-Electron Energy =                 572.0749463676290816
    DFT Exchange-Correlation Energy =       0.0000000000000000
    Empirical Dispersion Energy =           0.0000000000000000
    PCM Polarization Energy =               0.0000000000000000
    EFP Energy =                            0.0000000000000000
    Total Energy =                       -387.2591596814417017
    Molecular point group: c1
  Basis Set: CC-PVTZ
  Basis Set:

  -Total Gradient:
     Atom            X                  Y                   Z
    ------   -----------------  -----------------  -----------------
       1       -0.000029628378    -0.000004121640    -0.000101103508
       2       -0.002207170254     0.001314373932     0.000473113790
       3       -0.001464378959     0.000667281262    -0.000119542334
       4        0.001830161239    -0.001110946606    -0.000250556113
       5        0.000014855955     0.000041885967    -0.000008660672
       6        0.001858644168    -0.000867633252     0.000008338584
       7       -0.000006468335     0.000003092891    -0.000017631028
       8        0.000015585423    -0.000005366792     0.000008850079
       9       -0.000008087742    -0.000002751846    -0.000014719086
      10        0.000011350908    -0.000001572700     0.000013760818
      11       -0.000003454990    -0.000004276031    -0.000017810387
      12       -0.000007129738    -0.000022939403    -0.000000642885
      13       -0.000020818712     0.000001086595     0.000004046551
      14        0.000001324825    -0.000000596806     0.000013922020
      15        0.000007897544     0.000003096237    -0.000014697270
      16        0.000001108001    -0.000003138576     0.000010044853
      17       -0.000006686437     0.000013229216     0.000011760696
      18       -0.000007695977    -0.000003407030     0.000007328809
      19       -0.000000938096    -0.000001664423    -0.000007605474
      20        0.000009047498    -0.000010011878    -0.000000837848
      21        0.000002721576     0.000002358209     0.000001660752
      22       -0.000003023841     0.000002633226     0.000003779522
      23       -0.000004686138    -0.000003539581    -0.000001186706
      24        0.000015840864    -0.000003596732     0.000000024040
      25        0.000001629597    -0.000003474246    -0.000001637202

  **** Optimization is complete! (in 6 steps) ****
    Final optimized geometry and variables:
    Molecular point group: c1

    Geometry (in Angstrom), charge = 0, multiplicity = 1:

    H            2.075655550717    -2.466808076737     2.636197378543
    C            1.883425812805    -2.405235089745     1.558864820193
    C            2.469003170295    -1.208991381297     0.843594619333
    O            1.289138978123    -3.272130174871     1.016580949625
    C            1.537056417886    -0.584145967474    -0.194005023634
    H            2.804381783082    -0.480978548506     1.574512034666
    H            3.366381273677    -1.578981239252     0.352549994852
    C            0.322445285476     0.112222726181     0.415614889740
    H            2.106084975103     0.131932187465    -0.778165999463
    H            1.210571219814    -1.358814072057    -0.877105128958
    C           -0.592276588533     0.740201480799    -0.632561345525
    H            0.658977157095     0.882496946190     1.106141866967
    H           -0.248530466448    -0.601208418292     1.003236472078
    C           -1.802810610457     1.443945315100    -0.022261427732
    H           -0.015705209585     1.441091051947    -1.228264370188
    H           -0.934903634262    -0.033499989370    -1.315296189848
    C           -2.792485340440     2.016641272824    -1.038353155182
    H           -1.461914584420     2.242565417781     0.633047057963
    H           -2.331337807478     0.737284909202     0.611539124274
    C           -2.246465168804     3.164313948325    -1.884405864168
    H           -3.669324012841     2.366823325251    -0.502466709085
    H           -3.136267535540     1.219171210732    -1.691688796817
    H           -1.888168261373     3.974384125813    -1.257021848971
    H           -1.425717170873     2.847949798498    -2.516745815522
    H           -3.018335423198     3.565748418691    -2.531036625488

  Mulliken Charges: (a.u.)
   Center  Symbol    Alpha    Beta     Spin     Total
       1     H     0.45447  0.45447  0.00000  0.09107
       2     C     2.91368  2.91368  0.00000  0.17263
       3     C     3.10154  3.10154  0.00000 -0.20308
       4     O     4.16917  4.16917  0.00000 -0.33835
       5     C     3.09503  3.09503  0.00000 -0.19006
       6     H     0.44662  0.44662  0.00000  0.10675
       7     H     0.43723  0.43723  0.00000  0.12555
       8     C     3.09271  3.09271  0.00000 -0.18542
       9     H     0.44600  0.44600  0.00000  0.10801
      10     H     0.44201  0.44201  0.00000  0.11598
      11     C     3.09353  3.09353  0.00000 -0.18707
      12     H     0.45581  0.45581  0.00000  0.08838
      13     H     0.44868  0.44868  0.00000  0.10265
      14     C     3.09512  3.09512  0.00000 -0.19024
      15     H     0.45260  0.45260  0.00000  0.09481
      16     H     0.45142  0.45142  0.00000  0.09716
      17     C     3.09062  3.09062  0.00000 -0.18124
      18     H     0.45491  0.45491  0.00000  0.09017
      19     H     0.44851  0.44851  0.00000  0.10299
      20     C     3.15277  3.15277  0.00000 -0.30553
      21     H     0.44840  0.44840  0.00000  0.10320
      22     H     0.45386  0.45386  0.00000  0.09229
      23     H     0.45534  0.45534  0.00000  0.08932
      24     H     0.45386  0.45386  0.00000  0.09227
      25     H     0.44611  0.44611  0.00000  0.10777

   Total alpha = 36.00000, Total beta = 36.00000, Total charge = -0.00000

*** Psi4 exiting successfully. Buy a developer a beer!
