  ==> Input File <==

--------------------------------------------------------------------------
set {
	reference rhf
	basis 6-31G*
}

set_num_threads( 4 )
memory 2 gb

molecule MOL {
0 1

H	 0.938340	 0.413064	 -1.934308
O	 1.194844	 1.047966	 -1.279359
C	 0.709265	 0.639550	 -0.033818
C	 -0.793441	 0.596080	 0.058728
H	 1.098298	 1.347334	 0.689299
H	 1.112142	 -0.335611	 0.237800
C	 -1.530462	 -0.493172	 -0.025500
H	 -1.268471	 1.554324	 0.202247
H	 -1.092586	 -1.461565	 -0.186463
H	 -2.602122	 -0.450675	 0.050101

	symmetry c1
}
set optking {
	frozen_dihedral = ("
		5 3 4 7
	")
}

ee = optimize('scf')
oeprop('DIPOLE', 'QUADRUPOLE', 'MULLIKEN_CHARGES')
f=open( 'psi4out.xyz', 'w' )
f.write( "10  " )
f.write( str(ee) + "\n" )
f.write( MOL.save_string_xyz() )
f.close()
--------------------------------------------------------------------------

    Molecular point group: c1
  Charge       = 0
  Multiplicity = 1
  Basis Set: 6-31G*
  Basis Set:
  @DF-RHF Final Energy:  -191.91541083877712
    Total Energy =                       -191.9154108387771771
    Molecular point group: c1
  Basis Set: 6-31G*
  Basis Set:
  Basis Set: 6-31G*
  Basis Set:
  @DF-RHF Final Energy:  -191.91640258009937
    Total Energy =                       -191.9164025800993159
  Basis Set: 6-31G*
  Basis Set:
  Basis Set: 6-31G*
  Basis Set:
  @DF-RHF Final Energy:  -191.91647713722989
    Total Energy =                       -191.9164771372299754
  Basis Set: 6-31G*
  Basis Set:
  Basis Set: 6-31G*
  Basis Set:
  @DF-RHF Final Energy:  -191.91649006526893
    Total Energy =                       -191.9164900652688743
  Basis Set: 6-31G*
  Basis Set:
  Charge       = 0
  Multiplicity = 1
  Basis Set: 6-31G*
  Basis Set:

    Orbital Energies (a.u.)
    -----------------------

    Doubly Occupied:

       1A    -20.555512     2A    -11.275773     3A    -11.233533
       4A    -11.230182     5A     -1.362256     6A     -1.064639
       7A     -0.922462     8A     -0.775872     9A     -0.702270
      10A     -0.622802    11A     -0.622147    12A     -0.596060
      13A     -0.532140    14A     -0.488558    15A     -0.441567
      16A     -0.377083

  @DF-RHF Final Energy:  -191.91649056290396

   => Energetics <=

    Nuclear Repulsion Energy =            117.9109601045812497
    One-Electron Energy =                -494.0491836960267733
    Two-Electron Energy =                 184.2217330285415358
    DFT Exchange-Correlation Energy =       0.0000000000000000
    Empirical Dispersion Energy =           0.0000000000000000
    PCM Polarization Energy =               0.0000000000000000
    EFP Energy =                            0.0000000000000000
    Total Energy =                       -191.9164905629039879
    Molecular point group: c1
  Basis Set: 6-31G*
  Basis Set:

  -Total Gradient:
     Atom            X                  Y                   Z
    ------   -----------------  -----------------  -----------------
       1        0.000006909127     0.000009915820    -0.000031676509
       2       -0.000009220972    -0.000041879883    -0.000019859440
       3        0.000073394154    -0.002415338359     0.001212665463
       4        0.000103113502     0.000093868295     0.003468095578
       5       -0.000112069899     0.002047727889    -0.001970613971
       6        0.000009197505    -0.000004877526     0.000004003460
       7       -0.000064003216     0.000305742263    -0.002707171158
       8       -0.000003215246     0.000005630849     0.000005092210
       9       -0.000006710354     0.000004171624     0.000021731666
      10        0.000002605397    -0.000004960970     0.000017732702

  **** Optimization is complete! (in 5 steps) ****
    Final optimized geometry and variables:
    Molecular point group: c1

    Geometry (in Angstrom), charge = 0, multiplicity = 1:

    H            0.840629796318     0.050277558811    -1.575392663369
    O            1.216604626246     0.595958862303    -0.898132872712
    C            0.754578345908     0.149878004397     0.353690301491
    C           -0.749488442034     0.143246364961     0.415407439155
    H            1.161582729139     0.856036322849     1.065378831791
    H            1.147464823327    -0.836857822474     0.585191906571
    C           -1.485752475983    -0.948125727982     0.332471037748
    H           -1.225490828446     1.109766252688     0.452430298683
    H           -1.042058658374    -1.928787628378     0.282431130828
    H           -2.560530564241    -0.909745340213     0.327790216750

  Mulliken Charges: (a.u.)
   Center  Symbol    Alpha    Beta     Spin     Total
       1     H     0.28297  0.28297  0.00000  0.43405
       2     O     4.36709  4.36709  0.00000 -0.73417
       3     C     3.00796  3.00796  0.00000 -0.01591
       4     C     3.08488  3.08488  0.00000 -0.16975
       5     H     0.41222  0.41222  0.00000  0.17556
       6     H     0.42476  0.42476  0.00000  0.15049
       7     C     3.19639  3.19639  0.00000 -0.39279
       8     H     0.40371  0.40371  0.00000  0.19259
       9     H     0.41216  0.41216  0.00000  0.17568
      10     H     0.40787  0.40787  0.00000  0.18426

   Total alpha = 16.00000, Total beta = 16.00000, Total charge =  0.00000
