  ==> Input File <==

--------------------------------------------------------------------------
set {
	reference rhf
	basis 6-31G*
}

set_num_threads( 4 )
memory 2 gb

molecule MOL {
0 1

H	 -0.000158	 1.970498	 0.756846
O	 -0.000074	 1.880206	 -0.189275
C	 -0.000015	 0.544847	 -0.545111
C	 -1.278788	 -0.123820	 -0.051541
C	 1.278802	 -0.123718	 -0.051505
H	 -0.000001	 0.490777	 -1.623619
F	 -1.223706	 -0.273515	 1.254638
F	 -2.352649	 0.582139	 -0.335802
F	 -1.419765	 -1.324547	 -0.590036
F	 2.323327	 0.466644	 -0.591854
F	 1.326242	 -1.401483	 -0.363667
F	 1.388946	 -0.015632	 1.262939

	symmetry c1
}
set optking {
	frozen_dihedral = ("
		7 4 3 6
	")
}

ee = optimize('scf')
oeprop('DIPOLE', 'QUADRUPOLE', 'MULLIKEN_CHARGES')
f=open( 'psi4out.xyz', 'w' )
f.write( "12  " )
f.write( str(ee) + "\n" )
f.write( MOL.save_string_xyz() )
f.close()
--------------------------------------------------------------------------

    Molecular point group: c1
  Charge       = 0
  Multiplicity = 1
  Basis Set: 6-31G*
  Basis Set:
  @DF-RHF Final Energy:  -786.27651727203283
    Total Energy =                       -786.2765172720323790
    Molecular point group: c1
  Basis Set: 6-31G*
  Basis Set:
  Basis Set: 6-31G*
  Basis Set:
  @DF-RHF Final Energy:  -786.27724500573163
    Total Energy =                       -786.2772450057311744
  Basis Set: 6-31G*
  Basis Set:
  Basis Set: 6-31G*
  Basis Set:
  @DF-RHF Final Energy:  -786.27748920114652
    Total Energy =                       -786.2774892011465226
  Basis Set: 6-31G*
  Basis Set:
  Basis Set: 6-31G*
  Basis Set:
  @DF-RHF Final Energy:  -786.27755106681218
    Total Energy =                       -786.2775510668122934
  Basis Set: 6-31G*
  Basis Set:
  Basis Set: 6-31G*
  Basis Set:
  @DF-RHF Final Energy:  -786.27755725477175
    Total Energy =                       -786.2775572547720913
  Basis Set: 6-31G*
  Basis Set:
  Basis Set: 6-31G*
  Basis Set:
  @DF-RHF Final Energy:  -786.27755871274564
    Total Energy =                       -786.2775587127456447
  Basis Set: 6-31G*
  Basis Set:
  Charge       = 0
  Multiplicity = 1
  Basis Set: 6-31G*
  Basis Set:

    Orbital Energies (a.u.)
    -----------------------

    Doubly Occupied:

       1A    -26.363348     2A    -26.363019     3A    -26.361772
       4A    -26.359306     5A    -26.358794     6A    -26.358219
       7A    -20.617699     8A    -11.526484     9A    -11.524691
      10A    -11.349285    11A     -1.764691    12A     -1.758307
      13A     -1.661640    14A     -1.658361    15A     -1.655987
      16A     -1.655289    17A     -1.436064    18A     -1.102258
      19A     -0.996432    20A     -0.938169    21A     -0.863945
      22A     -0.862437    23A     -0.851668    24A     -0.844306
      25A     -0.831697    26A     -0.815332    27A     -0.742164
      28A     -0.727452    29A     -0.724992    30A     -0.718131
      31A     -0.688893    32A     -0.686521    33A     -0.683543
      34A     -0.673880    35A     -0.669919    36A     -0.662078
      37A     -0.657315    38A     -0.653764    39A     -0.620318
      40A     -0.550837    41A     -0.505999

  @DF-RHF Final Energy:  -786.27755890600292

   => Energetics <=

    Nuclear Repulsion Energy =            670.8168389370339355
    One-Electron Energy =               -2428.4987796029590754
    Two-Electron Energy =                 971.4043817599226713
    DFT Exchange-Correlation Energy =       0.0000000000000000
    Empirical Dispersion Energy =           0.0000000000000000
    PCM Polarization Energy =               0.0000000000000000
    EFP Energy =                            0.0000000000000000
    Total Energy =                       -786.2775589060024686
    Molecular point group: c1
  Basis Set: 6-31G*
  Basis Set:

  -Total Gradient:
     Atom            X                  Y                   Z
    ------   -----------------  -----------------  -----------------
       1       -0.000002957468     0.000001667542     0.000001441629
       2       -0.000003257112     0.000010391524    -0.000003900134
       3       -0.001078401783     0.001777041126    -0.000166786113
       4       -0.000841178938     0.001800157587     0.000351482229
       5        0.000004689402    -0.000013831126    -0.000004860236
       6        0.001103636986    -0.001895400586     0.000090312728
       7        0.000832199925    -0.001636137108    -0.000247853170
       8       -0.000000024064    -0.000024984761    -0.000015848728
       9        0.000000458614    -0.000017454952     0.000003864075
      10        0.000005427870     0.000006045101     0.000009521543
      11       -0.000024535877    -0.000013816063    -0.000009933321
      12        0.000003942438     0.000006321715    -0.000007440504

  **** Optimization is complete! (in 7 steps) ****
    Final optimized geometry and variables:
    Molecular point group: c1

    Geometry (in Angstrom), charge = 0, multiplicity = 1:

    H            0.036829728250     1.976065858025     0.798117060248
    O           -0.011115440672     1.900798966917    -0.147996712632
    C           -0.009110285325     0.573674188836    -0.528052811603
    C           -1.275805185790    -0.136473702685    -0.058128065195
    C            1.272351633725    -0.100945504861    -0.046070635710
    H           -0.000663494073     0.530240519345    -1.607086495034
    F           -1.270236558798    -0.321626314903     1.251979733018
    F           -2.334602584396     0.580336204296    -0.362630004048
    F           -1.401679351049    -1.315611911068    -0.633444042386
    F            2.308994334035     0.414209983178    -0.672775746439
    F            1.263949281647    -1.398875964622    -0.266668109922
    F            1.448950241091     0.095925791529     1.250402261048

  Mulliken Charges: (a.u.)
   Center  Symbol    Alpha    Beta     Spin     Total
       1     H     0.26597  0.26597  0.00000  0.46806
       2     O     4.36164  4.36164  0.00000 -0.72328
       3     C     3.04629  3.04629  0.00000 -0.09259
       4     C     2.44787  2.44787  0.00000  1.10426
       5     C     2.44513  2.44513  0.00000  1.10974
       6     H     0.37528  0.37528  0.00000  0.24944
       7     F     4.67959  4.67959  0.00000 -0.35918
       8     F     4.67330  4.67330  0.00000 -0.34660
       9     F     4.67533  4.67533  0.00000 -0.35066
      10     F     4.67525  4.67525  0.00000 -0.35050
      11     F     4.67365  4.67365  0.00000 -0.34730
      12     F     4.68070  4.68070  0.00000 -0.36141

   Total alpha = 41.00000, Total beta = 41.00000, Total charge = -0.00000
