  ==> Input File <==

--------------------------------------------------------------------------
set {
	reference rhf
	basis 6-31G*
}

set_num_threads( 4 )
memory 2 gb

molecule MOL {
0 1

H	 2.253949	 -1.080892	 1.794605
O	 1.656152	 -1.265405	 1.076705
C	 0.679782	 -0.359119	 1.107994
C	 -0.318135	 -0.576402	 0.000164
O	 0.639890	 0.499317	 1.928050
C	 -1.454360	 0.441875	 -0.000474
H	 0.229729	 -0.556503	 -0.938160
H	 -0.697189	 -1.590027	 0.099598
C	 -2.826123	 -0.230780	 0.000056
H	 -1.357605	 1.085198	 -0.868380
H	 -1.357504	 1.086451	 0.866496
H	 -2.959731	 -0.858053	 -0.876869
H	 -3.619374	 0.509403	 -0.000080
H	 -2.959371	 -0.857318	 0.877556

	symmetry c1
}
set optking {
	frozen_dihedral = ("
		7 4 6 10
	")
}

ee = optimize('scf')
oeprop('DIPOLE', 'QUADRUPOLE', 'MULLIKEN_CHARGES')
f=open( 'psi4out.xyz', 'w' )
f.write( "14  " )
f.write( str(ee) + "\n" )
f.write( MOL.save_string_xyz() )
f.close()
--------------------------------------------------------------------------

    Molecular point group: c1
  Charge       = 0
  Multiplicity = 1
  Basis Set: 6-31G*
  Basis Set:
  @DF-RHF Final Energy:  -305.87584032133202
    Total Energy =                       -305.8758403213320207
    Molecular point group: c1
  Basis Set: 6-31G*
  Basis Set:
  Basis Set: 6-31G*
  Basis Set:
  @DF-RHF Final Energy:  -305.87613273573959
    Total Energy =                       -305.8761327357395317
  Basis Set: 6-31G*
  Basis Set:
  Basis Set: 6-31G*
  Basis Set:
  @DF-RHF Final Energy:  -305.87606088165364
    Total Energy =                       -305.8760608816535296
  Basis Set: 6-31G*
  Basis Set:
  Basis Set: 6-31G*
  Basis Set:
  @DF-RHF Final Energy:  -305.87624021232375
    Total Energy =                       -305.8762402123237507
  Basis Set: 6-31G*
  Basis Set:
  Basis Set: 6-31G*
  Basis Set:
  @DF-RHF Final Energy:  -305.87624143868248
    Total Energy =                       -305.8762414386824275
  Basis Set: 6-31G*
  Basis Set:
  Charge       = 0
  Multiplicity = 1
  Basis Set: 6-31G*
  Basis Set:

    Orbital Energies (a.u.)
    -----------------------

    Doubly Occupied:

       1A    -20.613264     2A    -20.552865     3A    -11.382509
       4A    -11.241265     5A    -11.223766     6A    -11.215845
       7A     -1.475690     8A     -1.366610     9A     -1.079618
      10A     -0.979463    11A     -0.857646    12A     -0.789989
      13A     -0.701116    14A     -0.692102    15A     -0.660442
      16A     -0.613525    17A     -0.595961    18A     -0.568107
      19A     -0.554497    20A     -0.496132    21A     -0.490582
      22A     -0.482371    23A     -0.477105    24A     -0.446371

  @DF-RHF Final Energy:  -305.87624215341680

   => Energetics <=

    Nuclear Repulsion Energy =            240.4082406055160845
    One-Electron Energy =                -893.4552832329306966
    Two-Electron Energy =                 347.1708004739977582
    DFT Exchange-Correlation Energy =       0.0000000000000000
    Empirical Dispersion Energy =           0.0000000000000000
    PCM Polarization Energy =               0.0000000000000000
    EFP Energy =                            0.0000000000000000
    Total Energy =                       -305.8762421534168539
    Molecular point group: c1
  Basis Set: 6-31G*
  Basis Set:

  -Total Gradient:
     Atom            X                  Y                   Z
    ------   -----------------  -----------------  -----------------
       1        0.000021602480    -0.000012101947    -0.000000649045
       2        0.000004805178     0.000009316156     0.000043969924
       3       -0.000030404539     0.000004112277    -0.000043896943
       4       -0.001210279607    -0.001358359530    -0.000731679879
       5        0.000011705533     0.000002148780    -0.000013342314
       6        0.001092765367     0.001216723494     0.000944871982
       7        0.000807999247     0.000917143844     0.000468503650
       8        0.000009194135     0.000010162591    -0.000019902207
       9        0.000008773780     0.000008295299    -0.000005817254
      10       -0.000723072149    -0.000815829403    -0.000648727465
      11        0.000001245425     0.000005887993     0.000006535437
      12        0.000009263090    -0.000000478001     0.000009008645
      13       -0.000008043562     0.000004651414    -0.000003125807
      14        0.000004445617     0.000008327034    -0.000005748728

  **** Optimization is complete! (in 6 steps) ****
    Final optimized geometry and variables:
    Molecular point group: c1

    Geometry (in Angstrom), charge = 0, multiplicity = 1:

    H            2.515067202064    -0.821043780732     1.054667653553
    O            1.905484549004    -0.996903202015     0.344628474140
    C            0.926811279732    -0.094293206632     0.406300408079
    C           -0.086160996749    -0.312021916215    -0.691761707659
    O            0.902207431760     0.750776712248     1.240625075958
    C           -1.238839340192     0.705920591970    -0.703608239818
    H            0.470334316222    -0.302862410361    -1.623608214997
    H           -0.449151056772    -1.329248940763    -0.577606660643
    C           -2.615782762839     0.040730418355    -0.725199179080
    H           -1.144435141057     1.344013277039    -1.576258725124
    H           -1.157819496899     1.347595946927     0.163632274569
    H           -2.734968050856    -0.597396595388    -1.596416139120
    H           -3.404840225870     0.785267679262    -0.750560468113
    H           -2.767450654631    -0.572440280911     0.158529998395

  Mulliken Charges: (a.u.)
   Center  Symbol    Alpha    Beta     Spin     Total
       1     H     0.26754  0.26754  0.00000  0.46493
       2     O     4.34941  4.34941  0.00000 -0.69883
       3     C     2.63050  2.63050  0.00000  0.73901
       4     C     3.21194  3.21194  0.00000 -0.42389
       5     O     4.27819  4.27819  0.00000 -0.55638
       6     C     3.16134  3.16134  0.00000 -0.32268
       7     H     0.39535  0.39535  0.00000  0.20929
       8     H     0.39580  0.39580  0.00000  0.20840
       9     C     3.24323  3.24323  0.00000 -0.48646
      10     H     0.41676  0.41676  0.00000  0.16648
      11     H     0.39294  0.39294  0.00000  0.21413
      12     H     0.42157  0.42157  0.00000  0.15686
      13     H     0.41618  0.41618  0.00000  0.16764
      14     H     0.41926  0.41926  0.00000  0.16149

   Total alpha = 24.00000, Total beta = 24.00000, Total charge =  0.00000
