  ==> Input File <==

--------------------------------------------------------------------------
set {
	reference rhf
	basis 6-31G*
}

set_num_threads( 4 )
memory 2 gb

molecule MOL {
0 1

H	 -2.179416	 -0.771001	 -1.241738
O	 -2.310168	 -0.871793	 -0.309793
C	 -2.026376	 0.340750	 0.341611
C	 -0.673256	 0.843270	 -0.132153
H	 -2.792215	 1.080697	 0.115987
H	 -2.013526	 0.200402	 1.421792
C	 0.486613	 -0.083066	 0.235839
H	 -0.715586	 0.970948	 -1.210718
H	 -0.508072	 1.829858	 0.297090
C	 1.840406	 0.433480	 -0.254303
H	 0.300215	 -1.068318	 -0.178947
H	 0.519509	 -0.203625	 1.318070
C	 3.000220	 -0.489290	 0.118523
H	 1.809207	 0.553576	 -1.335192
H	 2.021860	 1.424500	 0.157276
H	 2.864959	 -1.479103	 -0.307933
H	 3.946603	 -0.099227	 -0.243630
H	 3.080049	 -0.602997	 1.196117

	symmetry c1
}
set optking {
	frozen_dihedral = ("
		1 2 3 4
	")
}

ee = optimize('scf')
oeprop('DIPOLE', 'QUADRUPOLE', 'MULLIKEN_CHARGES')
f=open( 'psi4out.xyz', 'w' )
f.write( "18  " )
f.write( str(ee) + "\n" )
f.write( MOL.save_string_xyz() )
f.close()
--------------------------------------------------------------------------

    Molecular point group: c1
  Charge       = 0
  Multiplicity = 1
  Basis Set: 6-31G*
  Basis Set:
  @DF-RHF Final Energy:  -271.17747564343682
    Total Energy =                       -271.1774756434366509
    Molecular point group: c1
  Basis Set: 6-31G*
  Basis Set:
  Basis Set: 6-31G*
  Basis Set:
  @DF-RHF Final Energy:  -271.17906372794334
    Total Energy =                       -271.1790637279433440
  Basis Set: 6-31G*
  Basis Set:
  Basis Set: 6-31G*
  Basis Set:
  @DF-RHF Final Energy:  -271.17948617053901
    Total Energy =                       -271.1794861705390076
  Basis Set: 6-31G*
  Basis Set:
  Basis Set: 6-31G*
  Basis Set:
  @DF-RHF Final Energy:  -271.17948883271583
    Total Energy =                       -271.1794888327157764
  Basis Set: 6-31G*
  Basis Set:
  Basis Set: 6-31G*
  Basis Set:
  @DF-RHF Final Energy:  -271.17949069557392
    Total Energy =                       -271.1794906955741453
  Basis Set: 6-31G*
  Basis Set:
  Charge       = 0
  Multiplicity = 1
  Basis Set: 6-31G*
  Basis Set:

    Orbital Energies (a.u.)
    -----------------------

    Doubly Occupied:

       1A    -20.553116     2A    -11.267686     3A    -11.220413
       4A    -11.216980     5A    -11.214182     6A    -11.209195
       7A     -1.359968     8A     -1.080553     9A     -1.011834
      10A     -0.917938    11A     -0.831436    12A     -0.794567
      13A     -0.673388    14A     -0.653614    15A     -0.621671
      16A     -0.610408    17A     -0.575056    18A     -0.553929
      19A     -0.540017    20A     -0.495405    21A     -0.485530
      22A     -0.479884    23A     -0.465494    24A     -0.460047
      25A     -0.423791

  @DF-RHF Final Energy:  -271.17949083504425

   => Energetics <=

    Nuclear Repulsion Energy =            248.8689591881290255
    One-Electron Energy =                -860.6646975368159929
    Two-Electron Energy =                 340.6162475136425201
    DFT Exchange-Correlation Energy =       0.0000000000000000
    Empirical Dispersion Energy =           0.0000000000000000
    PCM Polarization Energy =               0.0000000000000000
    EFP Energy =                            0.0000000000000000
    Total Energy =                       -271.1794908350444757
    Molecular point group: c1
  Basis Set: 6-31G*
  Basis Set:

  -Total Gradient:
     Atom            X                  Y                   Z
    ------   -----------------  -----------------  -----------------
       1        0.001482595037    -0.000501130713     0.000168797156
       2       -0.002004119820     0.000822914306    -0.000549475043
       3        0.000954709837    -0.000817930139     0.001144779916
       4       -0.000449891590     0.000480141630    -0.000772038138
       5        0.000002984081    -0.000000389788    -0.000004782362
       6        0.000003959362     0.000010352416     0.000005961966
       7        0.000003148818     0.000006094580    -0.000000215035
       8        0.000006469516    -0.000003449581     0.000007388057
       9        0.000002049786     0.000009325571     0.000003186860
      10       -0.000003192740    -0.000006019802    -0.000009652682
      11        0.000001847446     0.000002713100     0.000002351573
      12        0.000001980503    -0.000004461595    -0.000001092764
      13       -0.000000715225     0.000005046535     0.000009347804
      14       -0.000002953132    -0.000001309041    -0.000002050381
      15        0.000001320851    -0.000002350860    -0.000002762224
      16       -0.000000177862     0.000002743437    -0.000003003036
      17        0.000000283471     0.000001951308     0.000002366658
      18       -0.000000298341    -0.000004241364     0.000000891675

  **** Optimization is complete! (in 6 steps) ****
    Final optimized geometry and variables:
    Molecular point group: c1

    Geometry (in Angstrom), charge = 0, multiplicity = 1:

    H           -2.258408096303    -0.841646602873    -1.193329777682
    O           -2.380648656068    -0.892665606397    -0.255286840088
    C           -2.030416467385     0.336754748774     0.327201708340
    C           -0.667489837455     0.849811639976    -0.123996876187
    H           -2.791936089013     1.084598259189     0.112082724945
    H           -2.034907967645     0.169098418476     1.397086742954
    C            0.490624519509    -0.081376743824     0.238122936053
    H           -0.688571331335     1.008958137830    -1.202883982842
    H           -0.506680036643     1.829795955765     0.321251887013
    C            1.848776721320     0.433662075877    -0.241357443573
    H            0.305774180027    -1.066274360210    -0.180727970392
    H            0.516165121838    -0.211529364507     1.318706229614
    C            3.003159039521    -0.496016086891     0.130978680347
    H            1.824824517980     0.563039049852    -1.321630317189
    H            2.030759297208     1.420703104781     0.178933989122
    H            2.867383147695    -1.482344346016    -0.303432685600
    H            3.952546719435    -0.106139277148    -0.222955718311
    H            3.076230488670    -0.617873248379     1.207933182328

  Mulliken Charges: (a.u.)
   Center  Symbol    Alpha    Beta     Spin     Total
       1     H     0.28347  0.28347  0.00000  0.43307
       2     O     4.36948  4.36948  0.00000 -0.73895
       3     C     2.99030  2.99030  0.00000  0.01940
       4     C     3.17575  3.17575  0.00000 -0.35151
       5     H     0.42804  0.42804  0.00000  0.14392
       6     H     0.41693  0.41693  0.00000  0.16613
       7     C     3.15029  3.15029  0.00000 -0.30058
       8     H     0.42785  0.42785  0.00000  0.14430
       9     H     0.42035  0.42035  0.00000  0.15930
      10     C     3.15155  3.15155  0.00000 -0.30309
      11     H     0.41485  0.41485  0.00000  0.17030
      12     H     0.42257  0.42257  0.00000  0.15485
      13     C     3.23910  3.23910  0.00000 -0.47820
      14     H     0.42427  0.42427  0.00000  0.15147
      15     H     0.42364  0.42364  0.00000  0.15273
      16     H     0.42101  0.42101  0.00000  0.15799
      17     H     0.41946  0.41946  0.00000  0.16108
      18     H     0.42111  0.42111  0.00000  0.15778

   Total alpha = 25.00000, Total beta = 25.00000, Total charge =  0.00000
