  ==> Input File <==

--------------------------------------------------------------------------
set {
	reference rhf
	basis 6-31G*
}

set_num_threads( 4 )
memory 2 gb

molecule MOL {
0 1

H	 2.652209	 0.763231	 0.000000
O	 2.263154	 -0.100023	 0.000000
C	 0.912879	 -0.015685	 0.000000
C	 0.300862	 0.444974	 1.158365
C	 0.146169	 -0.368416	 -1.098554
H	 0.913680	 0.713186	 1.998797
C	 -1.075703	 0.548597	 1.206745
H	 0.621659	 -0.725677	 -1.996772
C	 -1.235396	 -0.259353	 -1.036114
H	 -1.544900	 0.905888	 2.106124
C	 -1.855221	 0.198067	 0.112033
H	 -1.823319	 -0.535260	 -1.893384
H	 -2.925638	 0.281368	 0.157122

	symmetry c1
}
set optking {
	frozen_dihedral = ("
		4 3 2 1
	")
}

ee = optimize('scf')
oeprop('DIPOLE', 'QUADRUPOLE', 'MULLIKEN_CHARGES')
f=open( 'psi4out.xyz', 'w' )
f.write( "13  " )
f.write( str(ee) + "\n" )
f.write( MOL.save_string_xyz() )
f.close()
--------------------------------------------------------------------------

    Molecular point group: c1
  Charge       = 0
  Multiplicity = 1
  Basis Set: 6-31G*
  Basis Set:
  @DF-RHF Final Energy:  -305.55262137502064
    Total Energy =                       -305.5526213750206352
    Molecular point group: c1
  Basis Set: 6-31G*
  Basis Set:
  Basis Set: 6-31G*
  Basis Set:
  @DF-RHF Final Energy:  -305.55381042255436
    Total Energy =                       -305.5538104225544203
  Basis Set: 6-31G*
  Basis Set:
  Basis Set: 6-31G*
  Basis Set:
  @DF-RHF Final Energy:  -305.55388785112098
    Total Energy =                       -305.5538878511209191
  Basis Set: 6-31G*
  Basis Set:
  Basis Set: 6-31G*
  Basis Set:
  @DF-RHF Final Energy:  -305.55389629365175
    Total Energy =                       -305.5538962936516896
  Basis Set: 6-31G*
  Basis Set:
  Charge       = 0
  Multiplicity = 1
  Basis Set: 6-31G*
  Basis Set:

    Orbital Energies (a.u.)
    -----------------------

    Doubly Occupied:

       1A    -20.577941     2A    -11.289550     3A    -11.235057
       4A    -11.234237     5A    -11.227549     6A    -11.227105
       7A    -11.225379     8A     -1.393086     9A     -1.147497
      10A     -1.017951    11A     -1.003536    12A     -0.836362
      13A     -0.822985    14A     -0.732232    15A     -0.680183
      16A     -0.645584    17A     -0.626241    18A     -0.591555
      19A     -0.588479    20A     -0.524282    21A     -0.513475
      22A     -0.491897    23A     -0.467889    24A     -0.336631
      25A     -0.322244

  @DF-RHF Final Energy:  -305.55389781858668

   => Energetics <=

    Nuclear Repulsion Energy =            272.6809661320791633
    One-Electron Energy =                -954.9518725476212921
    Two-Electron Energy =                 376.7170085969555657
    DFT Exchange-Correlation Energy =       0.0000000000000000
    Empirical Dispersion Energy =           0.0000000000000000
    PCM Polarization Energy =               0.0000000000000000
    EFP Energy =                            0.0000000000000000
    Total Energy =                       -305.5538978185866199
    Molecular point group: c1
  Basis Set: 6-31G*
  Basis Set:

  -Total Gradient:
     Atom            X                  Y                   Z
    ------   -----------------  -----------------  -----------------
       1       -0.000058853992     0.000053340708    -0.001488606127
       2        0.000158512255    -0.000597451329     0.002041108064
       3       -0.000119593084     0.001504948619    -0.001085505434
       4       -0.000047296403    -0.001007752623     0.000442533030
       5        0.000167348449    -0.000002273720     0.000032433822
       6       -0.000043653972    -0.000009941124    -0.000021792927
       7        0.000051171268     0.000041054408     0.000007330177
       8        0.000048150876    -0.000001041628     0.000014636747
       9       -0.000132552905     0.000077280085     0.000064738032
      10       -0.000048494019    -0.000008208392    -0.000001035587
      11        0.000008245253    -0.000067600532    -0.000080297333
      12        0.000019077669     0.000001643939     0.000016740540
      13       -0.000002061397     0.000016001590     0.000057716998

  **** Optimization is complete! (in 5 steps) ****
    Final optimized geometry and variables:
    Molecular point group: c1

    Geometry (in Angstrom), charge = 0, multiplicity = 1:

    H            2.683578689631     0.654112905807    -0.082381104409
    O            2.266255636661    -0.196680728401    -0.091783829474
    C            0.905217893296    -0.057561235910    -0.036481639679
    C            0.287885720223     0.386751809451     1.121947093257
    C            0.148033902881    -0.422763200123    -1.136085590427
    H            0.889207013289     0.643927869272     1.975586964039
    C           -1.093011334051     0.484126951405     1.169228192176
    H            0.648009300656    -0.776927256326    -2.018640077466
    C           -1.233512502156    -0.331917844148    -1.077757426693
    H           -1.570430981143     0.831911398045     2.067985498867
    C           -1.858898777183     0.125176994212     0.071178236977
    H           -1.820332272435    -0.616955134345    -1.932691338916
    H           -2.930737907551     0.196760549736     0.112907527045

  Mulliken Charges: (a.u.)
   Center  Symbol    Alpha    Beta     Spin     Total
       1     H     0.27173  0.27173  0.00000  0.45654
       2     O     4.38685  4.38685  0.00000 -0.77370
       3     C     2.81720  2.81720  0.00000  0.36560
       4     C     3.12290  3.12290  0.00000 -0.24580
       5     C     3.11709  3.11709  0.00000 -0.23419
       6     H     0.39688  0.39688  0.00000  0.20624
       7     C     3.09615  3.09615  0.00000 -0.19231
       8     H     0.39283  0.39283  0.00000  0.21434
       9     C     3.09643  3.09643  0.00000 -0.19285
      10     H     0.39816  0.39816  0.00000  0.20368
      11     C     3.10614  3.10614  0.00000 -0.21227
      12     H     0.39801  0.39801  0.00000  0.20398
      13     H     0.39963  0.39963  0.00000  0.20073

   Total alpha = 25.00000, Total beta = 25.00000, Total charge = -0.00000
