  ==> Input File <==

--------------------------------------------------------------------------
set {
	reference rhf
	basis 6-31G*
}

set_num_threads( 1 )
memory 2 gb

molecule MOL {
0 1

H	 2.572730	 -1.384834	 2.535158
O	 2.134767	 -1.430363	 1.690842
C	 1.360684	 -0.352339	 1.568059
C	 0.624473	 -0.343591	 0.253101
O	 1.290911	 0.474927	 2.417634
C	 -0.265902	 0.883932	 0.072916
H	 1.372093	 -0.423985	 -0.529186
H	 0.043252	 -1.260925	 0.203778
C	 -1.728698	 0.646073	 0.462102
H	 -0.209144	 1.219470	 -0.958188
H	 0.135059	 1.692851	 0.673903
C	 -2.482460	 -0.343073	 -0.431425
H	 -2.245265	 1.602650	 0.432430
H	 -1.779332	 0.308348	 1.496285
C	 -3.960546	 -0.461025	 -0.060175
H	 -2.395034	 -0.026811	 -1.468912
H	 -2.024850	 -1.327147	 -0.371646
H	 -4.472726	 -1.168004	 -0.705284
H	 -4.465146	 0.496508	 -0.151489
H	 -4.081218	 -0.800940	 0.964585

	symmetry c1
}
set optking {
	frozen_dihedral = ("
		16 12 9 6,
		12 9 6 10,
		5 3 4 7,
		1 2 3 5
	")
}

ee = energy('scf')
oeprop('DIPOLE', 'QUADRUPOLE', 'MULLIKEN_CHARGES')
f=open( 'psi4out.xyz', 'w' )
f.write( "20  " )
f.write( str(ee) + "\n" )
f.write( MOL.save_string_xyz() )
f.close()
--------------------------------------------------------------------------

    Molecular point group: c1

    Geometry (in Angstrom), charge = 0, multiplicity = 1:

       Center              X                  Y                   Z               Mass
    ------------   -----------------  -----------------  -----------------  -----------------
           H          2.920090203197    -1.246971380153     1.757894093871     1.007825032070
           O          2.482127203197    -1.292500380153     0.913578093871    15.994914619560
           C          1.708044203197    -0.214476380153     0.790795093871    12.000000000000
           C          0.971833203197    -0.205728380153    -0.524162906129    12.000000000000
           O          1.638271203197     0.612789619847     1.640370093871    15.994914619560
           C          0.081458203197     1.021794619847    -0.704347906129    12.000000000000
           H          1.719453203197    -0.286122380153    -1.306449906129     1.007825032070
           H          0.390612203197    -1.123062380153    -0.573485906129     1.007825032070
           C         -1.381337796803     0.783935619847    -0.315161906129    12.000000000000
           H          0.138216203197     1.357332619847    -1.735451906129     1.007825032070
           H          0.482419203197     1.830713619847    -0.103360906129     1.007825032070
           C         -2.135099796803    -0.205210380153    -1.208688906129    12.000000000000
           H         -1.897904796803     1.740512619847    -0.344833906129     1.007825032070
           H         -1.431971796803     0.446210619847     0.719021093871     1.007825032070
           C         -3.613185796803    -0.323162380153    -0.837438906129    12.000000000000
           H         -2.047673796803     0.111051619847    -2.246175906129     1.007825032070
           H         -1.677489796803    -1.189284380153    -1.148909906129     1.007825032070
           H         -4.125365796803    -1.030141380153    -1.482547906129     1.007825032070
           H         -4.117785796803     0.634370619847    -0.928752906129     1.007825032070
           H         -3.733857796803    -0.663077380153     0.187321093871     1.007825032070

  Charge       = 0
  Multiplicity = 1
  Basis Set: 6-31G*
  Basis Set:

    Orbital Energies (a.u.)
    -----------------------

    Doubly Occupied:

       1A    -20.613192     2A    -20.552403     3A    -11.381527
       4A    -11.238956     5A    -11.220414     6A    -11.218931
       7A    -11.216754     8A    -11.211006     9A     -1.475263
      10A     -1.366546    11A     -1.095048    12A     -1.039425
      13A     -0.958863    14A     -0.869718    15A     -0.816510
      16A     -0.773547    17A     -0.701515    18A     -0.691499
      19A     -0.662710    20A     -0.635156    21A     -0.599274
      22A     -0.594101    23A     -0.574738    24A     -0.555268
      25A     -0.536389    26A     -0.509295    27A     -0.500415
      28A     -0.480966    29A     -0.465155    30A     -0.464191
      31A     -0.454715    32A     -0.445465

  @DF-RHF Final Energy:  -383.94546850958289

   => Energetics <=

    Nuclear Repulsion Energy =            381.3289843075995691
    One-Electron Energy =               -1278.7110428877008417
    Two-Electron Energy =                 513.4365900705178092
    DFT Exchange-Correlation Energy =       0.0000000000000000
    Empirical Dispersion Energy =           0.0000000000000000
    PCM Polarization Energy =               0.0000000000000000
    EFP Energy =                            0.0000000000000000
    Total Energy =                       -383.9454685095835202

  Mulliken Charges: (a.u.)
   Center  Symbol    Alpha    Beta     Spin     Total
       1     H     0.26777  0.26777  0.00000  0.46446
       2     O     4.35059  4.35059  0.00000 -0.70118
       3     C     2.62596  2.62596  0.00000  0.74808
       4     C     3.21403  3.21403  0.00000 -0.42807
       5     O     4.27902  4.27902  0.00000 -0.55803
       6     C     3.16295  3.16295  0.00000 -0.32590
       7     H     0.39514  0.39514  0.00000  0.20971
       8     H     0.39610  0.39610  0.00000  0.20780
       9     C     3.15619  3.15619  0.00000 -0.31237
      10     H     0.41860  0.41860  0.00000  0.16281
      11     H     0.39660  0.39660  0.00000  0.20680
      12     C     3.15434  3.15434  0.00000 -0.30867
      13     H     0.41895  0.41895  0.00000  0.16209
      14     H     0.41763  0.41763  0.00000  0.16474
      15     C     3.23890  3.23890  0.00000 -0.47780
      16     H     0.42285  0.42285  0.00000  0.15431
      17     H     0.42413  0.42413  0.00000  0.15175
      18     H     0.41893  0.41893  0.00000  0.16213
      19     H     0.42060  0.42060  0.00000  0.15880
      20     H     0.42073  0.42073  0.00000  0.15854

   Total alpha = 32.00000, Total beta = 32.00000, Total charge = -0.00000
