  ==> Input File <==

--------------------------------------------------------------------------
set {
	reference rhf
	basis 6-31G*
}

set_num_threads( 4 )
memory 2 gb

molecule MOL {
0 1

H	 -2.628602	 0.651685	 0.778457
C	 -2.540999	 0.103183	 -0.151499
C	 -1.285511	 -0.760778	 -0.160380
H	 -2.520151	 0.826989	 -0.957076
H	 -3.425079	 -0.514753	 -0.269117
C	 -0.000005	 0.033229	 -0.000001
H	 -1.214799	 -1.329267	 -1.085699
H	 -1.322307	 -1.503110	 0.634596
C	 1.290528	 -0.768786	 0.000276
O	 -0.003745	 1.220253	 0.118931
C	 2.545731	 0.095645	 -0.000061
H	 1.275672	 -1.427874	 -0.865626
H	 1.275566	 -1.427086	 0.866768
H	 2.577157	 0.734767	 -0.874036
H	 3.433520	 -0.528139	 0.000137
H	 2.577172	 0.735117	 0.873581

	symmetry c1
}
set optking {
	frozen_dihedral = ("
		3 6 9 12
	")
}

ee = optimize('scf')
oeprop('DIPOLE', 'QUADRUPOLE', 'MULLIKEN_CHARGES')
f=open( 'psi4out.xyz', 'w' )
f.write( "16  " )
f.write( str(ee) + "\n" )
f.write( MOL.save_string_xyz() )
f.close()
--------------------------------------------------------------------------

    Molecular point group: c1
  Charge       = 0
  Multiplicity = 1
  Basis Set: 6-31G*
  Basis Set:
  @DF-RHF Final Energy:  -270.03332510416772
    Total Energy =                       -270.0333251041677158
    Molecular point group: c1
  Basis Set: 6-31G*
  Basis Set:
  Basis Set: 6-31G*
  Basis Set:
  @DF-RHF Final Energy:  -270.03334808251083
    Total Energy =                       -270.0333480825107699
  Basis Set: 6-31G*
  Basis Set:
  Basis Set: 6-31G*
  Basis Set:
  @DF-RHF Final Energy:  -270.03308982872977
    Total Energy =                       -270.0330898287301125
  Basis Set: 6-31G*
  Basis Set:
  Basis Set: 6-31G*
  Basis Set:
  @DF-RHF Final Energy:  -270.03337157306657
    Total Energy =                       -270.0333715730664039
  Basis Set: 6-31G*
  Basis Set:
  Basis Set: 6-31G*
  Basis Set:
  @DF-RHF Final Energy:  -270.03337350493700
    Total Energy =                       -270.0333735049371171
  Basis Set: 6-31G*
  Basis Set:
  Charge       = 0
  Multiplicity = 1
  Basis Set: 6-31G*
  Basis Set:

    Orbital Energies (a.u.)
    -----------------------

    Doubly Occupied:

       1A    -20.551108     2A    -11.323978     3A    -11.234048
       4A    -11.234019     5A    -11.213684     6A    -11.213623
       7A     -1.396503     8A     -1.068227     9A     -1.036268
      10A     -0.915929    11A     -0.845678    12A     -0.724750
      13A     -0.667801    14A     -0.647466    15A     -0.617216
      16A     -0.607718    17A     -0.560223    18A     -0.526318
      19A     -0.524047    20A     -0.510275    21A     -0.503900
      22A     -0.492715    23A     -0.484264    24A     -0.399452

  @DF-RHF Final Energy:  -270.03337365507485

   => Energetics <=

    Nuclear Repulsion Energy =            239.9655237537913877
    One-Electron Energy =                -841.3993802614604647
    Two-Electron Energy =                 331.4004828525940525
    DFT Exchange-Correlation Energy =       0.0000000000000000
    Empirical Dispersion Energy =           0.0000000000000000
    PCM Polarization Energy =               0.0000000000000000
    EFP Energy =                            0.0000000000000000
    Total Energy =                       -270.0333736550750814
    Molecular point group: c1
  Basis Set: 6-31G*
  Basis Set:

  -Total Gradient:
     Atom            X                  Y                   Z
    ------   -----------------  -----------------  -----------------
       1       -0.000001602867     0.000001973656    -0.000001654170
       2       -0.000002048267    -0.000000187360     0.000007837491
       3        0.000013065628     0.000012830364    -0.000133997158
       4        0.000001736775    -0.000001772197     0.000000284263
       5       -0.000000755456    -0.000000348410    -0.000000231962
       6       -0.000034573911    -0.000043950005     0.000215391733
       7        0.000001580196    -0.000007435035    -0.000001817745
       8        0.000000248081     0.000006759202    -0.000001760430
       9        0.000091263990     0.000139335828    -0.000172697527
      10       -0.000000672612     0.000003598857    -0.000003977150
      11        0.000000622484    -0.000002231087    -0.000002548923
      12       -0.000069023160    -0.000104206955     0.000092911191
      13       -0.000001491375    -0.000004284162     0.000006971098
      14        0.000002827190     0.000001465179    -0.000000270334
      15        0.000000865180     0.000000672854    -0.000001995067
      16       -0.000002041876    -0.000002220730    -0.000002445312

  **** Optimization is complete! (in 6 steps) ****
    Final optimized geometry and variables:
    Molecular point group: c1

    Geometry (in Angstrom), charge = 0, multiplicity = 1:

    H           -2.613680971611     0.607263870826     0.881435991356
    C           -2.545062821940     0.095274998701    -0.070964591616
    C           -1.285885549825    -0.760484356984    -0.142378364455
    H           -2.546066024782     0.849249358931    -0.848209480089
    H           -3.428805848288    -0.522687526486    -0.190962439404
    C           -0.000236526450     0.035011391563     0.007754119948
    H           -1.235256483172    -1.290160530177    -1.092100523913
    H           -1.299073166106    -1.534782117331     0.621948490289
    C            1.286888452061    -0.770656879938     0.059324298988
    O           -0.001208704187     1.225739311473     0.081473530118
    C            2.545545713866     0.088844352782     0.060562869724
    H            1.290550201678    -1.465185520159    -0.777998833211
    H            1.247092366332    -1.392619655720     0.952123191177
    H            2.603893223125     0.694212164689    -0.836232381087
    H            3.430345785507    -0.537390276063     0.107693828012
    H            2.555309113274     0.760612043096     0.909693181778

  Mulliken Charges: (a.u.)
   Center  Symbol    Alpha    Beta     Spin     Total
       1     H     0.41187  0.41187  0.00000  0.17625
       2     C     3.23492  3.23492  0.00000 -0.46984
       3     C     3.20542  3.20542  0.00000 -0.41085
       4     H     0.40934  0.40934  0.00000  0.18131
       5     H     0.42006  0.42006  0.00000  0.15988
       6     C     2.73550  2.73550  0.00000  0.52900
       7     H     0.40832  0.40832  0.00000  0.18335
       8     H     0.41021  0.41021  0.00000  0.17959
       9     C     3.20537  3.20537  0.00000 -0.41075
      10     O     4.26424  4.26424  0.00000 -0.52847
      11     C     3.23499  3.23499  0.00000 -0.46997
      12     H     0.41043  0.41043  0.00000  0.17914
      13     H     0.40812  0.40812  0.00000  0.18377
      14     H     0.41222  0.41222  0.00000  0.17557
      15     H     0.42002  0.42002  0.00000  0.15995
      16     H     0.40896  0.40896  0.00000  0.18208

   Total alpha = 24.00000, Total beta = 24.00000, Total charge = -0.00000
