  ==> Input File <==

--------------------------------------------------------------------------
set {
	reference rhf
	basis cc-pvtz
}

set_num_threads( 4 )
memory 2 gb

molecule MOL {
0 1

H	 2.190573	 -0.629143	 -0.208718
O	 1.355408	 -0.529451	 0.208662
C	 0.700177	 0.619554	 -0.266242
C	 -0.713111	 0.588314	 0.266177
H	 0.678680	 0.627133	 -1.351786
H	 1.199747	 1.521489	 0.077736
O	 -1.421673	 -0.521378	 -0.196983
H	 -1.244794	 1.469161	 -0.069059
H	 -0.685100	 0.604721	 1.352683
H	 -1.693059	 -1.033930	 0.544410

	symmetry c1
}
set optking {
	frozen_dihedral = ("
		10 7 4 3
	")
}

ee = optimize('scf')
oeprop('DIPOLE', 'QUADRUPOLE', 'MULLIKEN_CHARGES')
f=open( 'psi4out.xyz', 'w' )
f.write( "10  " )
f.write( str(ee) + "\n" )
f.write( MOL.save_string_xyz() )
f.close()
--------------------------------------------------------------------------

    Molecular point group: c1
  Charge       = 0
  Multiplicity = 1
  Basis Set: CC-PVTZ
  Basis Set:
  @DF-RHF Final Energy:  -229.02335656831463
    Total Energy =                       -229.0233565683145684
    Molecular point group: c1
  Basis Set: CC-PVTZ
  Basis Set:
  Basis Set: CC-PVTZ
  Basis Set:
  @DF-RHF Final Energy:  -229.02441697452019
    Total Energy =                       -229.0244169745201361
  Basis Set: CC-PVTZ
  Basis Set:
  Basis Set: CC-PVTZ
  Basis Set:
  @DF-RHF Final Energy:  -229.02451085395836
    Total Energy =                       -229.0245108539584180
  Basis Set: CC-PVTZ
  Basis Set:
  Basis Set: CC-PVTZ
  Basis Set:
  @DF-RHF Final Energy:  -229.02451770718989
    Total Energy =                       -229.0245177071898297
  Basis Set: CC-PVTZ
  Basis Set:
  Basis Set: CC-PVTZ
  Basis Set:
  @DF-RHF Final Energy:  -229.02451962040416
    Total Energy =                       -229.0245196204040781
  Basis Set: CC-PVTZ
  Basis Set:
  Charge       = 0
  Multiplicity = 1
  Basis Set: CC-PVTZ
  Basis Set:

    Orbital Energies (a.u.)
    -----------------------

    Doubly Occupied:

       1A    -20.548622     2A    -20.544495     3A    -11.268165
       4A    -11.267188     5A     -1.375652     6A     -1.355080
       7A     -1.003509     8A     -0.835314     9A     -0.724047
      10A     -0.701698    11A     -0.625316    12A     -0.600882
      13A     -0.586905    14A     -0.526218    15A     -0.484008
      16A     -0.449468    17A     -0.437138

  @DF-RHF Final Energy:  -229.02451991080412

   => Energetics <=

    Nuclear Repulsion Energy =            133.5097807499279554
    One-Electron Energy =                -578.4011917985242235
    Two-Electron Energy =                 215.8668911377921518
    DFT Exchange-Correlation Energy =       0.0000000000000000
    Empirical Dispersion Energy =           0.0000000000000000
    PCM Polarization Energy =               0.0000000000000000
    EFP Energy =                            0.0000000000000000
    Total Energy =                       -229.0245199108041447
    Molecular point group: c1
  Basis Set: CC-PVTZ
  Basis Set:

  -Total Gradient:
     Atom            X                  Y                   Z
    ------   -----------------  -----------------  -----------------
       1        0.000005711255    -0.000003607511     0.000008488924
       2       -0.000020573253     0.000001530568    -0.000029326141
       3       -0.000245369855     0.000584832157    -0.000701188999
       4        0.000108498551    -0.000532358009     0.001083798597
       5       -0.000008741263    -0.000005055995    -0.000008045785
       6       -0.000001526300    -0.000001962326    -0.000021808092
       7        0.001519376687    -0.000876264887    -0.000485052775
       8       -0.000008266442    -0.000012725959     0.000008743365
       9       -0.000005745127    -0.000002947930    -0.000002586222
      10       -0.001343364257     0.000848559891     0.000146977126

  **** Optimization is complete! (in 6 steps) ****
    Final optimized geometry and variables:
    Molecular point group: c1

    Geometry (in Angstrom), charge = 0, multiplicity = 1:

    H            2.217232665666    -0.629459024631    -0.208642244838
    O            1.417547668552    -0.493072466838     0.263983076078
    C            0.698534978605     0.572632865828    -0.292692285023
    C           -0.701893273516     0.562467602407     0.269201659806
    H            0.641933940872     0.484338179973    -1.373373939418
    H            1.169897524890     1.523215519579    -0.051029614573
    O           -1.443782840617    -0.504024174540    -0.255860527678
    H           -1.191677548636     1.493939246822     0.003160820177
    H           -0.647895064716     0.511313919462     1.351122358393
    H           -1.733133656822    -1.074147381385     0.429550732915

  Mulliken Charges: (a.u.)
   Center  Symbol    Alpha    Beta     Spin     Total
       1     H     0.39325  0.39325  0.00000  0.21351
       2     O     4.20056  4.20056  0.00000 -0.40112
       3     C     2.95873  2.95873  0.00000  0.08254
       4     C     2.96763  2.96763  0.00000  0.06473
       5     H     0.47178  0.47178  0.00000  0.05645
       6     H     0.47845  0.47845  0.00000  0.04311
       7     O     4.20440  4.20440  0.00000 -0.40880
       8     H     0.46787  0.46787  0.00000  0.06426
       9     H     0.46852  0.46852  0.00000  0.06297
      10     H     0.38882  0.38882  0.00000  0.22236

   Total alpha = 17.00000, Total beta = 17.00000, Total charge = -0.00000
