  ==> Input File <==

--------------------------------------------------------------------------
set {
	reference rhf
	basis 6-31G*
}

set_num_threads( 4 )
memory 2 gb

molecule MOL {
0 1

H	 3.893188	 0.355400	 -0.101367
N	 3.092854	 -0.246221	 -0.068770
C	 1.865559	 0.531981	 0.018834
H	 3.199514	 -0.826043	 0.741946
C	 0.645745	 -0.382037	 -0.029944
H	 1.841966	 1.207024	 -0.831236
H	 1.815756	 1.155410	 0.915079
C	 -0.679275	 0.379305	 0.025956
H	 0.698998	 -0.976915	 -0.937203
H	 0.693479	 -1.083846	 0.802235
C	 -0.525928	 1.820741	 0.514957
H	 -1.371081	 -0.148170	 0.680955
H	 -1.138858	 0.384046	 -0.961266
C	 -1.852963	 2.576456	 0.573119
H	 -0.068155	 1.818449	 1.501695
H	 0.162858	 2.351107	 -0.139216
H	 -2.552435	 2.089128	 1.246593
H	 -1.711496	 3.594169	 0.923622
H	 -2.319449	 2.626093	 -0.406839

	symmetry c1
}
set optking {
	frozen_dihedral = ("
		12 8 5 9
	")
}

ee = optimize('scf')
oeprop('DIPOLE', 'QUADRUPOLE', 'MULLIKEN_CHARGES')
f=open( 'psi4out.xyz', 'w' )
f.write( "19  " )
f.write( str(ee) + "\n" )
f.write( MOL.save_string_xyz() )
f.close()
--------------------------------------------------------------------------

    Molecular point group: c1
  Charge       = 0
  Multiplicity = 1
  Basis Set: 6-31G*
  Basis Set:
  @DF-RHF Final Energy:  -251.33924020742106
    Total Energy =                       -251.3392402074209713
    Molecular point group: c1
  Basis Set: 6-31G*
  Basis Set:
  Basis Set: 6-31G*
  Basis Set:
  @DF-RHF Final Energy:  -251.33954217330029
    Total Energy =                       -251.3395421732998898
  Basis Set: 6-31G*
  Basis Set:
  Basis Set: 6-31G*
  Basis Set:
  @DF-RHF Final Energy:  -251.34273808530983
    Total Energy =                       -251.3427380853100885
  Basis Set: 6-31G*
  Basis Set:
  Basis Set: 6-31G*
  Basis Set:
  @DF-RHF Final Energy:  -251.34317108503171
    Total Energy =                       -251.3431710850319405
  Basis Set: 6-31G*
  Basis Set:
  Basis Set: 6-31G*
  Basis Set:
  @DF-RHF Final Energy:  -251.34320302437777
    Total Energy =                       -251.3432030243776580
  Basis Set: 6-31G*
  Basis Set:
  Basis Set: 6-31G*
  Basis Set:
  @DF-RHF Final Energy:  -251.34322273080855
    Total Energy =                       -251.3432227308086340
  Basis Set: 6-31G*
  Basis Set:
  Basis Set: 6-31G*
  Basis Set:
  @DF-RHF Final Energy:  -251.34322928833669
    Total Energy =                       -251.3432292883368291
  Basis Set: 6-31G*
  Basis Set:
  Charge       = 0
  Multiplicity = 1
  Basis Set: 6-31G*
  Basis Set:

    Orbital Energies (a.u.)
    -----------------------

    Doubly Occupied:

       1A    -15.532002     2A    -11.238892     3A    -11.214925
       4A    -11.213450     5A    -11.210003     6A    -11.208185
       7A     -1.176203     8A     -1.070185     9A     -0.994381
      10A     -0.899117    11A     -0.835138    12A     -0.768243
      13A     -0.659821    14A     -0.642086    15A     -0.623018
      16A     -0.584080    17A     -0.572050    18A     -0.544975
      19A     -0.526094    20A     -0.503675    21A     -0.491000
      22A     -0.460561    23A     -0.450849    24A     -0.447684
      25A     -0.380246

  @DF-RHF Final Energy:  -251.34323028365802

   => Energetics <=

    Nuclear Repulsion Energy =            249.5454866872610467
    One-Electron Energy =                -833.2837093064001692
    Two-Electron Energy =                 332.3949923354813336
    DFT Exchange-Correlation Energy =       0.0000000000000000
    Empirical Dispersion Energy =           0.0000000000000000
    PCM Polarization Energy =               0.0000000000000000
    EFP Energy =                            0.0000000000000000
    Total Energy =                       -251.3432302836578174
    Molecular point group: c1
  Basis Set: 6-31G*
  Basis Set:

  -Total Gradient:
     Atom            X                  Y                   Z
    ------   -----------------  -----------------  -----------------
       1       -0.000006740902     0.000004380999    -0.000006601896
       2       -0.000007965742     0.000010865214    -0.000043582890
       3        0.000013497122    -0.000005310988     0.000119834047
       4       -0.000017842278     0.000015144861    -0.000001410714
       5       -0.002411713958    -0.004217320991     0.003922386664
       6        0.000011325528    -0.000023320249    -0.000000502298
       7        0.000014550879     0.000019598675    -0.000006157590
       8       -0.001515309631    -0.002448719640    -0.005474398185
       9        0.002228236341     0.003896640473    -0.002503866758
      10        0.000007098012     0.000010386998     0.000000825719
      11       -0.000005171311    -0.000013067235     0.000031728306
      12        0.001678786576     0.002760550086     0.003986655878
      13        0.000009172496    -0.000016748889    -0.000015096693
      14       -0.000000532350     0.000006485240    -0.000010441465
      15        0.000027097236     0.000007129398     0.000007786996
      16       -0.000026020544    -0.000005695981    -0.000004123826
      17        0.000007278624    -0.000001513344    -0.000000741832
      18        0.000000275219    -0.000002357753     0.000000681366
      19       -0.000006021317     0.000002873127    -0.000002974830

  **** Optimization is complete! (in 8 steps) ****
    Final optimized geometry and variables:
    Molecular point group: c1

    Geometry (in Angstrom), charge = 0, multiplicity = 1:

    H            3.506721054567    -0.627152037176    -0.363561584246
    N            2.660120944040    -1.160254895636    -0.310437604369
    C            1.507092762124    -0.280854724769    -0.167691210355
    H            2.745767392023    -1.758804945736     0.489315387858
    C            0.225479895079    -1.116746723944    -0.163515153157
    H            1.503273905466     0.390482766373    -1.020544985539
    H            1.559928912266     0.342638521841     0.725003974694
    C           -1.109571277930    -0.331499895339    -0.140674943737
    H            0.272076885439    -1.718043471855    -1.064908893362
    H            0.266437657379    -1.800291003101     0.681187254354
    C           -1.051793550411     1.116662855082     0.365589278823
    H           -1.803912305055    -0.854412193669     0.511970972663
    H           -1.548194128912    -0.330537859805    -1.134485565975
    C           -2.432917457138     1.772092352251     0.377715936665
    H           -0.638934233843     1.139925001845     1.371325762006
    H           -0.385832270844     1.709835801654    -0.254472214107
    H           -3.119735753779     1.229930691697     1.021650463670
    H           -2.379585850261     2.794901348084     0.738012340236
    H           -2.864777130710     1.794715417885    -0.618962076768

  Mulliken Charges: (a.u.)
   Center  Symbol    Alpha    Beta     Spin     Total
       1     H     0.33251  0.33251  0.00000  0.33497
       2     N     3.92251  3.92251  0.00000 -0.84502
       3     C     3.06420  3.06420  0.00000 -0.12840
       4     H     0.33570  0.33570  0.00000  0.32861
       5     C     3.15588  3.15588  0.00000 -0.31177
       6     H     0.42071  0.42071  0.00000  0.15858
       7     H     0.43191  0.43191  0.00000  0.13619
       8     C     3.15595  3.15595  0.00000 -0.31190
       9     H     0.40948  0.40948  0.00000  0.18104
      10     H     0.42589  0.42589  0.00000  0.14823
      11     C     3.15670  3.15670  0.00000 -0.31339
      12     H     0.42158  0.42158  0.00000  0.15684
      13     H     0.42027  0.42027  0.00000  0.15946
      14     C     3.23891  3.23891  0.00000 -0.47782
      15     H     0.42305  0.42305  0.00000  0.15391
      16     H     0.42167  0.42167  0.00000  0.15666
      17     H     0.42201  0.42201  0.00000  0.15599
      18     H     0.41951  0.41951  0.00000  0.16098
      19     H     0.42158  0.42158  0.00000  0.15684

   Total alpha = 25.00000, Total beta = 25.00000, Total charge = -0.00000
