  ==> Input File <==

--------------------------------------------------------------------------
set {
	reference rhf
	basis 6-31G*
}

set_num_threads( 4 )
memory 2 gb

molecule MOL {
0 1

H	 -2.493912	 -2.553549	 0.306048
C	 -2.865315	 -1.680068	 -0.244146
C	 -2.689389	 -0.359936	 0.462192
O	 -3.362673	 -1.815730	 -1.314651
C	 -1.244692	 -0.128803	 0.926609
H	 -3.026541	 0.429611	 -0.199360
H	 -3.347120	 -0.371623	 1.330471
C	 -0.252658	 0.041456	 -0.226725
H	 -1.222933	 0.756707	 1.554846
H	 -0.932088	 -0.957194	 1.560490
C	 1.180775	 0.282413	 0.250794
H	 -0.572165	 0.873265	 -0.851110
H	 -0.274412	 -0.839580	 -0.865351
C	 2.148627	 -0.814315	 -0.201312
H	 1.516199	 1.249228	 -0.115937
H	 1.192670	 0.346017	 1.338083
C	 3.580890	 -0.659131	 0.322722
H	 2.166869	 -0.852443	 -1.289387
H	 1.762857	 -1.776509	 0.128956
C	 4.324889	 0.564933	 -0.213704
H	 4.142010	 -1.551473	 0.056605
H	 3.564836	 -0.624694	 1.410140
H	 4.342616	 0.565491	 -1.300421
H	 3.866655	 1.493402	 0.110242
H	 5.353900	 0.572371	 0.132816

	symmetry c1
}
set optking {
	frozen_dihedral = ("
		12 8 11 14
	")
}

ee = optimize('scf')
oeprop('DIPOLE', 'QUADRUPOLE', 'MULLIKEN_CHARGES')
f=open( 'psi4out.xyz', 'w' )
f.write( "25  " )
f.write( str(ee) + "\n" )
f.write( MOL.save_string_xyz() )
f.close()
--------------------------------------------------------------------------

    Molecular point group: c1
  Charge       = 0
  Multiplicity = 1
  Basis Set: 6-31G*
  Basis Set:
  @DF-RHF Final Energy:  -387.11638645444111
    Total Energy =                       -387.1163864544412263
    Molecular point group: c1
  Basis Set: 6-31G*
  Basis Set:
  Basis Set: 6-31G*
  Basis Set:
  @DF-RHF Final Energy:  -387.11638853581258
    Total Energy =                       -387.1163885358123480
  Basis Set: 6-31G*
  Basis Set:
  Basis Set: 6-31G*
  Basis Set:
  @DF-RHF Final Energy:  -387.11654489519657
    Total Energy =                       -387.1165448951966255
  Basis Set: 6-31G*
  Basis Set:
  Basis Set: 6-31G*
  Basis Set:
  @DF-RHF Final Energy:  -387.11667661949980
    Total Energy =                       -387.1166766194993443
  Basis Set: 6-31G*
  Basis Set:
  Basis Set: 6-31G*
  Basis Set:
  @DF-RHF Final Energy:  -387.11655941195357
    Total Energy =                       -387.1165594119536308
  Basis Set: 6-31G*
  Basis Set:
  Basis Set: 6-31G*
  Basis Set:
  @DF-RHF Final Energy:  -387.11667867171769
    Total Energy =                       -387.1166786717177501
  Basis Set: 6-31G*
  Basis Set:
  Charge       = 0
  Multiplicity = 1
  Basis Set: 6-31G*
  Basis Set:

    Orbital Energies (a.u.)
    -----------------------

    Doubly Occupied:

       1A    -20.562039     2A    -11.326219     3A    -11.235694
       4A    -11.234528     5A    -11.223627     6A    -11.219544
       7A    -11.218442     8A    -11.217859     9A    -11.210692
      10A     -1.401982    11A     -1.102644    12A     -1.069584
      13A     -1.011591    14A     -0.942207    15A     -0.876506
      16A     -0.821436    17A     -0.788071    18A     -0.782543
      19A     -0.665184    20A     -0.655026    21A     -0.631220
      22A     -0.625135    23A     -0.605272    24A     -0.591900
      25A     -0.579174    26A     -0.554858    27A     -0.530698
      28A     -0.524518    29A     -0.511113    30A     -0.496610
      31A     -0.489734    32A     -0.480012    33A     -0.463305
      34A     -0.453405    35A     -0.442287    36A     -0.409565

  @DF-RHF Final Energy:  -387.11667777148131

   => Energetics <=

    Nuclear Repulsion Energy =            440.8311405081776115
    One-Electron Energy =               -1397.9871885324901086
    Two-Electron Energy =                 570.0393702528315316
    DFT Exchange-Correlation Energy =       0.0000000000000000
    Empirical Dispersion Energy =           0.0000000000000000
    PCM Polarization Energy =               0.0000000000000000
    EFP Energy =                            0.0000000000000000
    Total Energy =                       -387.1166777714809086
    Molecular point group: c1
  Basis Set: 6-31G*
  Basis Set:

  -Total Gradient:
     Atom            X                  Y                   Z
    ------   -----------------  -----------------  -----------------
       1        0.000019140238     0.000009854161    -0.000005414043
       2       -0.000074659268    -0.000008726594     0.000006996940
       3        0.000030594737    -0.000035665386    -0.000011670360
       4        0.000017395467     0.000009191446    -0.000008610097
       5       -0.000012784153     0.000078957572     0.000024854828
       6       -0.000010588947     0.000012945720     0.000013586055
       7        0.000005862362    -0.000048086619    -0.000029527517
       8       -0.000172321735     0.000204203371     0.000237312856
       9        0.000034048417     0.000016254180     0.000000375862
      10       -0.000000493166     0.000013913421     0.000014229450
      11        0.000004890287    -0.000180204729     0.000244846195
      12        0.000129864642    -0.000169653368    -0.000244996392
      13       -0.000002643638    -0.000009031399    -0.000009629384
      14        0.000073079558     0.000144102147    -0.000242750713
      15       -0.000058889172    -0.000062212133     0.000002635431
      16       -0.000005969916     0.000012578821     0.000010081630
      17       -0.000032686551     0.000031163397     0.000023108552
      18        0.000005976214     0.000027602136    -0.000005635064
      19        0.000014990031    -0.000025907737    -0.000021595812
      20        0.000028675451    -0.000008959240    -0.000011487202
      21       -0.000017694459    -0.000017701101     0.000020749201
      22       -0.000011664569     0.000033068565     0.000004047977
      23       -0.000006859569     0.000008523939    -0.000008524405
      24        0.000043594321    -0.000023143928     0.000007672040
      25       -0.000000856574    -0.000013066644    -0.000010656025

  **** Optimization is complete! (in 7 steps) ****
    Final optimized geometry and variables:
    Molecular point group: c1

    Geometry (in Angstrom), charge = 0, multiplicity = 1:

    H           -2.595668503233    -2.047839102756     0.344821666456
    C           -2.966191404856    -1.175254088721    -0.207560352476
    C           -2.797835088733     0.145287896366     0.500046302887
    O           -3.461876914504    -1.313199952830    -1.278598292762
    C           -1.354986824992     0.384648731289     0.964998881659
    H           -3.138976961880     0.933436669742    -0.161337823615
    H           -3.456015303136     0.129310870571     1.367813181370
    C           -0.361902025488     0.560467712630    -0.187771296610
    H           -1.336667859329     1.269853386234     1.594026660900
    H           -1.036237776708    -0.442317229593     1.597913550644
    C            1.089320663282     0.796972404339     0.288641863138
    H           -0.692064116891     1.387518804188    -0.809949582548
    H           -0.395455796346    -0.317451540831    -0.828897561288
    C            2.058894904743    -0.299109301957    -0.165311644349
    H            1.434679913262     1.761076889394    -0.069343924383
    H            1.113132102364     0.856717291993     1.375049632338
    C            3.490032297003    -0.147666320853     0.361270089627
    H            2.077477528701    -0.333236790468    -1.253336075389
    H            1.670262816090    -1.262369192711     0.160536529129
    C            4.240884062768     1.071134869003    -0.178613548306
    H            4.048038202850    -1.043669367626     0.100932998371
    H            3.471036394300    -0.108185569640     1.448678294766
    H            4.262028895725     1.066370359744    -1.265078644912
    H            3.786204308159     2.003403571809     0.139494777751
    H            5.268742318925     1.075556119972     0.170731343002

  Mulliken Charges: (a.u.)
   Center  Symbol    Alpha    Beta     Spin     Total
       1     H     0.43267  0.43267  0.00000  0.13467
       2     C     2.83073  2.83073  0.00000  0.33854
       3     C     3.20888  3.20888  0.00000 -0.41777
       4     O     4.23781  4.23781  0.00000 -0.47563
       5     C     3.16826  3.16826  0.00000 -0.33653
       6     H     0.39972  0.39972  0.00000  0.20056
       7     H     0.40665  0.40665  0.00000  0.18670
       8     C     3.15827  3.15827  0.00000 -0.31653
       9     H     0.41221  0.41221  0.00000  0.17557
      10     H     0.41961  0.41961  0.00000  0.16078
      11     C     3.15777  3.15777  0.00000 -0.31555
      12     H     0.41549  0.41549  0.00000  0.16903
      13     H     0.41560  0.41560  0.00000  0.16881
      14     C     3.15478  3.15478  0.00000 -0.30955
      15     H     0.41643  0.41643  0.00000  0.16714
      16     H     0.42161  0.42161  0.00000  0.15678
      17     C     3.15339  3.15339  0.00000 -0.30679
      18     H     0.42143  0.42143  0.00000  0.15713
      19     H     0.42323  0.42323  0.00000  0.15354
      20     C     3.24135  3.24135  0.00000 -0.48270
      21     H     0.42005  0.42005  0.00000  0.15990
      22     H     0.42356  0.42356  0.00000  0.15288
      23     H     0.42140  0.42140  0.00000  0.15721
      24     H     0.42044  0.42044  0.00000  0.15913
      25     H     0.41866  0.41866  0.00000  0.16269

   Total alpha = 36.00000, Total beta = 36.00000, Total charge =  0.00000
