                              Psi4 1.0.54 Driver

  ==> Input File <==

--------------------------------------------------------------------------
set {
	reference rhf
	basis cc-pvtz
}

set_num_threads( 4 )
memory 2 gb

molecule MOL {
0 1

H	 2.370520	 -0.205134	 0.293826
O	 1.510978	 -0.074150	 0.648334
C	 0.700177	 0.619554	 -0.266242
C	 -0.713111	 0.588314	 0.266177
H	 0.730652	 0.144564	 -1.242142
H	 1.027762	 1.650595	 -0.371216
O	 -1.421673	 -0.521378	 -0.196983
H	 -1.244794	 1.469161	 -0.069059
H	 -0.685100	 0.604721	 1.352683
H	 -0.933408	 -1.297830	 0.014544

	symmetry c1
}
set optking {
	frozen_dihedral = ("
		5 3 4 7
	")
}

ee,wfn = optimize('scf', return_wfn=True)
oeprop( wfn, 'DIPOLE', 'QUADRUPOLE', 'MULLIKEN_CHARGES')
f=open( 'psi4out.xyz', 'w' )
f.write( "10  " )
f.write( str(ee) + "\n" )
f.write( MOL.save_string_xyz() )
f.close()
--------------------------------------------------------------------------

    Molecular point group: c1
  Charge       = 0
  Multiplicity = 1
  Basis Set: CC-PVTZ
  Basis Set:
  @DF-RHF Final Energy:  -229.02439560758015
    Total Energy =                       -229.0243956075800611
    Molecular point group: c1
  Basis Set: CC-PVTZ
  Basis Set:
  Basis Set: CC-PVTZ
  Basis Set:
  @DF-RHF Final Energy:  -229.02499492894805
    Total Energy =                       -229.0249949289479048
  Basis Set: CC-PVTZ
  Basis Set:
  Basis Set: CC-PVTZ
  Basis Set:
  @DF-RHF Final Energy:  -229.02526627444328
    Total Energy =                       -229.0252662744435099
  Basis Set: CC-PVTZ
  Basis Set:
  Basis Set: CC-PVTZ
  Basis Set:
  @DF-RHF Final Energy:  -229.02527214517718
    Total Energy =                       -229.0252721451770981
  Basis Set: CC-PVTZ
  Basis Set:
  Charge       = 0
  Multiplicity = 1
  Basis Set: CC-PVTZ
  Basis Set:

    Orbital Energies (a.u.)
    -----------------------

    Doubly Occupied:

       1A    -20.554911     2A    -20.547233     3A    -11.271160
       4A    -11.267114     5A     -1.378396     6A     -1.358803
       7A     -1.001464     8A     -0.845204     9A     -0.727960
      10A     -0.678870    11A     -0.650246    12A     -0.608906
      13A     -0.575373    14A     -0.527585    15A     -0.493466
      16A     -0.456252    17A     -0.436899

  @DF-RHF Final Energy:  -229.02527256251059

   => Energetics <=

    Nuclear Repulsion Energy =            132.9439982857826692
    One-Electron Energy =                -577.1788592372344056
    Two-Electron Energy =                 215.2095883889412278
    DFT Exchange-Correlation Energy =       0.0000000000000000
    Empirical Dispersion Energy =           0.0000000000000000
    PCM Polarization Energy =               0.0000000000000000
    EFP Energy =                            0.0000000000000000
    Total Energy =                       -229.0252725625105370
    Molecular point group: c1
  Basis Set: CC-PVTZ
  Basis Set:

  -Total Gradient:
     Atom            X                  Y                   Z
    ------   -----------------  -----------------  -----------------
       1       -0.000007158129     0.000013297720    -0.000007590486
       2       -0.000026260329    -0.000000802107     0.000012313380
       3       -0.001985478107     0.007804385858    -0.004720835135
       4        0.002384082203    -0.004943231116     0.006000081424
       5        0.001192598621    -0.005561854204     0.002668575498
       6        0.000004229266    -0.000000916791     0.000005004632
       7       -0.001564166748     0.002719587389    -0.003970806956
       8        0.000001105147    -0.000025676869    -0.000007540750
       9       -0.000007520421     0.000006410327     0.000005756039
      10        0.000008568499    -0.000011200207     0.000015042355

  **** Optimization is complete! (in 5 steps) ****
    Final optimized geometry and variables:
    Molecular point group: c1

    Geometry (in Angstrom), charge = 0, multiplicity = 1:

    H            2.344916154181    -0.294964789928     0.176218049930
    O            1.476152161973    -0.210625982566     0.523284618094
    C            0.665826392478     0.529440216677    -0.361501345405
    C           -0.759886990782     0.465634230259     0.150357916411
    H            0.700754354892     0.068302384600    -1.342680973130
    H            1.005185160138     1.558864790445    -0.420860631854
    O           -1.462315768405    -0.644644814454    -0.332055015656
    H           -1.306017397057     1.331212253849    -0.200967809998
    H           -0.747869778794     0.493268264486     1.234766273059
    H           -1.096598670226    -1.431095667203     0.032621166108

  Mulliken Charges: (a.u.)
   Center  Symbol    Alpha    Beta     Spin     Total
       1     H     0.39245  0.39245  0.00000  0.21510
       2     O     4.20521  4.20521  0.00000 -0.41042
       3     C     2.97757  2.97757  0.00000  0.04485
       4     C     2.96509  2.96509  0.00000  0.06982
       5     H     0.46758  0.46758  0.00000  0.06485
       6     H     0.47165  0.47165  0.00000  0.05671
       7     O     4.20616  4.20616  0.00000 -0.41232
       8     H     0.45949  0.45949  0.00000  0.08102
       9     H     0.46598  0.46598  0.00000  0.06803
      10     H     0.38882  0.38882  0.00000  0.22236

   Total alpha = 17.00000, Total beta = 17.00000, Total charge = -0.00000

*** Psi4 exiting successfully. Buy a developer a beer!
