                              Psi4 1.0.54 Driver

  ==> Input File <==

--------------------------------------------------------------------------
set {
	reference rhf
	basis cc-pvtz
}

set_num_threads( 4 )
memory 2 gb

molecule MOL {
0 1

O	 0.749630	 1.305591	 -0.000460
C	 0.576499	 0.134701	 -0.003900
C	 -0.765656	 -0.550508	 -0.002152
O	 1.564816	 -0.744612	 -0.000631
C	 -1.945526	 0.411052	 0.000603
H	 -0.794329	 -1.203792	 -0.868145
H	 -0.791555	 -1.205429	 0.862701
C	 -3.282915	 -0.321280	 0.002596
H	 -1.880300	 1.059126	 -0.864925
H	 -1.877207	 1.057892	 0.866807
H	 -3.388495	 -0.952755	 -0.873419
H	 -4.107811	 0.380864	 0.004116
H	 -3.385717	 -0.953283	 0.878571
C	 2.581131	 -0.575011	 0.967020
H	 3.072277	 0.378332	 0.840659
H	 3.281110	 -1.378727	 0.806517
H	 2.170999	 -0.631039	 1.964363

	symmetry c1
}
set optking {
	frozen_dihedral = ("
		14 4 2 1
	")
}

ee,wfn = optimize('scf', return_wfn=True)
oeprop( wfn, 'DIPOLE', 'QUADRUPOLE', 'MULLIKEN_CHARGES')
f=open( 'psi4out.xyz', 'w' )
f.write( "17  " )
f.write( str(ee) + "\n" )
f.write( MOL.save_string_xyz() )
f.close()
--------------------------------------------------------------------------

    Molecular point group: c1
  Charge       = 0
  Multiplicity = 1
  Basis Set: CC-PVTZ
  Basis Set:
  @DF-RHF Final Energy:  -345.02385801091964
    Total Energy =                       -345.0238580109202076
    Molecular point group: c1
  Basis Set: CC-PVTZ
  Basis Set:
  Basis Set: CC-PVTZ
  Basis Set:
  @DF-RHF Final Energy:  -345.02047876479594
    Total Energy =                       -345.0204787647952571
  Basis Set: CC-PVTZ
  Basis Set:
  Basis Set: CC-PVTZ
  Basis Set:
  @DF-RHF Final Energy:  -345.02467702508835
    Total Energy =                       -345.0246770250882378
  Basis Set: CC-PVTZ
  Basis Set:
  Basis Set: CC-PVTZ
  Basis Set:
  @DF-RHF Final Energy:  -345.02477137660492
    Total Energy =                       -345.0247713766047468
  Basis Set: CC-PVTZ
  Basis Set:
  @DF-RHF Final Energy:  -345.02482450255644
    Total Energy =                       -345.0248245025565552
  @DF-RHF Final Energy:  -345.02482885407227
    Total Energy =                       -345.0248288540719273
  Basis Set: CC-PVTZ
  Basis Set:
  @DF-RHF Final Energy:  -345.02482666145215
    Total Energy =                       -345.0248266614522663
  Basis Set: CC-PVTZ
  Basis Set:
  Basis Set: CC-PVTZ
  Basis Set:
  @DF-RHF Final Energy:  -345.02482809911419
    Total Energy =                       -345.0248280991139609
  Basis Set: CC-PVTZ
  Basis Set:
  Basis Set: CC-PVTZ
  Basis Set:
  @DF-RHF Final Energy:  -345.02482931364926
    Total Energy =                       -345.0248293136490929
  Basis Set: CC-PVTZ
  Basis Set:
  Charge       = 0
  Multiplicity = 1
  Basis Set: CC-PVTZ
  Basis Set:

    Orbital Energies (a.u.)
    -----------------------

    Doubly Occupied:

       1A    -20.585663     2A    -20.540641     3A    -11.366965
       4A    -11.283094     5A    -11.235777     6A    -11.221065
       7A    -11.213669     8A     -1.465554     9A     -1.367998
      10A     -1.081887    11A     -0.998270    12A     -0.944195
      13A     -0.830843    14A     -0.767067    15A     -0.701908
      16A     -0.681210    17A     -0.676360    18A     -0.636209
      19A     -0.607788    20A     -0.578080    21A     -0.567245
      22A     -0.532845    23A     -0.522885    24A     -0.500027
      25A     -0.489933    26A     -0.480239    27A     -0.457491
      28A     -0.438508

  @DF-RHF Final Energy:  -345.02482939380656

   => Energetics <=

    Nuclear Repulsion Energy =            312.4499085908431084
    One-Electron Energy =               -1089.4026482513449992
    Two-Electron Energy =                 431.9279102666950507
    DFT Exchange-Correlation Energy =       0.0000000000000000
    Empirical Dispersion Energy =           0.0000000000000000
    PCM Polarization Energy =               0.0000000000000000
    EFP Energy =                            0.0000000000000000
    Total Energy =                       -345.0248293938068969
    Molecular point group: c1
  Basis Set: CC-PVTZ
  Basis Set:

  -Total Gradient:
     Atom            X                  Y                   Z
    ------   -----------------  -----------------  -----------------
       1       -0.000960860946     0.000369473347    -0.009279369118
       2       -0.000212282527    -0.002674040575     0.016040091442
       3        0.000012704113    -0.000010750806     0.000050950805
       4        0.004478174297     0.006753320799    -0.011698547423
       5        0.000000940717     0.000000350036     0.000001229705
       6       -0.000000670158     0.000013655523    -0.000002044769
       7        0.000001873800     0.000003338888    -0.000011719556
       8       -0.000004762973     0.000001423266    -0.000000832912
       9       -0.000000372218    -0.000002441921     0.000004519792
      10       -0.000002663172     0.000000357941    -0.000002902419
      11        0.000000896843     0.000002072592     0.000004185807
      12        0.000002011815    -0.000003021889    -0.000000357906
      13        0.000000975986     0.000002776130    -0.000004007576
      14       -0.003306707497    -0.004453621972     0.004914398318
      15       -0.000006331385    -0.000012660479     0.000002220488
      16       -0.000004250308     0.000007146164     0.000004480567
      17        0.000001323615     0.000002622958    -0.000022295244

  **** Optimization is complete! (in 10 steps) ****
    Final optimized geometry and variables:
    Molecular point group: c1

    Geometry (in Angstrom), charge = 0, multiplicity = 1:

    O            0.787746288138     1.352462148102    -0.052454889351
    C            0.607182058674     0.186983596630    -0.084088579271
    C           -0.740360760829    -0.483948477603    -0.091127394907
    O            1.602586149233    -0.697687313238    -0.219098396646
    C           -1.916571694713     0.480762983173    -0.126226545982
    H           -0.754954291894    -1.159765729828    -0.939880231717
    H           -0.781114926685    -1.120588052269     0.788719993595
    C           -3.257198417392    -0.245652111629    -0.128769310560
    H           -1.835494109345     1.109013045201    -1.005310558801
    H           -1.858416027765     1.146833120228     0.726061814698
    H           -3.352335052298    -0.895752261703    -0.992240402805
    H           -4.078889477714     0.459769600050    -0.155068447741
    H           -3.376180701249    -0.857874572447     0.759243068663
    C            2.712565860686    -0.562891977887     0.644514498993
    H            3.160131856414     0.415342791149     0.552562939056
    H            3.421919110039    -1.320247525902     0.352953292675
    H            2.409896586005    -0.729738760357     1.671041084927

  Mulliken Charges: (a.u.)
   Center  Symbol    Alpha    Beta     Spin     Total
       1     O     4.18261  4.18261  0.00000 -0.36523
       2     C     2.79887  2.79887  0.00000  0.40226
       3     C     3.09963  3.09963  0.00000 -0.19925
       4     O     4.16072  4.16072  0.00000 -0.32143
       5     C     3.08009  3.08009  0.00000 -0.16019
       6     H     0.43806  0.43806  0.00000  0.12387
       7     H     0.44534  0.44534  0.00000  0.10932
       8     C     3.15068  3.15068  0.00000 -0.30135
       9     H     0.44646  0.44646  0.00000  0.10707
      10     H     0.44651  0.44651  0.00000  0.10697
      11     H     0.45539  0.45539  0.00000  0.08921
      12     H     0.44545  0.44545  0.00000  0.10909
      13     H     0.45619  0.45619  0.00000  0.08761
      14     C     3.03680  3.03680  0.00000 -0.07360
      15     H     0.44660  0.44660  0.00000  0.10680
      16     H     0.44564  0.44564  0.00000  0.10872
      17     H     0.46494  0.46494  0.00000  0.07011

   Total alpha = 28.00000, Total beta = 28.00000, Total charge = -0.00000

*** Psi4 exiting successfully. Buy a developer a beer!
