  ==> Input File <==

--------------------------------------------------------------------------
set {
	reference rhf
	basis 6-31G*
}

set_num_threads( 1 )
memory 2 gb

molecule MOL {
0 1

H	 -2.172150	 0.880146	 0.502514
C	 -2.018062	 -0.000025	 -0.114509
O	 -0.774054	 0.001095	 -0.743181
H	 -2.760490	 0.003458	 -0.901350
H	 -2.173624	 -0.884374	 0.496163
C	 -0.675094	 -0.383629	 -2.102859
C	 0.814469	 -0.245539	 -2.409694
C	 -1.116320	 -1.837569	 -2.299241
C	 -1.483396	 0.555859	 -3.003484
H	 1.391549	 -0.889469	 -1.755657
H	 1.136286	 0.776585	 -2.245165
H	 1.028258	 -0.515145	 -3.438901
H	 -0.590009	 -2.486364	 -1.607077
H	 -0.894106	 -2.164703	 -3.309788
H	 -2.182130	 -1.966283	 -2.144201
H	 -1.214707	 1.588338	 -2.806395
H	 -1.279010	 0.343510	 -4.047835
H	 -2.552234	 0.446914	 -2.853991

	symmetry c1
}
set optking {
	frozen_dihedral = ("
		2 3 6 7
	")
}

ee = energy('scf')
oeprop('DIPOLE', 'QUADRUPOLE', 'MULLIKEN_CHARGES')
f=open( 'psi4out.xyz', 'w' )
f.write( "18  " )
f.write( str(ee) + "\n" )
f.write( MOL.save_string_xyz() )
f.close()
--------------------------------------------------------------------------

    Molecular point group: c1

    Geometry (in Angstrom), charge = 0, multiplicity = 1:

       Center              X                  Y                   Z               Mass
    ------------   -----------------  -----------------  -----------------  -----------------
           H         -1.281230034145     1.195949953390     2.266017327033     1.007825032070
           C         -1.127142034145     0.315778953390     1.648994327033    12.000000000000
           O          0.116865965855     0.316898953390     1.020322327033    15.994914619560
           H         -1.869570034145     0.319261953390     0.862153327033     1.007825032070
           H         -1.282704034145    -0.568570046610     2.259666327033     1.007825032070
           C          0.215825965855    -0.067825046610    -0.339355672967    12.000000000000
           C          1.705388965855     0.070264953390    -0.646190672967    12.000000000000
           C         -0.225400034145    -1.521765046610    -0.535737672967    12.000000000000
           C         -0.592476034145     0.871662953390    -1.239980672967    12.000000000000
           H          2.282468965855    -0.573665046610     0.007846327033     1.007825032070
           H          2.027205965855     1.092388953390    -0.481661672967     1.007825032070
           H          1.919177965855    -0.199341046610    -1.675397672967     1.007825032070
           H          0.300910965855    -2.170560046610     0.156426327033     1.007825032070
           H         -0.003186034145    -1.848899046610    -1.546284672967     1.007825032070
           H         -1.291210034145    -1.650479046610    -0.380697672967     1.007825032070
           H         -0.323787034145     1.904141953390    -1.042891672967     1.007825032070
           H         -0.388090034145     0.659313953390    -2.284331672967     1.007825032070
           H         -1.661314034145     0.762717953390    -1.090487672967     1.007825032070

  Charge       = 0
  Multiplicity = 1
  Basis Set: 6-31G*
  Basis Set:

    Orbital Energies (a.u.)
    -----------------------

    Doubly Occupied:

       1A    -20.543927     2A    -11.282650     3A    -11.260550
       4A    -11.209400     5A    -11.208905     6A    -11.203538
       7A     -1.369179     8A     -1.072981     9A     -0.947071
      10A     -0.940192    11A     -0.911470    12A     -0.752928
      13A     -0.655251    14A     -0.644333    15A     -0.641489
      16A     -0.590718    17A     -0.574257    18A     -0.548897
      19A     -0.537619    20A     -0.525079    21A     -0.515512
      22A     -0.490023    23A     -0.487056    24A     -0.435224
      25A     -0.402349

  @DF-RHF Final Energy:  -271.17090694806143

   => Energetics <=

    Nuclear Repulsion Energy =            272.5046935442860558
    One-Electron Energy =                -907.8497494199635867
    Two-Electron Energy =                 364.1741489276164430
    DFT Exchange-Correlation Energy =       0.0000000000000000
    Empirical Dispersion Energy =           0.0000000000000000
    PCM Polarization Energy =               0.0000000000000000
    EFP Energy =                            0.0000000000000000
    Total Energy =                       -271.1709069480610879

  Mulliken Charges: (a.u.)
   Center  Symbol    Alpha    Beta     Spin     Total
       1     H     0.41762  0.41762  0.00000  0.16476
       2     C     3.07324  3.07324  0.00000 -0.14647
       3     O     4.32148  4.32148  0.00000 -0.64296
       4     H     0.43338  0.43338  0.00000  0.13324
       5     H     0.42518  0.42518  0.00000  0.14965
       6     C     2.84552  2.84552  0.00000  0.30895
       7     C     3.23252  3.23252  0.00000 -0.46504
       8     C     3.24550  3.24550  0.00000 -0.49099
       9     C     3.24712  3.24712  0.00000 -0.49424
      10     H     0.41380  0.41380  0.00000  0.17240
      11     H     0.41392  0.41392  0.00000  0.17216
      12     H     0.42523  0.42523  0.00000  0.14954
      13     H     0.41305  0.41305  0.00000  0.17390
      14     H     0.42000  0.42000  0.00000  0.16000
      15     H     0.42086  0.42086  0.00000  0.15828
      16     H     0.41282  0.41282  0.00000  0.17436
      17     H     0.41930  0.41930  0.00000  0.16140
      18     H     0.41946  0.41946  0.00000  0.16108

   Total alpha = 25.00000, Total beta = 25.00000, Total charge =  0.00000
