  ==> Input File <==

--------------------------------------------------------------------------
set {
	reference rhf
	basis 6-31G*
}

set_num_threads( 1 )
memory 2 gb

molecule MOL {
0 1

H	 -3.161837	 0.500524	 -0.000234
C	 -2.367097	 -0.232926	 -0.000000
O	 -1.158440	 0.455814	 -0.000122
H	 -2.468853	 -0.861886	 -0.882833
H	 -2.468942	 -0.861421	 0.883154
C	 -0.029776	 -0.365156	 0.000148
C	 0.382020	 -0.632840	 -1.437013
H	 -0.247972	 -1.303134	 0.512482
H	 0.784286	 0.116031	 0.543904
C	 1.616067	 -1.528706	 -1.534148
H	 -0.455053	 -1.090233	 -1.955436
H	 0.570051	 0.318960	 -1.924270
H	 1.440475	 -2.496745	 -1.073181
H	 1.887653	 -1.702723	 -2.569911
H	 2.472827	 -1.077830	 -1.041120

	symmetry c1
}
set optking {
	frozen_dihedral = ("
		6 3 2 4,
		11 7 6 8
	")
}

ee = energy('scf')
oeprop('DIPOLE', 'QUADRUPOLE', 'MULLIKEN_CHARGES')
f=open( 'psi4out.xyz', 'w' )
f.write( "15  " )
f.write( str(ee) + "\n" )
f.write( MOL.save_string_xyz() )
f.close()
--------------------------------------------------------------------------

    Molecular point group: c1

    Geometry (in Angstrom), charge = 0, multiplicity = 1:

       Center              X                  Y                   Z               Mass
    ------------   -----------------  -----------------  -----------------  -----------------
           H         -2.824672568104     0.964247599668     0.583247189339     1.007825032070
           C         -2.029932568104     0.230797599668     0.583481189339    12.000000000000
           O         -0.821275568104     0.919537599668     0.583359189339    15.994914619560
           H         -2.131688568104    -0.398162400332    -0.299351810661     1.007825032070
           H         -2.131777568104    -0.397697400332     1.466635189339     1.007825032070
           C          0.307388431896     0.098567599668     0.583629189339    12.000000000000
           C          0.719184431896    -0.169116400332    -0.853531810661    12.000000000000
           H          0.089192431896    -0.839410400332     1.095963189339     1.007825032070
           H          1.121450431896     0.579754599668     1.127385189339     1.007825032070
           C          1.953231431896    -1.064982400332    -0.950666810661    12.000000000000
           H         -0.117888568104    -0.626509400332    -1.371954810661     1.007825032070
           H          0.907215431896     0.782683599668    -1.340788810661     1.007825032070
           H          1.777639431896    -2.033021400332    -0.489699810661     1.007825032070
           H          2.224817431896    -1.238999400332    -1.986429810661     1.007825032070
           H          2.809991431896    -0.614106400332    -0.457638810661     1.007825032070

  Charge       = 0
  Multiplicity = 1
  Basis Set: 6-31G*
  Basis Set:

    Orbital Energies (a.u.)
    -----------------------

    Doubly Occupied:

       1A    -20.551886     2A    -11.266386     3A    -11.264867
       4A    -11.213489     5A    -11.212754     6A     -1.378624
       7A     -1.055744     8A     -0.957218     9A     -0.882320
      10A     -0.807431    11A     -0.671810    12A     -0.656013
      13A     -0.636657    14A     -0.598028    15A     -0.568909
      16A     -0.533858    17A     -0.514271    18A     -0.496991
      19A     -0.483451    20A     -0.460580    21A     -0.403980

  @DF-RHF Final Energy:  -232.13525196491949

   => Energetics <=

    Nuclear Repulsion Energy =            192.2033993924526669
    One-Electron Energy =                -695.4467871246165487
    Two-Electron Energy =                 271.1081357672446188
    DFT Exchange-Correlation Energy =       0.0000000000000000
    Empirical Dispersion Energy =           0.0000000000000000
    PCM Polarization Energy =               0.0000000000000000
    EFP Energy =                            0.0000000000000000
    Total Energy =                       -232.1352519649192914

  Mulliken Charges: (a.u.)
   Center  Symbol    Alpha    Beta     Spin     Total
       1     H     0.41173  0.41173  0.00000  0.17654
       2     C     3.08141  3.08141  0.00000 -0.16282
       3     O     4.30415  4.30415  0.00000 -0.60829
       4     H     0.43110  0.43110  0.00000  0.13780
       5     H     0.42897  0.42897  0.00000  0.14207
       6     C     2.99252  2.99252  0.00000  0.01496
       7     C     3.15861  3.15861  0.00000 -0.31722
       8     H     0.43254  0.43254  0.00000  0.13493
       9     H     0.41726  0.41726  0.00000  0.16549
      10     C     3.24843  3.24843  0.00000 -0.49685
      11     H     0.42120  0.42120  0.00000  0.15760
      12     H     0.41368  0.41368  0.00000  0.17264
      13     H     0.42177  0.42177  0.00000  0.15645
      14     H     0.41629  0.41629  0.00000  0.16742
      15     H     0.42036  0.42036  0.00000  0.15929

   Total alpha = 21.00000, Total beta = 21.00000, Total charge =  0.00000
