  ==> Input File <==

--------------------------------------------------------------------------
set {
	reference rhf
	basis 6-31G*
}

set_num_threads( 4 )
memory 2 gb

molecule MOL {
0 1

H	 1.502306	 1.159534	 -1.128319
O	 0.702178	 0.646463	 -1.185636
C	 0.489431	 0.077273	 0.000046
C	 -0.764129	 -0.759190	 0.000191
O	 1.223917	 0.235792	 0.919811
C	 -2.038368	 0.075731	 -0.000248
H	 -0.717284	 -1.412404	 -0.866059
H	 -0.717458	 -1.411724	 0.866967
H	 -2.086483	 0.712501	 -0.875098
H	 -2.908485	 -0.571682	 -0.000042
H	 -2.086576	 0.713280	 0.874068

	symmetry c1
}
set optking {
	frozen_dihedral = ("
		2 3 4 7
	")
}

ee = optimize('scf')
oeprop('DIPOLE', 'QUADRUPOLE', 'MULLIKEN_CHARGES')
f=open( 'psi4out.xyz', 'w' )
f.write( "11  " )
f.write( str(ee) + "\n" )
f.write( MOL.save_string_xyz() )
f.close()
--------------------------------------------------------------------------

    Molecular point group: c1
  Charge       = 0
  Multiplicity = 1
  Basis Set: 6-31G*
  Basis Set:
  @DF-RHF Final Energy:  -266.84403800860269
    Total Energy =                       -266.8440380086025243
    Molecular point group: c1
  Basis Set: 6-31G*
  Basis Set:
  Basis Set: 6-31G*
  Basis Set:
  @DF-RHF Final Energy:  -266.84435898279941
    Total Energy =                       -266.8443589827995766
  Basis Set: 6-31G*
  Basis Set:
  Basis Set: 6-31G*
  Basis Set:
  @DF-RHF Final Energy:  -266.84363786162368
    Total Energy =                       -266.8436378616237334
  Basis Set: 6-31G*
  Basis Set:
  Basis Set: 6-31G*
  Basis Set:
  @DF-RHF Final Energy:  -266.84449728778333
    Total Energy =                       -266.8444972877829855
  Basis Set: 6-31G*
  Basis Set:
  Basis Set: 6-31G*
  Basis Set:
  @DF-RHF Final Energy:  -266.84450057476772
    Total Energy =                       -266.8445005747678351
  Basis Set: 6-31G*
  Basis Set:
  Charge       = 0
  Multiplicity = 1
  Basis Set: 6-31G*
  Basis Set:

    Orbital Energies (a.u.)
    -----------------------

    Doubly Occupied:

       1A    -20.614013     2A    -20.551068     3A    -11.380923
       4A    -11.242846     5A    -11.230599     6A     -1.474984
       7A     -1.365553     8A     -1.067982     9A     -0.912234
      10A     -0.816741    11A     -0.701951    12A     -0.684799
      13A     -0.640209    14A     -0.617029    15A     -0.591346
      16A     -0.544594    17A     -0.526882    18A     -0.512640
      19A     -0.476600    20A     -0.440769

  @DF-RHF Final Energy:  -266.84450064557183

   => Energetics <=

    Nuclear Repulsion Energy =            180.0195318363837487
    One-Electron Energy =                -720.9405423262229533
    Two-Electron Energy =                 274.0765098442673775
    DFT Exchange-Correlation Energy =       0.0000000000000000
    Empirical Dispersion Energy =           0.0000000000000000
    PCM Polarization Energy =               0.0000000000000000
    EFP Energy =                            0.0000000000000000
    Total Energy =                       -266.8445006455718271
    Molecular point group: c1
  Basis Set: 6-31G*
  Basis Set:

  -Total Gradient:
     Atom            X                  Y                   Z
    ------   -----------------  -----------------  -----------------
       1        0.000001870325    -0.000001088894    -0.000002641562
       2        0.000127654262    -0.000169333834    -0.000095072745
       3       -0.000180918060     0.000283126360     0.000103371056
       4        0.000192084803    -0.000290407364     0.000163940674
       5       -0.000014375534    -0.000003737840    -0.000016955948
       6        0.000013595124    -0.000012807303    -0.000005084649
       7       -0.000137207566     0.000204485385    -0.000144222293
       8       -0.000003038386    -0.000006534192     0.000000540791
       9       -0.000003482001     0.000001501877    -0.000003245520
      10       -0.000002007040    -0.000003343476     0.000000921090
      11        0.000005824072    -0.000001860720    -0.000001550894

  **** Optimization is complete! (in 6 steps) ****
    Final optimized geometry and variables:
    Molecular point group: c1

    Geometry (in Angstrom), charge = 0, multiplicity = 1:

    H            1.525140291669     1.122564431866    -1.034370601998
    O            0.738237764789     0.590565590835    -1.102228061138
    C            0.543622830489    -0.012679883568     0.070521129283
    C           -0.702879041784    -0.858172961109     0.075755058674
    O            1.283216135476     0.136409229250     0.988068677901
    C           -1.971884337722     0.003727612011     0.063440542726
    H           -0.686553838433    -1.498183170694    -0.799573132904
    H           -0.668458924493    -1.478357823357     0.960901794976
    H           -2.020358830896     0.614944965830    -0.829630158303
    H           -2.850441018200    -0.630770415282     0.088569394522
    H           -2.006142591789     0.656895656921     0.928833774741

  Mulliken Charges: (a.u.)
   Center  Symbol    Alpha    Beta     Spin     Total
       1     H     0.26753  0.26753  0.00000  0.46495
       2     O     4.34750  4.34750  0.00000 -0.69500
       3     C     2.63253  2.63253  0.00000  0.73494
       4     C     3.19843  3.19843  0.00000 -0.39686
       5     O     4.27784  4.27784  0.00000 -0.55568
       6     C     3.25159  3.25159  0.00000 -0.50319
       7     H     0.40160  0.40160  0.00000  0.19680
       8     H     0.39655  0.39655  0.00000  0.20690
       9     H     0.40592  0.40592  0.00000  0.18816
      10     H     0.41063  0.41063  0.00000  0.17873
      11     H     0.40987  0.40987  0.00000  0.18025

   Total alpha = 20.00000, Total beta = 20.00000, Total charge = -0.00000
