  ==> Input File <==

--------------------------------------------------------------------------
set {
	reference rhf
	basis 6-31G*
}

set_num_threads( 4 )
memory 2 gb

molecule MOL {
0 1

H	 -3.509222	 2.611850	 0.866933
C	 -3.679847	 1.551606	 0.642452
C	 -2.660244	 0.921717	 -0.272021
O	 -4.614266	 0.985196	 1.109133
C	 -1.220012	 1.144545	 0.209990
H	 -2.890406	 -0.133230	 -0.365941
H	 -2.784429	 1.379165	 -1.252825
C	 -0.252658	 0.041456	 -0.226725
H	 -0.873521	 2.100229	 -0.171974
H	 -1.211708	 1.231594	 1.295398
C	 1.180775	 0.282413	 0.250794
H	 -0.266029	 -0.034465	 -1.312038
H	 -0.597733	 -0.921000	 0.146291
C	 2.148627	 -0.814315	 -0.201312
H	 1.516199	 1.249228	 -0.115937
H	 1.192670	 0.346017	 1.338083
C	 3.580890	 -0.659131	 0.322722
H	 2.166869	 -0.852443	 -1.289387
H	 1.762857	 -1.776509	 0.128956
C	 4.324889	 0.564933	 -0.213704
H	 4.142010	 -1.551473	 0.056605
H	 3.564836	 -0.624694	 1.410140
H	 4.342616	 0.565491	 -1.300421
H	 3.866655	 1.493402	 0.110242
H	 5.353900	 0.572371	 0.132816

	symmetry c1
}
set optking {
	frozen_dihedral = ("
		6 3 5 8
	")
}

ee = optimize('scf')
oeprop('DIPOLE', 'QUADRUPOLE', 'MULLIKEN_CHARGES')
f=open( 'psi4out.xyz', 'w' )
f.write( "25  " )
f.write( str(ee) + "\n" )
f.write( MOL.save_string_xyz() )
f.close()
--------------------------------------------------------------------------

    Molecular point group: c1
  Charge       = 0
  Multiplicity = 1
  Basis Set: 6-31G*
  Basis Set:
  @DF-RHF Final Energy:  -387.11964138534688
    Total Energy =                       -387.1196413853471086
    Molecular point group: c1
  Basis Set: 6-31G*
  Basis Set:
  Basis Set: 6-31G*
  Basis Set:
  @DF-RHF Final Energy:  -387.11990261031974
    Total Energy =                       -387.1199026103196275
  Basis Set: 6-31G*
  Basis Set:
  Basis Set: 6-31G*
  Basis Set:
  @DF-RHF Final Energy:  -387.11683733279307
    Total Energy =                       -387.1168373327930112
  Basis Set: 6-31G*
  Basis Set:
  Basis Set: 6-31G*
  Basis Set:
  @DF-RHF Final Energy:  -387.11996206943979
    Total Energy =                       -387.1199620694395662
  Basis Set: 6-31G*
  Basis Set:
  @DF-RHF Final Energy:  -387.11999328118645
    Total Energy =                       -387.1199932811867939
  @DF-RHF Final Energy:  -387.11999014026674
    Total Energy =                       -387.1199901402665091
  @DF-RHF Final Energy:  -387.12000508708292
    Total Energy =                       -387.1200050870834275
  Basis Set: 6-31G*
  Basis Set:
  @DF-RHF Final Energy:  -387.12000360286186
    Total Energy =                       -387.1200036028623117
  Basis Set: 6-31G*
  Basis Set:
  Basis Set: 6-31G*
  Basis Set:
  @DF-RHF Final Energy:  -387.12000594415565
    Total Energy =                       -387.1200059441555368
  Basis Set: 6-31G*
  Basis Set:
  Basis Set: 6-31G*
  Basis Set:
  @DF-RHF Final Energy:  -387.12000706060411
    Total Energy =                       -387.1200070606040526
  Basis Set: 6-31G*
  Basis Set:
  Charge       = 0
  Multiplicity = 1
  Basis Set: 6-31G*
  Basis Set:

    Orbital Energies (a.u.)
    -----------------------

    Doubly Occupied:

       1A    -20.561470     2A    -11.326361     3A    -11.235708
       4A    -11.234443     5A    -11.226148     6A    -11.220735
       7A    -11.219233     8A    -11.218482     9A    -11.211730
      10A     -1.401495    11A     -1.104126    12A     -1.070001
      13A     -1.014805    14A     -0.944819    15A     -0.875218
      16A     -0.813090    17A     -0.796033    18A     -0.781169
      19A     -0.675672    20A     -0.655211    21A     -0.633724
      22A     -0.623543    23A     -0.615061    24A     -0.588260
      25A     -0.563102    26A     -0.562539    27A     -0.528320
      28A     -0.521235    29A     -0.517615    30A     -0.492430
      31A     -0.489072    32A     -0.479435    33A     -0.465884
      34A     -0.460091    35A     -0.449143    36A     -0.407766

  @DF-RHF Final Energy:  -387.12000717962451

   => Energetics <=

    Nuclear Repulsion Energy =            431.7771258890587660
    One-Electron Energy =               -1379.8279303266408533
    Two-Electron Energy =                 560.9307972579576926
    DFT Exchange-Correlation Energy =       0.0000000000000000
    Empirical Dispersion Energy =           0.0000000000000000
    PCM Polarization Energy =               0.0000000000000000
    EFP Energy =                            0.0000000000000000
    Total Energy =                       -387.1200071796243947
    Molecular point group: c1
  Basis Set: 6-31G*
  Basis Set:

  -Total Gradient:
     Atom            X                  Y                   Z
    ------   -----------------  -----------------  -----------------
       1        0.000008111162    -0.000003122243    -0.000004843544
       2        0.000013140375     0.000003470517    -0.000009454854
       3       -0.001809320607    -0.000691189710     0.005473006010
       4       -0.000010557179    -0.000012736651     0.000004697329
       5        0.001109303732     0.002020887538    -0.004104886667
       6        0.001254902660     0.000122100593    -0.003641401070
       7        0.000003363390     0.000004953095     0.000001863821
       8       -0.000563941431    -0.001445231672     0.002293325982
       9       -0.000009130062     0.000004121072    -0.000000586260
      10       -0.000001724292    -0.000002071373    -0.000005813402
      11        0.000001401108     0.000002409119    -0.000008571788
      12       -0.000001256489     0.000007281010     0.000006350308
      13        0.000001005394    -0.000010128368    -0.000006258129
      14        0.000002597541    -0.000001944404     0.000007118406
      15        0.000006081615     0.000002081201    -0.000000208721
      16       -0.000001426862     0.000000743000    -0.000001874690
      17        0.000000216831    -0.000002248026    -0.000003643499
      18        0.000000601192     0.000002557603     0.000002089351
      19        0.000000762936    -0.000002471150    -0.000000124033
      20       -0.000001129996     0.000000989673     0.000000351780
      21       -0.000000964340    -0.000001655516    -0.000000045044
      22       -0.000000948267     0.000000635225    -0.000000950943
      23        0.000000646112    -0.000000192706    -0.000000314604
      24       -0.000001639457     0.000000756989    -0.000000512222
      25       -0.000000095048     0.000000005182     0.000000686481

  **** Optimization is complete! (in 11 steps) ****
    Final optimized geometry and variables:
    Molecular point group: c1

    Geometry (in Angstrom), charge = 0, multiplicity = 1:

    H           -3.362472073367     2.133648624824     0.729743940769
    C           -3.557315856098     1.091842917334     0.448220631666
    C           -2.517150811364     0.461743542200    -0.439034297920
    O           -4.535184397143     0.540957193009     0.838753606629
    C           -1.080301299829     0.697572093686     0.063198729119
    H           -2.736552861546    -0.593719833249    -0.549489720942
    H           -2.627319037245     0.902028541291    -1.429710123487
    C           -0.113118520804    -0.398711718933    -0.387623221720
    H           -0.726831904648     1.669519431987    -0.269787632741
    H           -1.074821191765     0.729466982636     1.151466249498
    C            1.325024610082    -0.157379138602     0.074602473979
    H           -0.134866414953    -0.477514801571    -1.473402907288
    H           -0.462445587983    -1.354912063187    -0.004879996306
    C            2.284052734065    -1.265325635694    -0.369224439746
    H            1.662766625661     0.802645204180    -0.307243258408
    H            1.344897280621    -0.079847079600     1.160665347745
    C            3.719550254581    -1.113686061294     0.146861386290
    H            2.298025394759    -1.315067662141    -1.456906384586
    H            1.893634312194    -2.221498334160    -0.027048638030
    C            4.468078645517     0.101616120771    -0.403576812967
    H            4.274396313361    -2.011711479708    -0.113074042627
    H            3.707745030710    -1.069216557360     1.233976665388
    H            4.484947979431     0.090310080184    -1.490160758755
    H            4.014359143364     1.035685736718    -0.089201062935
    H            5.497323500486     0.108478304359    -0.058409452204

  Mulliken Charges: (a.u.)
   Center  Symbol    Alpha    Beta     Spin     Total
       1     H     0.43169  0.43169  0.00000  0.13661
       2     C     2.82970  2.82970  0.00000  0.34060
       3     C     3.21060  3.21060  0.00000 -0.42119
       4     O     4.23859  4.23859  0.00000 -0.47718
       5     C     3.16525  3.16525  0.00000 -0.33049
       6     H     0.39838  0.39838  0.00000  0.20324
       7     H     0.40670  0.40670  0.00000  0.18661
       8     C     3.15276  3.15276  0.00000 -0.30551
       9     H     0.41655  0.41655  0.00000  0.16691
      10     H     0.41617  0.41617  0.00000  0.16767
      11     C     3.15487  3.15487  0.00000 -0.30973
      12     H     0.42106  0.42106  0.00000  0.15788
      13     H     0.41824  0.41824  0.00000  0.16351
      14     C     3.15309  3.15309  0.00000 -0.30617
      15     H     0.42090  0.42090  0.00000  0.15819
      16     H     0.42263  0.42263  0.00000  0.15474
      17     C     3.15270  3.15270  0.00000 -0.30540
      18     H     0.42369  0.42369  0.00000  0.15261
      19     H     0.42121  0.42121  0.00000  0.15758
      20     C     3.24141  3.24141  0.00000 -0.48283
      21     H     0.42006  0.42006  0.00000  0.15988
      22     H     0.42276  0.42276  0.00000  0.15448
      23     H     0.42211  0.42211  0.00000  0.15578
      24     H     0.42047  0.42047  0.00000  0.15905
      25     H     0.41841  0.41841  0.00000  0.16318

   Total alpha = 36.00000, Total beta = 36.00000, Total charge = -0.00000
