                              Psi4 1.0.54 Driver

  ==> Input File <==

--------------------------------------------------------------------------
set {
	reference rhf
	basis cc-pvtz
}

set_num_threads( 4 )
memory 2 gb

molecule MOL {
0 1

H	 2.413253	 0.529915	 1.172875
O	 1.557416	 0.132006	 1.227156
C	 1.050374	 0.054877	 0.000135
C	 -0.318151	 -0.570512	 0.000144
O	 1.638359	 0.443078	 -0.949361
C	 -1.454884	 0.441630	 -0.000560
H	 -0.371613	 -1.223646	 -0.864985
H	 -0.371920	 -1.222758	 0.865929
C	 -2.822577	 -0.232186	 0.000063
H	 -1.359760	 1.084704	 -0.867077
H	 -1.359641	 1.085996	 0.864983
H	 -2.954352	 -0.858985	 -0.875745
H	 -3.615886	 0.505352	 0.000019
H	 -2.953878	 -0.858359	 0.876394

	symmetry c1
}
set optking {
	frozen_dihedral = ("
		2 3 4 7
	")
}

ee,wfn = optimize('scf', return_wfn=True)
oeprop( wfn, 'DIPOLE', 'QUADRUPOLE', 'MULLIKEN_CHARGES')
f=open( 'psi4out.xyz', 'w' )
f.write( "14  " )
f.write( str(ee) + "\n" )
f.write( MOL.save_string_xyz() )
f.close()
--------------------------------------------------------------------------

    Molecular point group: c1
  Charge       = 0
  Multiplicity = 1
  Basis Set: CC-PVTZ
  Basis Set:
  @DF-RHF Final Energy:  -305.99872764022757
    Total Energy =                       -305.9987276402275711
    Molecular point group: c1
  Basis Set: CC-PVTZ
  Basis Set:
  Basis Set: CC-PVTZ
  Basis Set:
  @DF-RHF Final Energy:  -305.99936569570497
    Total Energy =                       -305.9993656957050234
  Basis Set: CC-PVTZ
  Basis Set:
  Basis Set: CC-PVTZ
  Basis Set:
  @DF-RHF Final Energy:  -305.99860403985622
    Total Energy =                       -305.9986040398563887
  Basis Set: CC-PVTZ
  Basis Set:
  Basis Set: CC-PVTZ
  Basis Set:
  @DF-RHF Final Energy:  -305.99947420416765
    Total Energy =                       -305.9994742041676545
  Basis Set: CC-PVTZ
  Basis Set:
  Basis Set: CC-PVTZ
  Basis Set:
  @DF-RHF Final Energy:  -305.99948961681014
    Total Energy =                       -305.9994896168100809
  Basis Set: CC-PVTZ
  Basis Set:
  Charge       = 0
  Multiplicity = 1
  Basis Set: CC-PVTZ
  Basis Set:

    Orbital Energies (a.u.)
    -----------------------

    Doubly Occupied:

       1A    -20.606070     2A    -20.538192     3A    -11.372922
       4A    -11.237946     5A    -11.233568     6A    -11.218987
       7A     -1.477862     8A     -1.368194     9A     -1.087193
      10A     -0.980724    11A     -0.854992    12A     -0.808102
      13A     -0.706339    14A     -0.689373    15A     -0.646686
      16A     -0.636531    17A     -0.596707    18A     -0.570617
      19A     -0.553317    20A     -0.517399    21A     -0.499455
      22A     -0.489433    23A     -0.474720    24A     -0.442465

  @DF-RHF Final Energy:  -305.99949051929502

   => Energetics <=

    Nuclear Repulsion Energy =            240.7490729291613150
    One-Electron Energy =                -894.2815354695101178
    Two-Electron Energy =                 347.5329720210536379
    DFT Exchange-Correlation Energy =       0.0000000000000000
    Empirical Dispersion Energy =           0.0000000000000000
    PCM Polarization Energy =               0.0000000000000000
    EFP Energy =                            0.0000000000000000
    Total Energy =                       -305.9994905192951364
    Molecular point group: c1
  Basis Set: CC-PVTZ
  Basis Set:

  -Total Gradient:
     Atom            X                  Y                   Z
    ------   -----------------  -----------------  -----------------
       1        0.000036549788     0.000012071203    -0.000020130150
       2        0.000020608188    -0.000351384891    -0.000112600334
       3       -0.000077069836     0.000345440763     0.000270775447
       4       -0.000149621359     0.000406017951    -0.000300562980
       5       -0.000031644230     0.000000116070    -0.000079066295
       6        0.000007675161    -0.000052226647     0.000005191745
       7        0.000179210040    -0.000324972891     0.000212167951
       8       -0.000011097067    -0.000045327822     0.000025438619
       9        0.000014524440     0.000001405639     0.000006031884
      10       -0.000002185191    -0.000001335928    -0.000008605230
      11       -0.000008752229    -0.000006892127     0.000000691021
      12        0.000011130814     0.000009869142     0.000005450656
      13        0.000002668294     0.000004300104    -0.000001276956
      14        0.000008003187     0.000002919434    -0.000003505375

  **** Optimization is complete! (in 6 steps) ****
    Final optimized geometry and variables:
    Molecular point group: c1

    Geometry (in Angstrom), charge = 0, multiplicity = 1:

    H            2.455770240162     0.574280300491     1.029053209754
    O            1.647195048204     0.091195870469     1.114673872229
    C            1.063328460612     0.036875089872    -0.077676637893
    C           -0.261991001050    -0.675222871998    -0.050754338054
    O            1.547660049127     0.527321174399    -1.039377877800
    C           -1.422139898685     0.326480556961    -0.019197569948
    H           -0.320270362095    -1.279397182326    -0.946498688651
    H           -0.305058647153    -1.327356920496     0.810993676932
    C           -2.779003094498    -0.367240305871    -0.021146463925
    H           -1.341659560679     0.983068988056    -0.877306712978
    H           -1.333099757915     0.949578812424     0.864816132633
    H           -2.904795965202    -0.976348541832    -0.909570235933
    H           -3.582981482720     0.358505892062    -0.000096246818
    H           -2.891671261556    -1.012628667336     0.843181920547

  Mulliken Charges: (a.u.)
   Center  Symbol    Alpha    Beta     Spin     Total
       1     H     0.38013  0.38013  0.00000  0.23974
       2     O     4.16169  4.16169  0.00000 -0.32338
       3     C     2.80499  2.80499  0.00000  0.39003
       4     C     3.08753  3.08753  0.00000 -0.17505
       5     O     4.19936  4.19936  0.00000 -0.39873
       6     C     3.09282  3.09282  0.00000 -0.18564
       7     H     0.43980  0.43980  0.00000  0.12039
       8     H     0.44152  0.44152  0.00000  0.11695
       9     C     3.14997  3.14997  0.00000 -0.29993
      10     H     0.44149  0.44149  0.00000  0.11703
      11     H     0.44829  0.44829  0.00000  0.10343
      12     H     0.45282  0.45282  0.00000  0.09436
      13     H     0.44563  0.44563  0.00000  0.10873
      14     H     0.45396  0.45396  0.00000  0.09208

   Total alpha = 24.00000, Total beta = 24.00000, Total charge = -0.00000

*** Psi4 exiting successfully. Buy a developer a beer!
