                              Psi4 1.0.54 Driver

  ==> Input File <==

--------------------------------------------------------------------------
set {
	reference rhf
	basis cc-pvtz
}

set_num_threads( 4 )
memory 2 gb

molecule MOL {
0 1

H	 0.873961	 3.061909	 -2.006470
O	 1.574654	 2.666436	 -1.519283
C	 1.139575	 1.625168	 -0.787814
C	 2.074736	 0.948465	 -0.017964
C	 -0.178894	 1.222706	 -0.783227
H	 3.094659	 1.277985	 -0.036128
C	 1.687380	 -0.124942	 0.750868
H	 -0.921062	 1.726154	 -1.367201
C	 -0.532034	 0.141680	 0.000000
H	 2.417017	 -0.641853	 1.342629
C	 0.368857	 -0.548019	 0.772006
N	 -1.937041	 -0.281114	 0.000000
H	 0.053693	 -1.379381	 1.363808
O	 -2.159542	 -1.446261	 0.000000
O	 -2.764978	 0.565773	 0.000000

	symmetry c1
}
set optking {
	frozen_dihedral = ("
		11 9 12 14
	")
}

ee,wfn = optimize('scf', return_wfn=True)
oeprop( wfn, 'DIPOLE', 'QUADRUPOLE', 'MULLIKEN_CHARGES')
f=open( 'psi4out.xyz', 'w' )
f.write( "15  " )
f.write( str(ee) + "\n" )
f.write( MOL.save_string_xyz() )
f.close()
--------------------------------------------------------------------------

    Molecular point group: c1
  Charge       = 0
  Multiplicity = 1
  Basis Set: CC-PVTZ
  Basis Set:
  @DF-RHF Final Energy:  -509.21594969900946
    Total Energy =                       -509.2159496990093430
    Molecular point group: c1
  Basis Set: CC-PVTZ
  Basis Set:
  Basis Set: CC-PVTZ
  Basis Set:
  @DF-RHF Final Energy:  -509.20881058306048
    Total Energy =                       -509.2088105830605400
  Basis Set: CC-PVTZ
  Basis Set:
  Basis Set: CC-PVTZ
  Basis Set:
  @DF-RHF Final Energy:  -509.21496991945645
    Total Energy =                       -509.2149699194565073
  Basis Set: CC-PVTZ
  Basis Set:
  Basis Set: CC-PVTZ
  Basis Set:
  @DF-RHF Final Energy:  -509.21617969242817
    Total Energy =                       -509.2161796924281134
  Basis Set: CC-PVTZ
  Basis Set:
  Basis Set: CC-PVTZ
  Basis Set:
  @DF-RHF Final Energy:  -509.21611278817068
    Total Energy =                       -509.2161127881707898
  Basis Set: CC-PVTZ
  Basis Set:
  Basis Set: CC-PVTZ
  Basis Set:
  @DF-RHF Final Energy:  -509.21630094552370
    Total Energy =                       -509.2163009455239262
  Basis Set: CC-PVTZ
  Basis Set:
  Charge       = 0
  Multiplicity = 1
  Basis Set: CC-PVTZ
  Basis Set:

    Orbital Energies (a.u.)
    -----------------------

    Doubly Occupied:

       1A    -20.609409     2A    -20.597214     3A    -20.596554
       4A    -15.850246     5A    -11.329088     6A    -11.310838
       7A    -11.264176     8A    -11.263651     9A    -11.258872
      10A    -11.254515    11A     -1.645105    12A     -1.442159
      13A     -1.428092    14A     -1.203764    15A     -1.096435
      16A     -1.049140    17A     -0.967007    18A     -0.884004
      19A     -0.832587    20A     -0.794331    21A     -0.762612
      22A     -0.740976    23A     -0.725736    24A     -0.711819
      25A     -0.675463    26A     -0.636328    27A     -0.622637
      28A     -0.597808    29A     -0.563281    30A     -0.548483
      31A     -0.528259    32A     -0.494892    33A     -0.491862
      34A     -0.459365    35A     -0.378574    36A     -0.346526

  @DF-RHF Final Energy:  -509.21630146096345

   => Energetics <=

    Nuclear Repulsion Energy =            504.5892743509432421
    One-Electron Energy =               -1695.6875381787178867
    Two-Electron Energy =                 681.8819623668111944
    DFT Exchange-Correlation Energy =       0.0000000000000000
    Empirical Dispersion Energy =           0.0000000000000000
    PCM Polarization Energy =               0.0000000000000000
    EFP Energy =                            0.0000000000000000
    Total Energy =                       -509.2163014609634502
    Molecular point group: c1
  Basis Set: CC-PVTZ
  Basis Set:

  -Total Gradient:
     Atom            X                  Y                   Z
    ------   -----------------  -----------------  -----------------
       1        0.000000017411    -0.000007416185    -0.000008139114
       2        0.000004303122     0.000014846114     0.000002604209
       3       -0.000029672332     0.000002704013     0.000036550071
       4        0.000006281629    -0.000008984746     0.000001381575
       5       -0.000006760979    -0.000007266512    -0.000045005167
       6       -0.000000746382     0.000000417361     0.000001764831
       7        0.000023683589    -0.000013803339    -0.000016436428
       8        0.000008165802    -0.000002660611     0.000003983406
       9        0.000987628107    -0.003662634697    -0.005738677187
      10       -0.000000822776     0.000002285208     0.000004747574
      11       -0.000698036944     0.002455833384     0.002860253431
      12       -0.000357295355     0.001295217670     0.007251521948
      13        0.000001381019     0.000003936988    -0.000001788570
      14        0.000121820724    -0.000241344029    -0.004355259727
      15       -0.000059946637     0.000168869392     0.000002499146

  **** Optimization is complete! (in 7 steps) ****
    Final optimized geometry and variables:
    Molecular point group: c1

    Geometry (in Angstrom), charge = 0, multiplicity = 1:

    H            1.019149851069     2.565532959173    -1.828504290182
    O            1.718365229881     2.171819772818    -1.337847990890
    C            1.282357660087     1.135450546216    -0.601489293312
    C            2.212849108715     0.473992479321     0.187603474958
    C           -0.035617588940     0.728048762992    -0.602171685193
    H            3.229296351747     0.814113563950     0.181627542603
    C            1.824599853239    -0.593950952784     0.963421826834
    H           -0.781891300470     1.238330767798    -1.177068681412
    C           -0.379463244665    -0.363450895262     0.166892144699
    H            2.548954010136    -1.091306376186     1.578091564012
    C            0.511750421427    -1.036305026977     0.961494240496
    N           -1.783981149736    -0.774677511065     0.183720685508
    H            0.196146186687    -1.873297830340     1.547586971019
    O           -2.008757257312    -1.937176696405     0.223651610732
    O           -2.602824789019     0.081465942839     0.127272885415

  Mulliken Charges: (a.u.)
   Center  Symbol    Alpha    Beta     Spin     Total
       1     H     0.38437  0.38437  0.00000  0.23125
       2     O     4.16777  4.16777  0.00000 -0.33553
       3     C     2.84425  2.84425  0.00000  0.31150
       4     C     3.10029  3.10029  0.00000 -0.20058
       5     C     3.13941  3.13941  0.00000 -0.27882
       6     H     0.41354  0.41354  0.00000  0.17292
       7     C     3.05470  3.05470  0.00000 -0.10940
       8     H     0.41439  0.41439  0.00000  0.17122
       9     C     2.94449  2.94449  0.00000  0.11103
      10     H     0.41614  0.41614  0.00000  0.16771
      11     C     3.10453  3.10453  0.00000 -0.20905
      12     N     3.26927  3.26927  0.00000  0.46147
      13     H     0.40593  0.40593  0.00000  0.18814
      14     O     4.16874  4.16874  0.00000 -0.33748
      15     O     4.17218  4.17218  0.00000 -0.34436

   Total alpha = 36.00000, Total beta = 36.00000, Total charge =  0.00000

*** Psi4 exiting successfully. Buy a developer a beer!
