                              Psi4 1.0.54 Driver

  ==> Input File <==

--------------------------------------------------------------------------
set {
	reference rhf
	basis cc-pvtz
}

set_num_threads( 4 )
memory 2 gb

molecule MOL {
0 1

H	 -2.798636	 -1.011366	 -0.883543
O	 -2.658848	 -0.704215	 -0.000460
C	 -1.605397	 0.107680	 0.001145
C	 -0.310616	 -0.658853	 0.000791
O	 -1.718351	 1.284629	 -0.000627
C	 0.926581	 0.227233	 0.000178
H	 -0.327628	 -1.313681	 -0.864448
H	 -0.327041	 -1.313334	 0.866298
C	 2.220156	 -0.582071	 -0.000088
H	 0.899945	 0.878221	 -0.866390
H	 0.900542	 0.878581	 0.866486
C	 3.466689	 0.296012	 -0.000457
H	 2.239073	 -1.234095	 -0.869382
H	 2.239505	 -1.233985	 0.869270
H	 3.493549	 0.935857	 -0.875887
H	 4.368821	 -0.304526	 -0.001199
H	 3.494559	 0.935166	 0.875458

	symmetry c1
}
set optking {
	frozen_dihedral = ("
		1 2 3 5
	")
}

ee,wfn = optimize('scf', return_wfn=True)
oeprop( wfn, 'DIPOLE', 'QUADRUPOLE', 'MULLIKEN_CHARGES')
f=open( 'psi4out.xyz', 'w' )
f.write( "17  " )
f.write( str(ee) + "\n" )
f.write( MOL.save_string_xyz() )
f.close()
--------------------------------------------------------------------------

    Molecular point group: c1
  Charge       = 0
  Multiplicity = 1
  Basis Set: CC-PVTZ
  Basis Set:
  @DF-RHF Final Energy:  -345.02734190688005
    Total Energy =                       -345.0273419068801104
    Molecular point group: c1
  Basis Set: CC-PVTZ
  Basis Set:
  Basis Set: CC-PVTZ
  Basis Set:
  @DF-RHF Final Energy:  -345.02807875117122
    Total Energy =                       -345.0280787511711651
  Basis Set: CC-PVTZ
  Basis Set:
  Basis Set: CC-PVTZ
  Basis Set:
  @DF-RHF Final Energy:  -345.02891920593640
    Total Energy =                       -345.0289192059367451
  Basis Set: CC-PVTZ
  Basis Set:
  Basis Set: CC-PVTZ
  Basis Set:
  @DF-RHF Final Energy:  -345.02901105830830
    Total Energy =                       -345.0290110583082424
  Basis Set: CC-PVTZ
  Basis Set:
  Basis Set: CC-PVTZ
  Basis Set:
  @DF-RHF Final Energy:  -345.02900960640767
    Total Energy =                       -345.0290096064073850
  Basis Set: CC-PVTZ
  Basis Set:
  Charge       = 0
  Multiplicity = 1
  Basis Set: CC-PVTZ
  Basis Set:

    Orbital Energies (a.u.)
    -----------------------

    Doubly Occupied:

       1A    -20.586328     2A    -20.550414     3A    -11.374202
       4A    -11.242761     5A    -11.223558     6A    -11.222936
       7A    -11.212459     8A     -1.463327     9A     -1.370908
      10A     -1.094223    11A     -1.018932    12A     -0.909714
      13A     -0.825622    14A     -0.798108    15A     -0.712628
      16A     -0.676236    17A     -0.665757    18A     -0.641979
      19A     -0.596374    20A     -0.586899    21A     -0.542558
      22A     -0.530852    23A     -0.520904    24A     -0.502072
      25A     -0.482681    26A     -0.475780    27A     -0.474836
      28A     -0.445594

  @DF-RHF Final Energy:  -345.02902375035967

   => Energetics <=

    Nuclear Repulsion Energy =            303.9840348305035604
    One-Electron Energy =               -1072.5288357236158845
    Two-Electron Energy =                 423.5157771427525404
    DFT Exchange-Correlation Energy =       0.0000000000000000
    Empirical Dispersion Energy =           0.0000000000000000
    PCM Polarization Energy =               0.0000000000000000
    EFP Energy =                            0.0000000000000000
    Total Energy =                       -345.0290237503597837
    Molecular point group: c1
  Basis Set: CC-PVTZ
  Basis Set:

  -Total Gradient:
     Atom            X                  Y                   Z
    ------   -----------------  -----------------  -----------------
       1       -0.000544760994     0.000694755106    -0.000120541610
       2        0.000772398584    -0.000833347695    -0.000220391302
       3       -0.000219612227     0.000031274625     0.001134947098
       4       -0.000002265406     0.000016279353     0.000034138694
       5        0.000021160353     0.000091261841    -0.000791257468
       6       -0.000000662277     0.000018844811    -0.000025679763
       7        0.000002360296    -0.000001984215    -0.000015755941
       8       -0.000000529715    -0.000008619764    -0.000007561370
       9       -0.000004685260    -0.000015732161     0.000005680671
      10       -0.000002046783     0.000003498148     0.000000001360
      11        0.000000971987    -0.000002536290     0.000002510986
      12       -0.000013502736     0.000009469233     0.000002898321
      13       -0.000003052547    -0.000000209007    -0.000002350397
      14        0.000001015465    -0.000002606530     0.000002209710
      15        0.000000277993     0.000000968423    -0.000001822525
      16       -0.000010150479    -0.000004288374     0.000000420700
      17        0.000003083750     0.000002972497     0.000002552834

  **** Optimization is complete! (in 6 steps) ****
    Final optimized geometry and variables:
    Molecular point group: c1

    Geometry (in Angstrom), charge = 0, multiplicity = 1:

    H           -2.923863717339    -1.000283242075    -0.861999706311
    O           -2.707238540163    -0.686359161347     0.000081482149
    C           -1.609629417417     0.116299414109    -0.012136062435
    C           -0.309700643212    -0.645165873054    -0.000733855408
    O           -1.710525312312     1.285120335740     0.012966558132
    C            0.930841956357     0.235703413264     0.003435565000
    H           -0.314000315278    -1.310712767628    -0.860525602551
    H           -0.337221961059    -1.295339615035     0.868072974459
    C            2.222698148366    -0.576202585597     0.022519566881
    H            0.915148049374     0.881191931030    -0.867901016379
    H            0.896497420133     0.892963877070     0.864764512212
    C            3.471018749984     0.299248346600     0.029153928030
    H            2.249860659199    -1.234685017028    -0.841870789357
    H            2.231225233554    -1.221648582741     0.896770814826
    H            3.508972035661     0.932403427532    -0.850736919986
    H            4.371705732654    -0.303232674832     0.042960221949
    H            3.490441925446     0.944857154077     0.900449414793

  Mulliken Charges: (a.u.)
   Center  Symbol    Alpha    Beta     Spin     Total
       1     H     0.38966  0.38966  0.00000  0.22068
       2     O     4.17254  4.17254  0.00000 -0.34508
       3     C     2.79906  2.79906  0.00000  0.40187
       4     C     3.11905  3.11905  0.00000 -0.23810
       5     O     4.16031  4.16031  0.00000 -0.32062
       6     C     3.08349  3.08349  0.00000 -0.16698
       7     H     0.44891  0.44891  0.00000  0.10217
       8     H     0.43596  0.43596  0.00000  0.12808
       9     C     3.08627  3.08627  0.00000 -0.17253
      10     H     0.44708  0.44708  0.00000  0.10585
      11     H     0.44409  0.44409  0.00000  0.11182
      12     C     3.14915  3.14915  0.00000 -0.29831
      13     H     0.45554  0.45554  0.00000  0.08893
      14     H     0.45421  0.45421  0.00000  0.09157
      15     H     0.45381  0.45381  0.00000  0.09239
      16     H     0.44782  0.44782  0.00000  0.10436
      17     H     0.45305  0.45305  0.00000  0.09390

   Total alpha = 28.00000, Total beta = 28.00000, Total charge = -0.00000

*** Psi4 exiting successfully. Buy a developer a beer!
