                              Psi4 1.0.54 Driver

  ==> Input File <==

--------------------------------------------------------------------------
set {
	reference rhf
	basis cc-pvtz
}

set_num_threads( 4 )
memory 2 gb

molecule MOL {
0 1

H	 -3.642953	 0.223825	 0.000000
C	 -2.571844	 0.155001	 0.000000
C	 -1.957580	 -1.086132	 0.000000
C	 -1.807160	 1.303787	 0.000000
H	 -2.551493	 -1.979629	 0.000000
C	 -0.582719	 -1.174294	 0.000000
H	 -2.279934	 2.266806	 0.000000
C	 -0.427220	 1.213406	 0.000000
H	 -0.094904	 -2.127556	 0.000000
C	 0.196908	 -0.024061	 0.000000
H	 0.151409	 2.115254	 0.000000
C	 1.690041	 -0.173233	 0.000000
C	 2.420821	 -0.246242	 1.321094
O	 2.291104	 -0.233283	 -1.024929
H	 2.249793	 0.650771	 1.904272
H	 3.475718	 -0.351632	 1.124076
H	 2.075712	 -1.091691	 1.904272

	symmetry c1
}
set optking {
	frozen_dihedral = ("
		13 12 10 8
	")
}

ee,wfn = optimize('scf', return_wfn=True)
oeprop( wfn, 'DIPOLE', 'QUADRUPOLE', 'MULLIKEN_CHARGES')
f=open( 'psi4out.xyz', 'w' )
f.write( "17  " )
f.write( str(ee) + "\n" )
f.write( MOL.save_string_xyz() )
f.close()
--------------------------------------------------------------------------

    Molecular point group: c1
  Charge       = 0
  Multiplicity = 1
  Basis Set: CC-PVTZ
  Basis Set:
  @DF-RHF Final Energy:  -382.59635518128835
    Total Energy =                       -382.5963551812883452
    Molecular point group: c1
  Basis Set: CC-PVTZ
  Basis Set:
  Basis Set: CC-PVTZ
  Basis Set:
  @DF-RHF Final Energy:  -382.59686688006025
    Total Energy =                       -382.5968668800600199
  Basis Set: CC-PVTZ
  Basis Set:
  Basis Set: CC-PVTZ
  Basis Set:
  @DF-RHF Final Energy:  -382.59181262434174
    Total Energy =                       -382.5918126243418556
  Basis Set: CC-PVTZ
  Basis Set:
  Basis Set: CC-PVTZ
  Basis Set:
  @DF-RHF Final Energy:  -382.59624255212253
    Total Energy =                       -382.5962425521225896
  Basis Set: CC-PVTZ
  Basis Set:
  Basis Set: CC-PVTZ
  Basis Set:
  @DF-RHF Final Energy:  -382.59712450970380
    Total Energy =                       -382.5971245097035762
  Basis Set: CC-PVTZ
  Basis Set:
  Basis Set: CC-PVTZ
  Basis Set:
  @DF-RHF Final Energy:  -382.59714141700834
    Total Energy =                       -382.5971414170082880
  Basis Set: CC-PVTZ
  Basis Set:
  Basis Set: CC-PVTZ
  Basis Set:
  @DF-RHF Final Energy:  -382.59714245961686
    Total Energy =                       -382.5971424596167481
  Basis Set: CC-PVTZ
  Basis Set:
  Charge       = 0
  Multiplicity = 1
  Basis Set: CC-PVTZ
  Basis Set:

    Orbital Energies (a.u.)
    -----------------------

    Doubly Occupied:

       1A    -20.548980     2A    -11.331183     3A    -11.247272
       4A    -11.241420     5A    -11.241290     6A    -11.239447
       7A    -11.239132     8A    -11.236782     9A    -11.231607
      10A     -1.408592    11A     -1.171144    12A     -1.054175
      13A     -1.029665    14A     -1.001704    15A     -0.862311
      16A     -0.841564    17A     -0.765638    18A     -0.706356
      19A     -0.667280    20A     -0.647504    21A     -0.633488
      22A     -0.623366    23A     -0.602099    24A     -0.592981
      25A     -0.565637    26A     -0.525117    27A     -0.515584
      28A     -0.513019    29A     -0.497220    30A     -0.413500
      31A     -0.348875    32A     -0.346399

  @DF-RHF Final Energy:  -382.59714267140714

   => Energetics <=

    Nuclear Repulsion Energy =            403.5060071580159047
    One-Electron Energy =               -1318.4256415030943117
    Two-Electron Energy =                 532.3224916736712657
    DFT Exchange-Correlation Energy =       0.0000000000000000
    Empirical Dispersion Energy =           0.0000000000000000
    PCM Polarization Energy =               0.0000000000000000
    EFP Energy =                            0.0000000000000000
    Total Energy =                       -382.5971426714071413
    Molecular point group: c1
  Basis Set: CC-PVTZ
  Basis Set:

  -Total Gradient:
     Atom            X                  Y                   Z
    ------   -----------------  -----------------  -----------------
       1       -0.000001700151    -0.000004647848    -0.000000503799
       2       -0.000004360644     0.000064997626     0.000018028241
       3        0.000069278043    -0.000024958874    -0.000012957697
       4       -0.000047577311    -0.000026120857    -0.000009420725
       5       -0.000009545725    -0.000000702851    -0.000000548295
       6       -0.000080176125    -0.000011608530     0.000008848142
       7       -0.000002718291     0.000007200127    -0.000000529715
       8        0.000025920766    -0.000042693167    -0.000031147417
       9        0.000016135976    -0.000004722556     0.000000358276
      10       -0.000003844908     0.000019789411     0.000053785338
      11        0.000001535024     0.000008693493     0.000002419516
      12        0.000032671042     0.000054115600    -0.000100286090
      13       -0.000002180598    -0.000043881197     0.000009955100
      14       -0.000011181429    -0.000003030921     0.000043144783
      15        0.000003935469     0.000016025067     0.000006442845
      16        0.000016904991     0.000000101351     0.000010950141
      17       -0.000003096126    -0.000008555871     0.000001461360

  **** Optimization is complete! (in 8 steps) ****
    Final optimized geometry and variables:
    Molecular point group: c1

    Geometry (in Angstrom), charge = 0, multiplicity = 1:

    H           -3.624183564938     0.385814521716     0.007148402936
    C           -2.557123961003     0.273637257469    -0.004242682555
    C           -1.993342168069    -0.975601232954    -0.180956846569
    C           -1.742235458009     1.378158060732     0.154455130021
    H           -2.621586384520    -1.836056956332    -0.309571732543
    C           -0.619313590948    -1.120921365142    -0.196957293266
    H           -2.174655606189     2.351320399826     0.287065705873
    C           -0.367846712798     1.234578327177     0.138876010083
    H           -0.186595764267    -2.092917238595    -0.343149428056
    C            0.198250552688    -0.015487652256    -0.039225119432
    H            0.260546499316     2.097808460193     0.254474279569
    C            1.698352268353    -0.171559685254    -0.069147895468
    C            2.376655260739    -0.428532922136     1.253882692477
    O            2.303696526762    -0.095066846828    -1.085600339786
    H            2.162877823533     0.383568600567     1.939875985413
    H            3.442503116175    -0.522809790714     1.111076403441
    H            1.978874723864    -1.332960562171     1.700590271799

  Mulliken Charges: (a.u.)
   Center  Symbol    Alpha    Beta     Spin     Total
       1     H     0.42168  0.42168  0.00000  0.15665
       2     C     3.08633  3.08633  0.00000 -0.17266
       3     C     3.06296  3.06296  0.00000 -0.12591
       4     C     3.06298  3.06298  0.00000 -0.12597
       5     H     0.42138  0.42138  0.00000  0.15723
       6     C     3.09866  3.09866  0.00000 -0.19733
       7     H     0.42138  0.42138  0.00000  0.15723
       8     C     3.09874  3.09874  0.00000 -0.19748
       9     H     0.42301  0.42301  0.00000  0.15397
      10     C     2.95126  2.95126  0.00000  0.09748
      11     H     0.42305  0.42305  0.00000  0.15390
      12     C     2.88246  2.88246  0.00000  0.23509
      13     C     3.14972  3.14972  0.00000 -0.29945
      14     O     4.16609  4.16609  0.00000 -0.33218
      15     H     0.44705  0.44705  0.00000  0.10589
      16     H     0.43623  0.43623  0.00000  0.12755
      17     H     0.44701  0.44701  0.00000  0.10597

   Total alpha = 32.00000, Total beta = 32.00000, Total charge = -0.00000

*** Psi4 exiting successfully. Buy a developer a beer!
