  ==> Input File <==

--------------------------------------------------------------------------
set {
	reference rhf
	basis 6-31G*
}

set_num_threads( 1 )
memory 2 gb

molecule MOL {
0 1

H	 1.813164	 2.228903	 -1.761919
O	 2.619538	 1.835167	 -2.061593
C	 3.120759	 0.971516	 -1.073191
C	 2.320300	 -0.319396	 -0.940762
H	 4.136446	 0.743005	 -1.369566
H	 3.171642	 1.481371	 -0.111818
C	 0.876160	 -0.111528	 -0.478035
H	 2.326158	 -0.828809	 -1.900882
H	 2.836595	 -0.967533	 -0.234557
C	 0.115918	 -1.429151	 -0.302766
H	 0.356793	 0.513925	 -1.198752
H	 0.873441	 0.430879	 0.467549
C	 -1.309753	 -1.282496	 0.241564
H	 0.084984	 -1.954110	 -1.255818
H	 0.679512	 -2.066292	 0.375551
C	 -2.037799	 -0.007733	 -0.193645
H	 -1.890610	 -2.142323	 -0.085726
H	 -1.285946	 -1.330893	 1.329189
C	 -3.489788	 0.042957	 0.286558
H	 -2.017067	 0.064384	 -1.280144
H	 -1.513726	 0.868678	 0.179924
C	 -4.216917	 1.317354	 -0.141063
H	 -4.025645	 -0.823308	 -0.095450
H	 -3.513059	 -0.038752	 1.371301
H	 -4.239342	 1.411634	 -1.223113
H	 -5.243387	 1.322503	 0.212445
H	 -3.726170	 2.201406	 0.256408

	symmetry c1
}
set optking {
	frozen_dihedral = ("
		14 10 7 4,
		10 7 4 8,
		8 4 3 2,
		10 13 16 20,
		20 16 19 22,
		4 3 2 1
	")
}

ee = energy('scf')
oeprop('DIPOLE', 'QUADRUPOLE', 'MULLIKEN_CHARGES')
f=open( 'psi4out.xyz', 'w' )
f.write( "27  " )
f.write( str(ee) + "\n" )
f.write( MOL.save_string_xyz() )
f.close()
--------------------------------------------------------------------------

    Molecular point group: c1

    Geometry (in Angstrom), charge = 0, multiplicity = 1:

       Center              X                  Y                   Z               Mass
    ------------   -----------------  -----------------  -----------------  -----------------
           H          2.003871178509     2.070184097789    -1.219670232382     1.007825032070
           O          2.810245178509     1.676448097789    -1.519344232382    15.994914619560
           C          3.311466178509     0.812797097789    -0.530942232382    12.000000000000
           C          2.511007178509    -0.478114902211    -0.398513232382    12.000000000000
           H          4.327153178509     0.584286097789    -0.827317232382     1.007825032070
           H          3.362349178509     1.322652097789     0.430430767618     1.007825032070
           C          1.066867178509    -0.270246902211     0.064213767618    12.000000000000
           H          2.516865178509    -0.987527902211    -1.358633232382     1.007825032070
           H          3.027302178509    -1.126251902211     0.307691767618     1.007825032070
           C          0.306625178509    -1.587869902211     0.239482767618    12.000000000000
           H          0.547500178509     0.355206097789    -0.656503232382     1.007825032070
           H          1.064148178509     0.272160097789     1.009797767618     1.007825032070
           C         -1.119045821491    -1.441214902211     0.783812767618    12.000000000000
           H          0.275691178509    -2.112828902211    -0.713569232382     1.007825032070
           H          0.870219178509    -2.225010902211     0.917799767618     1.007825032070
           C         -1.847091821491    -0.166451902211     0.348603767618    12.000000000000
           H         -1.699902821491    -2.301041902211     0.456522767618     1.007825032070
           H         -1.095238821491    -1.489611902211     1.871437767618     1.007825032070
           C         -3.299080821491    -0.115761902211     0.828806767618    12.000000000000
           H         -1.826359821491    -0.094334902211    -0.737895232382     1.007825032070
           H         -1.323018821491     0.709959097789     0.722172767618     1.007825032070
           C         -4.026209821491     1.158635097789     0.401185767618    12.000000000000
           H         -3.834937821491    -0.982026902211     0.446798767618     1.007825032070
           H         -3.322351821491    -0.197470902211     1.913549767618     1.007825032070
           H         -4.048634821491     1.252915097789    -0.680864232382     1.007825032070
           H         -5.052679821491     1.163784097789     0.754693767618     1.007825032070
           H         -3.535462821491     2.042687097789     0.798656767618     1.007825032070

  Charge       = 0
  Multiplicity = 1
  Basis Set: 6-31G*
  Basis Set:

    Orbital Energies (a.u.)
    -----------------------

    Doubly Occupied:

       1A    -20.552107     2A    -11.266814     3A    -11.219378
       4A    -11.216768     5A    -11.216187     6A    -11.215360
       7A    -11.214717     8A    -11.214695     9A    -11.209873
      10A     -1.358850    11A     -1.096490    12A     -1.060604
      13A     -1.011523    14A     -0.947010    15A     -0.891048
      16A     -0.819816    17A     -0.807648    18A     -0.769427
      19A     -0.693358    20A     -0.658255    21A     -0.633098
      22A     -0.615151    23A     -0.602185    24A     -0.584676
      25A     -0.577338    26A     -0.553463    27A     -0.539728
      28A     -0.533986    29A     -0.506108    30A     -0.496681
      31A     -0.487538    32A     -0.475061    33A     -0.465847
      34A     -0.455610    35A     -0.450621    36A     -0.442664
      37A     -0.423205

  @DF-RHF Final Energy:  -388.27736309585407

   => Energetics <=

    Nuclear Repulsion Energy =            463.7047363475879820
    One-Electron Energy =               -1445.3986342071391391
    Two-Electron Energy =                 593.4165347636969727
    DFT Exchange-Correlation Energy =       0.0000000000000000
    Empirical Dispersion Energy =           0.0000000000000000
    PCM Polarization Energy =               0.0000000000000000
    EFP Energy =                            0.0000000000000000
    Total Energy =                       -388.2773630958541844

  Mulliken Charges: (a.u.)
   Center  Symbol    Alpha    Beta     Spin     Total
       1     H     0.27991  0.27991  0.00000  0.44018
       2     O     4.37099  4.37099  0.00000 -0.74199
       3     C     2.99730  2.99730  0.00000  0.00539
       4     C     3.16028  3.16028  0.00000 -0.32056
       5     H     0.41448  0.41448  0.00000  0.17104
       6     H     0.43220  0.43220  0.00000  0.13559
       7     C     3.16639  3.16639  0.00000 -0.33277
       8     H     0.41519  0.41519  0.00000  0.16961
       9     H     0.42457  0.42457  0.00000  0.15085
      10     C     3.15200  3.15200  0.00000 -0.30401
      11     H     0.42140  0.42140  0.00000  0.15720
      12     H     0.42507  0.42507  0.00000  0.14985
      13     C     3.15326  3.15326  0.00000 -0.30652
      14     H     0.42079  0.42079  0.00000  0.15842
      15     H     0.42106  0.42106  0.00000  0.15787
      16     C     3.15597  3.15597  0.00000 -0.31193
      17     H     0.42073  0.42073  0.00000  0.15855
      18     H     0.42290  0.42290  0.00000  0.15421
      19     C     3.15052  3.15052  0.00000 -0.30103
      20     H     0.42350  0.42350  0.00000  0.15300
      21     H     0.42298  0.42298  0.00000  0.15405
      22     C     3.23926  3.23926  0.00000 -0.47851
      23     H     0.42281  0.42281  0.00000  0.15438
      24     H     0.42316  0.42316  0.00000  0.15369
      25     H     0.42169  0.42169  0.00000  0.15663
      26     H     0.41897  0.41897  0.00000  0.16207
      27     H     0.42264  0.42264  0.00000  0.15472

   Total alpha = 37.00000, Total beta = 37.00000, Total charge =  0.00000
