  ==> Input File <==

--------------------------------------------------------------------------
set {
	reference rhf
	basis 6-31G*
}

set_num_threads( 1 )
memory 2 gb

molecule MOL {
0 1

O	 0.749854	 1.307668	 -0.000040
C	 0.576249	 0.131685	 -0.000108
C	 -0.766779	 -0.556801	 -0.000461
O	 1.568443	 -0.749345	 -0.000005
C	 -1.945214	 0.412366	 0.000161
H	 -0.796911	 -1.211249	 -0.867467
H	 -0.796854	 -1.212390	 0.865687
C	 -3.249975	 -0.270812	 -0.406575
H	 -1.732421	 1.235143	 -0.673902
H	 -2.048577	 0.849557	 0.987458
H	 -3.182103	 -0.690296	 -1.406515
H	 -4.074448	 0.434600	 -0.400356
H	 -3.502344	 -1.079379	 0.273869
C	 2.886820	 -0.232538	 0.000322
H	 3.059106	 0.369571	 -0.880203
H	 3.540187	 -1.091012	 0.000050
H	 3.059019	 0.368956	 0.881266

	symmetry c1
}
set optking {
	frozen_dihedral = ("
		1 2 3 6,
		14 4 2 1
	")
}

ee = energy('scf')
oeprop('DIPOLE', 'QUADRUPOLE', 'MULLIKEN_CHARGES')
f=open( 'psi4out.xyz', 'w' )
f.write( "17  " )
f.write( str(ee) + "\n" )
f.write( MOL.save_string_xyz() )
f.close()
--------------------------------------------------------------------------

    Molecular point group: c1

    Geometry (in Angstrom), charge = 0, multiplicity = 1:

       Center              X                  Y                   Z               Mass
    ------------   -----------------  -----------------  -----------------  -----------------
           O          0.744287531128     1.300861050183     0.059825064777    15.994914619560
           C          0.570682531128     0.124878050183     0.059757064777    12.000000000000
           C         -0.772345468872    -0.563607949817     0.059404064777    12.000000000000
           O          1.562876531128    -0.756151949817     0.059860064777    15.994914619560
           C         -1.950780468872     0.405559050183     0.060026064777    12.000000000000
           H         -0.802477468872    -1.218055949817    -0.807601935223     1.007825032070
           H         -0.802420468872    -1.219196949817     0.925552064777     1.007825032070
           C         -3.255541468872    -0.277618949817    -0.346709935223    12.000000000000
           H         -1.737987468872     1.228336050183    -0.614036935223     1.007825032070
           H         -2.054143468872     0.842750050183     1.047323064777     1.007825032070
           H         -3.187669468872    -0.697102949817    -1.346649935223     1.007825032070
           H         -4.080014468872     0.427793050183    -0.340490935223     1.007825032070
           H         -3.507910468872    -1.086185949817     0.333734064777     1.007825032070
           C          2.881253531128    -0.239344949817     0.060187064777    12.000000000000
           H          3.053539531128     0.362764050183    -0.820337935223     1.007825032070
           H          3.534620531128    -1.097818949817     0.059915064777     1.007825032070
           H          3.053452531128     0.362149050183     0.941131064777     1.007825032070

  Charge       = 0
  Multiplicity = 1
  Basis Set: 6-31G*
  Basis Set:

    Orbital Energies (a.u.)
    -----------------------

    Doubly Occupied:

       1A    -20.604159     2A    -20.546018     3A    -11.372825
       4A    -11.281192     5A    -11.235775     6A    -11.221163
       7A    -11.214335     8A     -1.469884     9A     -1.363414
      10A     -1.080443    11A     -1.001409    12A     -0.939679
      13A     -0.827292    14A     -0.767300    15A     -0.700985
      16A     -0.683394    17A     -0.672530    18A     -0.636163
      19A     -0.596014    20A     -0.574233    21A     -0.568990
      22A     -0.527929    23A     -0.522578    24A     -0.496638
      25A     -0.487227    26A     -0.477815    27A     -0.456586
      28A     -0.438670

  @DF-RHF Final Energy:  -344.90591867960649

   => Energetics <=

    Nuclear Repulsion Energy =            312.6358679871530626
    One-Electron Energy =               -1089.5541105618617621
    Two-Electron Energy =                 432.0123238951027815
    DFT Exchange-Correlation Energy =       0.0000000000000000
    Empirical Dispersion Energy =           0.0000000000000000
    PCM Polarization Energy =               0.0000000000000000
    EFP Energy =                            0.0000000000000000
    Total Energy =                       -344.9059186796059748

  Mulliken Charges: (a.u.)
   Center  Symbol    Alpha    Beta     Spin     Total
       1     O     4.28550  4.28550  0.00000 -0.57101
       2     C     2.60739  2.60739  0.00000  0.78522
       3     C     3.20661  3.20661  0.00000 -0.41322
       4     O     4.30661  4.30661  0.00000 -0.61322
       5     C     3.15356  3.15356  0.00000 -0.30712
       6     H     0.40090  0.40090  0.00000  0.19820
       7     H     0.39993  0.39993  0.00000  0.20014
       8     C     3.24303  3.24303  0.00000 -0.48607
       9     H     0.40514  0.40514  0.00000  0.18972
      10     H     0.41437  0.41437  0.00000  0.17126
      11     H     0.42091  0.42091  0.00000  0.15819
      12     H     0.41547  0.41547  0.00000  0.16906
      13     H     0.42176  0.42176  0.00000  0.15648
      14     C     3.09245  3.09245  0.00000 -0.18489
      15     H     0.40902  0.40902  0.00000  0.18197
      16     H     0.40836  0.40836  0.00000  0.18328
      17     H     0.40899  0.40899  0.00000  0.18202

   Total alpha = 28.00000, Total beta = 28.00000, Total charge = -0.00000
