  ==> Input File <==

--------------------------------------------------------------------------
set {
	reference rhf
	basis cc-pvtz
}

set_num_threads( 4 )
memory 2 gb

molecule MOL {
0 1

H	 2.828711	 -0.346904	 0.001083
C	 1.876752	 0.015931	 -0.363450
C	 0.776285	 -0.474665	 0.563092
H	 1.728113	 -0.357244	 -1.367440
H	 1.906171	 1.096574	 -0.386153
N	 -0.540022	 0.017605	 0.071630
H	 0.707111	 -1.548969	 0.573035
H	 0.886169	 -0.084184	 1.560432
O	 -0.719504	 0.008514	 -1.099651
O	 -1.308252	 0.411833	 0.883297

	symmetry c1
}
set optking {
	frozen_dihedral = ("
		9 6 3 2
	")
}

ee = optimize('scf')
oeprop('DIPOLE', 'QUADRUPOLE', 'MULLIKEN_CHARGES')
f=open( 'psi4out.xyz', 'w' )
f.write( "10  " )
f.write( str(ee) + "\n" )
f.write( MOL.save_string_xyz() )
f.close()
--------------------------------------------------------------------------

    Molecular point group: c1
  Charge       = 0
  Multiplicity = 1
  Basis Set: CC-PVTZ
  Basis Set:
  @DF-RHF Final Energy:  -282.81219436296010
    Total Energy =                       -282.8121943629599286
    Molecular point group: c1
  Basis Set: CC-PVTZ
  Basis Set:
  Basis Set: CC-PVTZ
  Basis Set:
  @DF-RHF Final Energy:  -282.80875754082990
    Total Energy =                       -282.8087575408298449
  Basis Set: CC-PVTZ
  Basis Set:
  Basis Set: CC-PVTZ
  Basis Set:
  @DF-RHF Final Energy:  -282.81165688438284
    Total Energy =                       -282.8116568843828418
  Basis Set: CC-PVTZ
  Basis Set:
  Basis Set: CC-PVTZ
  Basis Set:
  @DF-RHF Final Energy:  -282.81302007973301
    Total Energy =                       -282.8130200797330644
  Basis Set: CC-PVTZ
  Basis Set:
  Basis Set: CC-PVTZ
  Basis Set:
  @DF-RHF Final Energy:  -282.81303733468133
    Total Energy =                       -282.8130373346810416
  Basis Set: CC-PVTZ
  Basis Set:
  Charge       = 0
  Multiplicity = 1
  Basis Set: CC-PVTZ
  Basis Set:

    Orbital Energies (a.u.)
    -----------------------

    Doubly Occupied:

       1A    -20.592691     2A    -20.591825     3A    -15.839253
       4A    -11.302721     5A    -11.245809     6A     -1.638370
       7A     -1.422683     8A     -1.124580     9A     -0.967011
      10A     -0.836728    11A     -0.764695    12A     -0.746276
      13A     -0.731715    14A     -0.648167    15A     -0.592149
      16A     -0.563689    17A     -0.540416    18A     -0.489825
      19A     -0.479507    20A     -0.455991

  @DF-RHF Final Energy:  -282.81303998412943

   => Energetics <=

    Nuclear Repulsion Energy =            186.5765794974005303
    One-Electron Energy =                -755.6310355093235103
    Two-Electron Energy =                 286.2414160277936048
    DFT Exchange-Correlation Energy =       0.0000000000000000
    Empirical Dispersion Energy =           0.0000000000000000
    PCM Polarization Energy =               0.0000000000000000
    EFP Energy =                            0.0000000000000000
    Total Energy =                       -282.8130399841293752
    Molecular point group: c1
  Basis Set: CC-PVTZ
  Basis Set:

  -Total Gradient:
     Atom            X                  Y                   Z
    ------   -----------------  -----------------  -----------------
       1        0.000022475865     0.000000807741     0.000003402905
       2        0.000042532258    -0.000173012634    -0.000127488036
       3        0.000054613976     0.000371371965     0.000092558360
       4       -0.000007853196     0.000018139335     0.000040053680
       5       -0.000005927270    -0.000015583575     0.000001316493
       6       -0.000294286006    -0.000410974249    -0.000102968070
       7       -0.000024406674    -0.000004273769    -0.000001280694
       8       -0.000026180861    -0.000000633618    -0.000002700633
       9        0.000186689403     0.000200858273    -0.000077715460
      10        0.000052342504     0.000013300532     0.000174821451

  **** Optimization is complete! (in 6 steps) ****
    Final optimized geometry and variables:
    Molecular point group: c1

    Geometry (in Angstrom), charge = 0, multiplicity = 1:

    H            2.851290203381    -0.355209503620     0.022297675788
    C            1.914448688532     0.010869549016    -0.378603262710
    C            0.793459480113    -0.447782557204     0.530105877334
    H            1.789110164480    -0.371840425806    -1.379231233704
    H            1.962612797012     1.091104781887    -0.422324109266
    N           -0.543785506928     0.029446164438     0.067839195506
    H            0.704826581860    -1.525133837517     0.544316075196
    H            0.891216916477    -0.088098167233     1.539266068211
    O           -0.760379835307     0.015011869845    -1.096818801695
    O           -1.311744002823     0.365707341660     0.904589299461

  Mulliken Charges: (a.u.)
   Center  Symbol    Alpha    Beta     Spin     Total
       1     H     0.44917  0.44917  0.00000  0.10165
       2     C     3.14067  3.14067  0.00000 -0.28134
       3     C     3.04048  3.04048  0.00000 -0.08097
       4     H     0.43658  0.43658  0.00000  0.12684
       5     H     0.44529  0.44529  0.00000  0.10942
       6     N     3.27745  3.27745  0.00000  0.44510
       7     H     0.43708  0.43708  0.00000  0.12584
       8     H     0.43130  0.43130  0.00000  0.13741
       9     O     4.17227  4.17227  0.00000 -0.34454
      10     O     4.16970  4.16970  0.00000 -0.33940

   Total alpha = 20.00000, Total beta = 20.00000, Total charge = -0.00000
